<event>
12    1  0.1683022E-002  0.1835894E+03  0.7818608E-02  0.1164517E+00
         21   -1    0    0  501  502  0.00000000000E+00  0.00000000000E+00  0.11455223919E+03  0.11455223919E+03  0.00000000000E+00 0.  1.
         21   -1    0    0  502  503 -0.00000000000E+00 -0.00000000000E+00 -0.54098464622E+03  0.54098464622E+03  0.00000000000E+00 0.  1.
          6    2    1    2  501    0 -0.16614590973E+02 -0.61577809067E+02  0.87733841985E+01  0.18319257949E+03  0.17150707771E+03 0.  0.
         24    2    3    3    0    0 -0.53093650721E+02 -0.55222132602E+02  0.56044210146E+02  0.12296187794E+03  0.78168089775E+02 0.  0.
         -6    2    1    2    0  503  0.16614590973E+02  0.61577809067E+02 -0.43520579123E+03  0.47234430593E+03  0.17215455676E+03 0.  0.
        -24    2    5    5    0    0 -0.30529468656E+02 -0.21817796933E+02 -0.20876271034E+03  0.22642572520E+03  0.79238091139E+02 0.  0.
          5    1    3    3  501    0  0.36479059748E+02 -0.63556764655E+01 -0.47270825947E+02  0.60230701549E+02  0.47000000000E+01 0. -1.
        -13    1    4    4    0    0 -0.56601206951E+02 -0.43642876820E+02  0.62804463115E+01  0.71748458738E+02  0.00000000000E+00 0.  1.
         14    1    4    4    0    0  0.35075562296E+01 -0.11579255782E+02  0.49763763834E+02  0.51213419200E+02  0.00000000000E+00 0. -1.
         -5    1    5    5    0  503  0.47144059629E+02  0.83395606001E+02 -0.22644308090E+03  0.24591858072E+03  0.47000000000E+01 0.  1.
         11    1    6    6    0    0 -0.34661468657E+02  0.19219044028E+02 -0.14630985214E+03  0.15158285489E+03  0.00000000000E+00 0. -1.
        -12    1    6    6    0    0  0.41320000007E+01 -0.41036840962E+02 -0.62452858198E+02  0.74842870316E+02  0.00000000000E+00 0.  1.
</event>
<event>
12    1  0.1683022E-002  0.1929616E+03  0.7818608E-02  0.1159880E+00
         21   -1    0    0  503  502  0.00000000000E+00  0.00000000000E+00  0.38602453501E+03  0.38602453501E+03  0.00000000000E+00 0. -1.
         21   -1    0    0  501  503 -0.00000000000E+00 -0.00000000000E+00 -0.96626138906E+02  0.96626138906E+02  0.00000000000E+00 0. -1.
          6    2    1    2  501    0 -0.26043733319E+02 -0.30553180561E+02  0.78569358728E+02  0.20834425775E+03  0.18873900688E+03 0.  0.
         24    2    3    3    0    0  0.24588153995E+02 -0.83685541860E+02  0.46246830708E+02  0.12801075510E+03  0.81487034780E+02 0.  0.
         -6    2    1    2    0  502  0.26043733319E+02  0.30553180561E+02  0.21082903737E+03  0.27430641617E+03  0.17083136147E+03 0.  0.
        -24    2    5    5    0    0  0.78116683844E+02  0.39126854936E+02  0.16703966266E+03  0.20556996727E+03  0.81997777234E+02 0.  0.
          5    1    3    3  501    0 -0.50631887314E+02  0.53132361299E+02  0.32322528021E+02  0.80333502649E+02  0.47000000000E+01 0. -1.
        -11    1    4    4    0    0  0.14990195824E+01  0.16468675222E+02  0.51815579254E+01  0.17329537380E+02  0.00000000000E+00 0.  1.
         12    1    4    4    0    0  0.23089134413E+02 -0.10015421708E+03  0.41065272782E+02  0.11068121772E+03  0.00000000000E+00 0. -1.
         -5    1    5    5    0  502 -0.52072950524E+02 -0.85736743754E+01  0.43789374717E+02  0.68736448895E+02  0.47000000000E+01 0.  1.
         13    1    6    6    0    0  0.72686327127E+01  0.27586139042E+02  0.58524357305E+01  0.29121797553E+02  0.00000000000E+00 0. -1.
        -14    1    6    6    0    0  0.70848051131E+02  0.11540715894E+02  0.16118722693E+03  0.17644816972E+03  0.00000000000E+00 0.  1.
</event>
<event>
12    1  0.1683022E-002  0.1935118E+03  0.7818608E-02  0.1155359E+00
         21   -1    0    0  503  502  0.00000000000E+00  0.00000000000E+00  0.22505710675E+03  0.22505710675E+03  0.00000000000E+00 0.  1.
         21   -1    0    0  501  503 -0.00000000000E+00 -0.00000000000E+00 -0.17538795609E+03  0.17538795609E+03  0.00000000000E+00 0.  1.
          6    2    1    2  501    0  0.21490431099E+02 -0.86000529291E+02 -0.20785395273E+02  0.19462490393E+03  0.17201421716E+03 0.  0.
         24    2    3    3    0    0  0.26778860698E+02 -0.51609005301E+02 -0.78840034971E+02  0.12677819730E+03  0.80475855926E+02 0.  0.
         -6    2    1    2    0  502 -0.21490431099E+02  0.86000529291E+02  0.70454545928E+02  0.20582015892E+03  0.17187252575E+03 0.  0.
        -24    2    5    5    0    0 -0.25365701731E+02  0.68576586093E+02  0.11335156541E+03  0.15912052509E+03  0.84407328716E+02 0.  0.
          5    1    3    3  501    0 -0.52884295988E+01 -0.34391523990E+02  0.58054639698E+02  0.67846706629E+02  0.47000000000E+01 0. -1.
        -13    1    4    4    0    0 -0.66118820734E+01 -0.51718311575E+02 -0.14224164931E+02  0.54044681558E+02  0.00000000000E+00 0.  1.
         14    1    4    4    0    0  0.33390742771E+02  0.10930627391E+00 -0.64615870039E+02  0.72733515738E+02  0.00000000000E+00 0. -1.
         -5    1    5    5    0  502  0.38752706320E+01  0.17423943198E+02 -0.42897019481E+02  0.46699633825E+02  0.47000000000E+01 0.  1.
         11    1    6    6    0    0 -0.15655180136E+02 -0.49921702160E+00 -0.91581055542E+01  0.18144001215E+02  0.00000000000E+00 0. -1.
        -12    1    6    6    0    0 -0.97105215949E+01  0.69075803115E+02  0.12250967096E+03  0.14097652388E+03  0.00000000000E+00 0.  1.
</event>
<event>
12    1  0.1683022E-002  0.1803422E+03  0.7818608E-02  0.1169131E+00
         21   -1    0    0  503  502  0.00000000000E+00  0.00000000000E+00  0.37958312089E+02  0.37958312089E+02  0.00000000000E+00 0. -1.
         21   -1    0    0  501  503 -0.00000000000E+00 -0.00000000000E+00 -0.85634614014E+03  0.85634614014E+03  0.00000000000E+00 0. -1.
          6    2    1    2  501    0  0.29242344871E+01  0.29645132005E+02 -0.33133042315E+03  0.37723090933E+03  0.17786490561E+03 0.  0.
         24    2    3    3    0    0 -0.52457792845E+02  0.24713523938E+01 -0.10482739981E+03  0.14243037093E+03  0.80868406679E+02 0.  0.
         -6    2    1    2    0  502 -0.29242344871E+01 -0.29645132005E+02 -0.48705740490E+03  0.51707354290E+03  0.17103434773E+03 0.  0.
        -24    2    5    5    0    0  0.16367643769E+02 -0.74911164247E+02 -0.23740310208E+03  0.26257295123E+03  0.81882474028E+02 0.  0.
          5    1    3    3  501    0  0.55382027332E+02  0.27173779611E+02 -0.22650302334E+03  0.23480053840E+03  0.47000000000E+01 0. -1.
        -11    1    4    4    0    0  0.18253773478E+02 -0.95802118163E+01 -0.84281337467E+01  0.22271374971E+02  0.00000000000E+00 0.  1.
         12    1    4    4    0    0 -0.70711566323E+02  0.12051564210E+02 -0.96399266067E+02  0.12015899596E+03  0.00000000000E+00 0. -1.
         -5    1    5    5    0  502 -0.19291878257E+02  0.45266032242E+02 -0.24965430282E+03  0.25450059167E+03  0.47000000000E+01 0.  1.
         11    1    6    6    0    0  0.20746898094E+02 -0.91411947277E+00 -0.13253151034E+03  0.13414868851E+03  0.00000000000E+00 0. -1.
        -12    1    6    6    0    0 -0.43792543241E+01 -0.73997044774E+02 -0.10487159173E+03  0.12842426272E+03  0.00000000000E+00 0.  1.
</event>
<event>
12    1  0.1683022E-002  0.1938153E+03  0.7818608E-02  0.1155906E+00
         21   -1    0    0  501  502  0.00000000000E+00  0.00000000000E+00  0.71680908041E+02  0.71680908041E+02  0.00000000000E+00 0.  1.
         21   -1    0    0  502  503 -0.00000000000E+00 -0.00000000000E+00 -0.62687088176E+03  0.62687088176E+03  0.00000000000E+00 0.  1.
          6    2    1    2  501    0  0.28573481792E+02  0.78721693808E+02 -0.12704628528E+03  0.22858224303E+03  0.17057413136E+03 0.  0.
         24    2    3    3    0    0 -0.45189938334E+01 -0.17780387056E+02 -0.28442084212E+02  0.86622241544E+02  0.79736422710E+02 0.  0.
         -6    2    1    2    0  503 -0.28573481792E+02 -0.78721693808E+02 -0.42814368844E+03  0.46996954677E+03  0.17478789433E+03 0.  0.
        -24    2    5    5    0    0  0.71812508928E+01 -0.24157363352E+02 -0.78917764952E+02  0.11467178052E+03  0.79287168281E+02 0.  0.
          5    1    3    3  501    0  0.33092475625E+02  0.96502080864E+02 -0.98604201071E+02  0.14196000149E+03  0.47000000000E+01 0. -1.
        -13    1    4    4    0    0  0.34384580773E+02 -0.23960709348E+02 -0.97893218021E+01  0.43037725413E+02  0.00000000000E+00 0.  1.
         14    1    4    4    0    0 -0.38903574607E+02  0.61803222914E+01 -0.18652762410E+02  0.43584516131E+02  0.00000000000E+00 0. -1.
         -5    1    5    5    0  503 -0.35754732685E+02 -0.54564330455E+02 -0.34922592349E+03  0.35529776625E+03  0.47000000000E+01 0.  1.
         11    1    6    6    0    0 -0.34470222103E+02  0.37287535205E-01 -0.39539707581E+02  0.52455562887E+02  0.00000000000E+00 0. -1.
        -12    1    6    6    0    0  0.41651472995E+02 -0.24194650888E+02 -0.39378057370E+02  0.62216217633E+02  0.00000000000E+00 0.  1.
</event>
<event>
12    1  0.1683022E-002  0.2145998E+03  0.7818608E-02  0.1138066E+00
         21   -1    0    0  503  502  0.00000000000E+00  0.00000000000E+00  0.42074258829E+03  0.42074258829E+03  0.00000000000E+00 0. -1.
         21   -1    0    0  501  503 -0.00000000000E+00 -0.00000000000E+00 -0.18458766864E+03  0.18458766864E+03  0.00000000000E+00 0. -1.
          6    2    1    2  501    0 -0.96214970977E+01  0.12498872683E+03 -0.75251937468E+02  0.22741135977E+03  0.17417898100E+03 0.  0.
         24    2    3    3    0    0 -0.14139640997E+02  0.12558053764E+03 -0.11406183533E+03  0.18805323435E+03  0.79896907262E+02 0.  0.
         -6    2    1    2    0  502  0.96214970977E+01 -0.12498872683E+03  0.31140685712E+03  0.37791889716E+03  0.17359063087E+03 0.  0.
        -24    2    5    5    0    0 -0.35974797510E+02 -0.11081511626E+02  0.16785800004E+03  0.18902146434E+03  0.78331474178E+02 0.  0.
          5    1    3    3  501    0  0.45181438994E+01 -0.59181080606E+00  0.38809897867E+02  0.39358125422E+02  0.47000000000E+01 0. -1.
        -13    1    4    4    0    0 -0.14593136157E+02 -0.52134760844E+01 -0.16398054420E+01  0.15582968834E+02  0.00000000000E+00 0.  1.
         14    1    4    4    0    0  0.45349516000E+00  0.13079401372E+03 -0.11242202989E+03  0.17247026552E+03  0.00000000000E+00 0. -1.
         -5    1    5    5    0  502  0.45596294608E+02 -0.11390721520E+03  0.14354885708E+03  0.18889743282E+03  0.47000000000E+01 0.  1.
         11    1    6    6    0    0  0.31843554931E+01 -0.81321935095E+00  0.13963002111E+03  0.13966869456E+03  0.00000000000E+00 0. -1.
        -12    1    6    6    0    0 -0.39159153003E+02 -0.10268292275E+02  0.28227978937E+02  0.49352769781E+02  0.00000000000E+00 0.  1.
</event>
<event>
12    1  0.1683022E-002  0.2683807E+03  0.7818608E-02  0.1102284E+00
         21   -1    0    0  503  502  0.00000000000E+00  0.00000000000E+00  0.52258982313E+03  0.52258982313E+03  0.00000000000E+00 0. -1.
         21   -1    0    0  501  503 -0.00000000000E+00 -0.00000000000E+00 -0.14023670813E+03  0.14023670813E+03  0.00000000000E+00 0. -1.
          6    2    1    2  501    0 -0.20526701756E+03  0.11964699631E+02  0.14561781772E+03  0.30534035759E+03  0.17248328209E+03 0.  0.
         24    2    3    3    0    0 -0.18426047100E+03 -0.41147055530E+02  0.84578816857E+02  0.22161471539E+03  0.79463856346E+02 0.  0.
         -6    2    1    2    0  502  0.20526701756E+03 -0.11964699631E+02  0.23673529727E+03  0.35748617367E+03  0.17168302438E+03 0.  0.
        -24    2    5    5    0    0  0.20062126668E+03 -0.14321522426E+02  0.13962663238E+03  0.26012437207E+03  0.87835606820E+02 0.  0.
          5    1    3    3  501    0 -0.21006546559E+02  0.53111755162E+02  0.61039000867E+02  0.83725642198E+02  0.47000000000E+01 0. -1.
        -13    1    4    4    0    0 -0.22595696076E+02 -0.19634699006E+02 -0.11799040520E+02  0.32176144011E+02  0.00000000000E+00 0.  1.
         14    1    4    4    0    0 -0.16166477492E+03 -0.21512356525E+02  0.96377857377E+02  0.18943857138E+03  0.00000000000E+00 0. -1.
         -5    1    5    5    0  502  0.46457508720E+01  0.23568227943E+01  0.97108664885E+02  0.97361801599E+02  0.47000000000E+01 0.  1.
         13    1    6    6    0    0  0.11721003690E+03  0.32805741109E+02  0.95186645777E+02  0.15451507025E+03  0.00000000000E+00 0. -1.
        -14    1    6    6    0    0  0.83411229782E+02 -0.47127263534E+02  0.44439986605E+02  0.10560930182E+03  0.00000000000E+00 0.  1.
</event>
<event>
12    1  0.1683022E-002  0.3423660E+03  0.7818608E-02  0.1066081E+00
         21   -1    0    0  503  502  0.00000000000E+00  0.00000000000E+00  0.75029671468E+02  0.75029671468E+02  0.00000000000E+00 0.  1.
         21   -1    0    0  501  503 -0.00000000000E+00 -0.00000000000E+00 -0.15627094764E+04  0.15627094764E+04  0.00000000000E+00 0. -1.
          6    2    1    2  501    0 -0.56530482979E+02 -0.29073029299E+03 -0.82102737602E+03  0.88955070437E+03  0.17174022447E+03 0.  0.
         24    2    3    3    0    0 -0.77490748172E+02 -0.80052338938E+02 -0.29212158442E+03  0.31982448992E+03  0.67375746736E+02 0.  0.
         -6    2    1    2    0  502  0.56530482979E+02  0.29073029299E+03 -0.66665242887E+03  0.74818844346E+03  0.16625488636E+03 0.  0.
        -24    2    5    5    0    0 -0.20460168801E+02  0.46525863291E+02 -0.13008412393E+03  0.15363735245E+03  0.64025637900E+02 0.  0.
          5    1    3    3  501    0  0.20960265193E+02 -0.21067795405E+03 -0.52890579160E+03  0.56972621445E+03  0.47000000000E+01 0. -1.
        -11    1    4    4    0    0 -0.28193713889E+02  0.62284338331E+01 -0.44937581667E+02  0.53414091183E+02  0.00000000000E+00 0.  1.
         12    1    4    4    0    0 -0.49297034283E+02 -0.86280772771E+02 -0.24718400275E+03  0.26641039874E+03  0.00000000000E+00 0. -1.
         -5    1    5    5    0  502  0.76990651780E+02  0.24420442970E+03 -0.53656830494E+03  0.59455109100E+03  0.47000000000E+01 0.  1.
         13    1    6    6    0    0  0.95211381699E+01  0.19145958414E+02 -0.47680280553E+01  0.21907849898E+02  0.00000000000E+00 0. -1.
        -14    1    6    6    0    0 -0.29981306971E+02  0.27379904878E+02 -0.12531609587E+03  0.13172950256E+03  0.00000000000E+00 0.  1.
</event>
<event>
12    1  0.1683022E-002  0.2070832E+03  0.7818608E-02  0.1144381E+00
         21   -1    0    0  501  502  0.00000000000E+00  0.00000000000E+00  0.32176762425E+03  0.32176762425E+03  0.00000000000E+00 0.  1.
         21   -1    0    0  502  503 -0.00000000000E+00 -0.00000000000E+00 -0.13578811456E+03  0.13578811456E+03  0.00000000000E+00 0. -1.
          6    2    1    2  501    0  0.93177180807E+02  0.65531296998E+02  0.13195955409E+03  0.24354261087E+03  0.17006863756E+03 0.  0.
         24    2    3    3    0    0  0.12648931165E+03  0.78924829135E+02  0.11278675053E+03  0.20256980084E+03  0.78006400387E+02 0.  0.
         -6    2    1    2    0  503 -0.93177180807E+02 -0.65531296998E+02  0.54019955606E+02  0.21401312794E+03  0.17293676711E+03 0.  0.
        -24    2    5    5    0    0 -0.37431189896E+02 -0.33703346548E+02 -0.39043275314E+02  0.10086062518E+03  0.78175947828E+02 0.  0.
          5    1    3    3  501    0 -0.33312130848E+02 -0.13393532137E+02  0.19172803563E+02  0.40972810023E+02  0.47000000000E+01 0. -1.
        -11    1    4    4    0    0  0.41870537042E+01  0.13188271433E+01  0.40409016344E+02  0.40646762794E+02  0.00000000000E+00 0.  1.
         12    1    4    4    0    0  0.12230225795E+03  0.77606001992E+02  0.72377734186E+02  0.16192303805E+03  0.00000000000E+00 0. -1.
         -5    1    5    5    0  503 -0.55745990910E+02 -0.31827950450E+02  0.93063230920E+02  0.11315250276E+03  0.47000000000E+01 0.  1.
         11    1    6    6    0    0 -0.20633744942E+02  0.14592230838E+02 -0.42676841031E+02  0.49598360775E+02  0.00000000000E+00 0. -1.
        -12    1    6    6    0    0 -0.16797444954E+02 -0.48295577386E+02  0.36335657173E+01  0.51262264405E+02  0.00000000000E+00 0.  1.
</event>
<event>
12    1  0.1683022E-002  0.2058513E+03  0.7818608E-02  0.1145118E+00
         21   -1    0    0  501  502  0.00000000000E+00  0.00000000000E+00  0.13816963465E+03  0.13816963465E+03  0.00000000000E+00 0.  1.
         21   -1    0    0  502  503 -0.00000000000E+00 -0.00000000000E+00 -0.30505533057E+03  0.30505533057E+03  0.00000000000E+00 0.  1.
          6    2    1    2  501    0 -0.11396278254E+03 -0.15946372673E+02 -0.83385150780E+02  0.22209872683E+03  0.17068379678E+03 0.  0.
         24    2    3    3    0    0 -0.12076997967E+03  0.31242564286E+00 -0.11594155503E+03  0.18477988557E+03  0.78202789769E+02 0.  0.
         -6    2    1    2    0  503  0.11396278254E+03  0.15946372673E+02 -0.83500545141E+02  0.22112623840E+03  0.16935958687E+03 0.  0.
        -24    2    5    5    0    0  0.36114810059E+02 -0.42440315776E+02 -0.73052487540E+02  0.12314376999E+03  0.81989403241E+02 0.  0.
          5    1    3    3  501    0  0.68071971360E+01 -0.16258798316E+02  0.32556404249E+02  0.37318841263E+02  0.47000000000E+01 0. -1.
        -13    1    4    4    0    0 -0.99337118873E+02 -0.32295501566E+02 -0.90414133992E+02  0.13815056364E+03  0.00000000000E+00 0.  1.
         14    1    4    4    0    0 -0.21432860798E+02  0.32607927209E+02 -0.25527421037E+02  0.46629321930E+02  0.00000000000E+00 0. -1.
         -5    1    5    5    0  503  0.77847972476E+02  0.58386688449E+02 -0.10448057601E+02  0.97982468403E+02  0.47000000000E+01 0.  1.
         13    1    6    6    0    0 -0.85721192330E+01 -0.25355556242E+02 -0.70300342731E+02  0.75223158991E+02  0.00000000000E+00 0. -1.
        -14    1    6    6    0    0  0.44686929292E+02 -0.17084759534E+02 -0.27521448094E+01  0.47920611003E+02  0.00000000000E+00 0.  1.
</event>
<event>
12    1  0.1683022E-002  0.1992037E+03  0.7818608E-02  0.1150549E+00
         21   -1    0    0  503  502  0.00000000000E+00  0.00000000000E+00  0.13632549346E+03  0.13632549346E+03  0.00000000000E+00 0. -1.
         21   -1    0    0  501  503 -0.00000000000E+00 -0.00000000000E+00 -0.36886280831E+03  0.36886280831E+03  0.00000000000E+00 0. -1.
          6    2    1    2  501    0 -0.25502670329E+01  0.99749814504E+02 -0.23310454424E+03  0.30662656689E+03  0.17241111803E+03 0.  0.
         24    2    3    3    0    0 -0.39062217474E+02  0.12618416226E+03 -0.18046462158E+03  0.23716471603E+03  0.78938730991E+02 0.  0.
         -6    2    1    2    0  502  0.25502670329E+01 -0.99749814504E+02  0.56722939602E+00  0.19856173488E+03  0.17166802689E+03 0.  0.
        -24    2    5    5    0    0  0.63221669930E+02 -0.40505883473E+02  0.20467381068E+02  0.11133233313E+03  0.79613243674E+02 0.  0.
          5    1    3    3  501    0  0.36511950441E+02 -0.26434347755E+02 -0.52639922664E+02  0.69461850856E+02  0.47000000000E+01 0. -1.
        -13    1    4    4    0    0 -0.84758538524E+01 -0.33143245343E+01  0.38138912749E+01  0.98676548533E+01  0.00000000000E+00 0.  1.
         14    1    4    4    0    0 -0.30586363622E+02  0.12949848679E+03 -0.18427851285E+03  0.22729706118E+03  0.00000000000E+00 0. -1.
         -5    1    5    5    0  502 -0.60671402897E+02 -0.59243931030E+02 -0.19900151672E+02  0.87229401752E+02  0.47000000000E+01 0.  1.
         11    1    6    6    0    0  0.45461286739E+02 -0.82165127074E+01 -0.25221208967E+02  0.52634105434E+02  0.00000000000E+00 0. -1.
        -12    1    6    6    0    0  0.17760383191E+02 -0.32289370766E+02  0.45688590035E+02  0.58698227699E+02  0.00000000000E+00 0.  1.
</event>
<event>
12    1  0.1683022E-002  0.2395721E+03  0.7818608E-02  0.1120102E+00
         21   -1    0    0  501  502  0.00000000000E+00  0.00000000000E+00  0.27197658097E+03  0.27197658097E+03  0.00000000000E+00 0. -1.
         21   -1    0    0  502  503 -0.00000000000E+00 -0.00000000000E+00 -0.35920260406E+03  0.35920260406E+03  0.00000000000E+00 0.  1.
          6    2    1    2  501    0 -0.16631335486E+03  0.81211245683E+01  0.15917253080E+03  0.28751215733E+03  0.17205017113E+03 0.  0.
         24    2    3    3    0    0 -0.17979358867E+03  0.34657910746E+02  0.10637543211E+03  0.22672119292E+03  0.80992971669E+02 0.  0.
         -6    2    1    2    0  503  0.16631335486E+03 -0.81211245683E+01 -0.24639855388E+03  0.34366702769E+03  0.17224602724E+03 0.  0.
        -24    2    5    5    0    0  0.99172687385E+02  0.12461228722E+02 -0.52250320737E+02  0.13715521464E+03  0.78044556133E+02 0.  0.
          5    1    3    3  501    0  0.13480233813E+02 -0.26536786178E+02  0.52797098681E+02  0.60790964406E+02  0.47000000000E+01 0. -1.
        -11    1    4    4    0    0 -0.92048348631E+02  0.58181817460E+02  0.65771558749E+02  0.12721603794E+03  0.00000000000E+00 0.  1.
         12    1    4    4    0    0 -0.87745240037E+02 -0.23523906714E+02  0.40603873365E+02  0.99505154985E+02  0.00000000000E+00 0. -1.
         -5    1    5    5    0  503  0.67140667470E+02 -0.20582353290E+02 -0.19414823315E+03  0.20651181305E+03  0.47000000000E+01 0.  1.
         13    1    6    6    0    0 -0.83234674685E+01 -0.11631286588E+02  0.18554687780E+01  0.14422541481E+02  0.00000000000E+00 0. -1.
        -14    1    6    6    0    0  0.10749615485E+03  0.24092515310E+02 -0.54105789515E+02  0.12273267316E+03  0.00000000000E+00 0.  1.
</event>
<event>
12    1  0.1683022E-002  0.2063754E+03  0.7818608E-02  0.1145530E+00
         21   -1    0    0  503  502  0.00000000000E+00  0.00000000000E+00  0.28885894927E+03  0.28885894927E+03  0.00000000000E+00 0.  1.
         21   -1    0    0  501  503 -0.00000000000E+00 -0.00000000000E+00 -0.21607943864E+03  0.21607943864E+03  0.00000000000E+00 0.  1.
          6    2    1    2  501    0 -0.11147171885E+03 -0.27602875878E+02 -0.10995375985E+03  0.22928960195E+03  0.16521510038E+03 0.  0.
         24    2    3    3    0    0 -0.10527912670E+03 -0.43560622017E+02 -0.22915006327E+02  0.14045924410E+03  0.78882694108E+02 0.  0.
         -6    2    1    2    0  502  0.11147171885E+03  0.27602875878E+02  0.18273327048E+03  0.27564878596E+03  0.17147286141E+03 0.  0.
        -24    2    5    5    0    0  0.13474861473E+03  0.48528622456E+02  0.18106555976E+03  0.24395380196E+03  0.78844810784E+02 0.  0.
          5    1    3    3  501    0 -0.61925921495E+01  0.15957746139E+02 -0.87038753526E+02  0.88830357844E+02  0.47000000000E+01 0. -1.
        -13    1    4    4    0    0 -0.67526828452E+02 -0.63162458357E+02 -0.30267298103E+02  0.97290688357E+02  0.00000000000E+00 0.  1.
         14    1    4    4    0    0 -0.37752298245E+02  0.19601836340E+02  0.73522917757E+01  0.43168555744E+02  0.00000000000E+00 0. -1.
         -5    1    5    5    0  502 -0.23276895888E+02 -0.20925746578E+02  0.16677107234E+01  0.31694984005E+02  0.47000000000E+01 0.  1.
         11    1    6    6    0    0  0.61146960704E+02  0.60119984697E+02  0.72571329026E+02  0.11233860049E+03  0.00000000000E+00 0. -1.
        -12    1    6    6    0    0  0.73601654030E+02 -0.11591362241E+02  0.10849423074E+03  0.13161520147E+03  0.00000000000E+00 0.  1.
</event>
<event>
12    1  0.1683022E-002  0.2697017E+03  0.7818608E-02  0.1101700E+00
         21   -1    0    0  501  502  0.00000000000E+00  0.00000000000E+00  0.74454307053E+03  0.74454307053E+03  0.00000000000E+00 0. -1.
         21   -1    0    0  502  503 -0.00000000000E+00 -0.00000000000E+00 -0.12382036271E+03  0.12382036271E+03  0.00000000000E+00 0.  1.
          6    2    1    2  501    0  0.11162039903E+03  0.17572045793E+03  0.51138869890E+03  0.57734290413E+03  0.16872947216E+03 0.  0.
         24    2    3    3    0    0  0.13071063388E+03  0.92047922460E+02  0.37854310246E+03  0.41911657020E+03  0.82496843296E+02 0.  0.
         -6    2    1    2    0  503 -0.11162039903E+03 -0.17572045793E+03  0.10933400892E+03  0.29102052911E+03  0.17147078480E+03 0.  0.
        -24    2    5    5    0    0 -0.11382014302E+03 -0.18798794276E+03  0.68392115252E+02  0.24796639209E+03  0.92278700672E+02 0.  0.
          5    1    3    3  501    0 -0.19090234844E+02  0.83672535473E+02  0.13284559643E+03  0.15822633393E+03  0.47000000000E+01 0. -1.
        -13    1    4    4    0    0  0.28452990230E+02 -0.40581893215E+01  0.13509445944E+03  0.13811790081E+03  0.00000000000E+00 0.  1.
         14    1    4    4    0    0  0.10225764365E+03  0.96106111781E+02  0.24344864302E+03  0.28099866939E+03  0.00000000000E+00 0. -1.
         -5    1    5    5    0  503  0.21997439832E+01  0.12267484825E+02  0.40941893666E+02  0.43054137019E+02  0.47000000000E+01 0.  1.
         13    1    6    6    0    0  0.90561749602E+01 -0.30641815835E+02  0.31647872686E+02  0.44972469669E+02  0.00000000000E+00 0. -1.
        -14    1    6    6    0    0 -0.12287631798E+03 -0.15734612692E+03  0.36744242566E+02  0.20299392242E+03  0.00000000000E+00 0.  1.
</event>
<event>
12    1  0.1683022E-002  0.2105562E+03  0.7818608E-02  0.1141156E+00
         21   -1    0    0  503  502  0.00000000000E+00  0.00000000000E+00  0.63270702854E+03  0.63270702854E+03  0.00000000000E+00 0. -1.
         21   -1    0    0  501  503 -0.00000000000E+00 -0.00000000000E+00 -0.74825003320E+02  0.74825003320E+02  0.00000000000E+00 0. -1.
          6    2    1    2  501    0 -0.11226845134E+03 -0.47202759301E+02  0.18920458834E+03  0.28296522128E+03  0.17157690565E+03 0.  0.
         24    2    3    3    0    0  0.28415066815E+01  0.92722283988E+01  0.92058970411E+02  0.12203328612E+03  0.79518680245E+02 0.  0.
         -6    2    1    2    0  502  0.11226845134E+03  0.47202759301E+02  0.36867743688E+03  0.42456681058E+03  0.17176035205E+03 0.  0.
        -24    2    5    5    0    0  0.99062099855E+01  0.65023752654E+02  0.13763098802E+03  0.17118929030E+03  0.77699825242E+02 0.  0.
          5    1    3    3  501    0 -0.11510995802E+03 -0.56474987700E+02  0.97145617932E+02  0.16093193516E+03  0.47000000000E+01 0. -1.
        -13    1    4    4    0    0 -0.34787512779E+02  0.17309823073E+02  0.62156603384E+02  0.73302417179E+02  0.00000000000E+00 0.  1.
         14    1    4    4    0    0  0.37629019460E+02 -0.80375946744E+01  0.29902367028E+02  0.48730868939E+02  0.00000000000E+00 0. -1.
         -5    1    5    5    0  502  0.10236224135E+03 -0.17820993353E+02  0.23104644885E+03  0.25337752029E+03  0.47000000000E+01 0.  1.
         11    1    6    6    0    0  0.81395098988E+01  0.68286103447E+02  0.14635640323E+03  0.16170788574E+03  0.00000000000E+00 0. -1.
        -12    1    6    6    0    0  0.17667000867E+01 -0.32623507932E+01 -0.87254152030E+01  0.94814045563E+01  0.00000000000E+00 0.  1.
</event>
<event>
12    1  0.1683022E-002  0.2676249E+03  0.7818608E-02  0.1102679E+00
         21   -1    0    0  503  502  0.00000000000E+00  0.00000000000E+00  0.11896169527E+04  0.11896169527E+04  0.00000000000E+00 0.  1.
         21   -1    0    0  501  503 -0.00000000000E+00 -0.00000000000E+00 -0.68108039297E+02  0.68108039297E+02  0.00000000000E+00 0.  1.
          6    2    1    2  501    0  0.34402058801E+02 -0.20175894789E+03  0.77584191776E+03  0.82070322342E+03  0.17243237769E+03 0.  0.
         24    2    3    3    0    0  0.68809780201E+02 -0.79785790378E+02  0.49444031070E+03  0.51204435525E+03  0.81348894885E+02 0.  0.
         -6    2    1    2    0  502 -0.34402058801E+02  0.20175894789E+03  0.34566699559E+03  0.43702176853E+03  0.17208189801E+03 0.  0.
        -24    2    5    5    0    0 -0.73052359746E+02  0.16996610720E+03  0.32501986635E+03  0.38268003109E+03  0.81123164436E+02 0.  0.
          5    1    3    3  501    0 -0.34407721401E+02 -0.12197315751E+03  0.28140160706E+03  0.30865886817E+03  0.47000000000E+01 0. -1.
        -13    1    4    4    0    0  0.34662312621E+02 -0.88812467022E+02  0.31296915095E+03  0.32716787687E+03  0.00000000000E+00 0.  1.
         14    1    4    4    0    0  0.34147467580E+02  0.90266766440E+01  0.18147115976E+03  0.18487647837E+03  0.00000000000E+00 0. -1.
         -5    1    5    5    0  502  0.38650300945E+02  0.31792840684E+02  0.20647129241E+02  0.54341737438E+02  0.47000000000E+01 0.  1.
         13    1    6    6    0    0 -0.62754175013E+02  0.49802926562E+02  0.15126748754E+03  0.17117321859E+03  0.00000000000E+00 0. -1.
        -14    1    6    6    0    0 -0.10298184733E+02  0.12016318064E+03  0.17375237882E+03  0.21150681250E+03  0.00000000000E+00 0.  1.
</event>
<event>
12    1  0.1683022E-002  0.1958399E+03  0.7818608E-02  0.1153589E+00
         21   -1    0    0  503  502  0.00000000000E+00  0.00000000000E+00  0.26693305068E+03  0.26693305068E+03  0.00000000000E+00 0. -1.
         21   -1    0    0  501  503 -0.00000000000E+00 -0.00000000000E+00 -0.21331315189E+03  0.21331315189E+03  0.00000000000E+00 0.  1.
          6    2    1    2  501    0  0.49040252145E+02  0.74162966681E+02 -0.11128486910E+03  0.22525001932E+03  0.17449400321E+03 0.  0.
         24    2    3    3    0    0  0.94042919089E+02  0.24225797477E+02 -0.88417640380E+02  0.15408850550E+03  0.80589257990E+02 0.  0.
         -6    2    1    2    0  502 -0.49040252145E+02 -0.74162966681E+02  0.16490476789E+03  0.25499618325E+03  0.17298664411E+03 0.  0.
        -24    2    5    5    0    0  0.14108798085E+02 -0.66736181071E+02  0.35163379239E+02  0.11043520089E+03  0.79414698319E+02 0.  0.
          5    1    3    3  501    0 -0.45002666944E+02  0.49937169204E+02 -0.22867228716E+02  0.71161513821E+02  0.47000000000E+01 0. -1.
        -13    1    4    4    0    0  0.49892113919E+02  0.22027742918E+02  0.77313246549E+00  0.54543947631E+02  0.00000000000E+00 0.  1.
         14    1    4    4    0    0  0.44150805169E+02  0.21980545594E+01 -0.89190772845E+02  0.99544557871E+02  0.00000000000E+00 0. -1.
         -5    1    5    5    0  502 -0.63149050230E+02 -0.74267856094E+01  0.12974138865E+03  0.14456098235E+03  0.47000000000E+01 0.  1.
         13    1    6    6    0    0  0.23250537964E+02 -0.51693124209E+02  0.58333922973E+02  0.81336419736E+02  0.00000000000E+00 0. -1.
        -14    1    6    6    0    0 -0.91417398794E+01 -0.15043056862E+02 -0.23170543734E+02  0.29098781155E+02  0.00000000000E+00 0.  1.
</event>
<event>
12    1  0.1683022E-002  0.2671349E+03  0.7818608E-02  0.1103149E+00
         21   -1    0    0  501  502  0.00000000000E+00  0.00000000000E+00  0.20709986961E+03  0.20709986961E+03  0.00000000000E+00 0. -1.
         21   -1    0    0  502  503 -0.00000000000E+00 -0.00000000000E+00 -0.36112267937E+03  0.36112267937E+03  0.00000000000E+00 0.  1.
          6    2    1    2  501    0  0.93413339231E+02  0.18040434589E+03 -0.12532242504E+02  0.26593028686E+03  0.17114344978E+03 0.  0.
         24    2    3    3    0    0  0.64362521683E+02  0.13204817986E+03  0.56680413424E+02  0.17651691798E+03  0.79789078612E+02 0.  0.
         -6    2    1    2    0  503 -0.93413339231E+02 -0.18040434589E+03 -0.14149056725E+03  0.30229226212E+03  0.17346253531E+03 0.  0.
        -24    2    5    5    0    0 -0.33772366818E+02 -0.17853063379E+03 -0.78622630773E+02  0.21548774712E+03  0.85086374519E+02 0.  0.
          5    1    3    3  501    0  0.29050817548E+02  0.48356166031E+02 -0.69212655928E+02  0.89413368877E+02  0.47000000000E+01 0. -1.
        -13    1    4    4    0    0  0.92991650851E+01  0.10442836978E+03  0.43572855973E+02  0.11353568895E+03  0.00000000000E+00 0.  1.
         14    1    4    4    0    0  0.55063356598E+02  0.27619810078E+02  0.13107557452E+02  0.62981229036E+02  0.00000000000E+00 0. -1.
         -5    1    5    5    0  503 -0.59640972413E+02 -0.18737121022E+01 -0.62867936478E+02  0.86804515000E+02  0.47000000000E+01 0.  1.
         11    1    6    6    0    0 -0.22712926901E+02 -0.30191515240E+01 -0.14734511699E+00  0.22913184740E+02  0.00000000000E+00 0. -1.
        -12    1    6    6    0    0 -0.11059439917E+02 -0.17551148226E+03 -0.78475285656E+02  0.19257456238E+03  0.00000000000E+00 0.  1.
</event>
<event>
12    1  0.1683022E-002  0.1925691E+03  0.7818608E-02  0.1156181E+00
         21   -1    0    0  501  502  0.00000000000E+00  0.00000000000E+00  0.98464560945E+03  0.98464560945E+03  0.00000000000E+00 0. -1.
         21   -1    0    0  502  503 -0.00000000000E+00 -0.00000000000E+00 -0.49668551622E+02  0.49668551622E+02  0.00000000000E+00 0. -1.
          6    2    1    2  501    0 -0.86192579237E+02  0.37515239537E+00  0.72185255765E+03  0.74707747649E+03  0.17211722585E+03 0.  0.
         24    2    3    3    0    0 -0.48256965175E+02 -0.51839277044E+02  0.26613981922E+03  0.28679316498E+03  0.80024188664E+02 0.  0.
         -6    2    1    2    0  503  0.86192579237E+02 -0.37515239537E+00  0.21312450018E+03  0.28723668458E+03  0.17220208750E+03 0.  0.
        -24    2    5    5    0    0  0.59397985512E+02  0.38325920082E+02  0.51799636881E+02  0.11911909246E+03  0.80679359033E+02 0.  0.
          5    1    3    3  501    0 -0.37935614062E+02  0.52214429439E+02  0.45571273842E+03  0.46028431150E+03  0.47000000000E+01 0. -1.
        -11    1    4    4    0    0  0.33841810954E+01  0.63036857215E+01  0.12854020369E+03  0.12873916692E+03  0.00000000000E+00 0.  1.
         12    1    4    4    0    0 -0.51641146270E+02 -0.58142962765E+02  0.13759961554E+03  0.15805399806E+03  0.00000000000E+00 0. -1.
         -5    1    5    5    0  503  0.26794593725E+02 -0.38701072477E+02  0.16132486330E+03  0.16811759212E+03  0.47000000000E+01 0.  1.
         13    1    6    6    0    0  0.53128857558E+02  0.22655945720E+01  0.61452552055E+02  0.81266380368E+02  0.00000000000E+00 0. -1.
        -14    1    6    6    0    0  0.62691279547E+01  0.36060325510E+02 -0.96529151741E+01  0.37852712090E+02  0.00000000000E+00 0.  1.
</event>
<event>
12    1  0.1683022E-002  0.1789766E+03  0.7818608E-02  0.1170599E+00
         21   -1    0    0  501  502  0.00000000000E+00  0.00000000000E+00  0.14491736679E+03  0.14491736679E+03  0.00000000000E+00 0.  1.
         21   -1    0    0  502  503 -0.00000000000E+00 -0.00000000000E+00 -0.26162268939E+03  0.26162268939E+03  0.00000000000E+00 0.  1.
          6    2    1    2  501    0 -0.29492720991E+02 -0.46336820105E+02 -0.14766144740E+03  0.23202701640E+03  0.17033998885E+03 0.  0.
         24    2    3    3    0    0 -0.48015171459E+02 -0.18707586381E+01 -0.20141432431E+02  0.95631429919E+02  0.80191874027E+02 0.  0.
         -6    2    1    2    0  503  0.29492720991E+02  0.46336820105E+02  0.30956124806E+02  0.17451303978E+03  0.16272552934E+03 0.  0.
        -24    2    5    5    0    0  0.79604938723E+02  0.21191584216E+02  0.98091283282E+01  0.11440644518E+03  0.78781889985E+02 0.  0.
          5    1    3    3  501    0  0.18522450468E+02 -0.44466061466E+02 -0.12752001497E+03  0.13639558648E+03  0.47000000000E+01 0. -1.
        -11    1    4    4    0    0 -0.17820662797E+02  0.38450298077E+02 -0.15172445063E+02  0.45013381721E+02  0.00000000000E+00 0.  1.
         12    1    4    4    0    0 -0.30194508662E+02 -0.40321056715E+02 -0.49689873677E+01  0.50618048198E+02  0.00000000000E+00 0. -1.
         -5    1    5    5    0  503 -0.50112217732E+02  0.25145235889E+02  0.21146996477E+02  0.60106594596E+02  0.47000000000E+01 0.  1.
         11    1    6    6    0    0  0.79563889373E+01 -0.26023690466E+02 -0.39684596118E+01  0.27500641122E+02  0.00000000000E+00 0. -1.
        -12    1    6    6    0    0  0.71648549786E+02  0.47215274682E+02  0.13777587940E+02  0.86905804059E+02  0.00000000000E+00 0.  1.
</event>
<event>
12    1  0.1683022E-002  0.2295218E+03  0.7818608E-02  0.1127234E+00
         21   -1    0    0  503  502  0.00000000000E+00  0.00000000000E+00  0.17874997843E+03  0.17874997843E+03  0.00000000000E+00 0.  1.
         21   -1    0    0  501  503 -0.00000000000E+00 -0.00000000000E+00 -0.54978656769E+03  0.54978656769E+03  0.00000000000E+00 0.  1.
          6    2    1    2  501    0 -0.14049414616E+03  0.61842791287E+02 -0.43422472327E+03  0.49047563334E+03  0.16867750491E+03 0.  0.
         24    2    3    3    0    0 -0.13208804072E+03  0.73117595954E+01 -0.21502958203E+03  0.26439401983E+03  0.78522380519E+02 0.  0.
         -6    2    1    2    0  502  0.14049414616E+03 -0.61842791287E+02  0.63188134003E+02  0.23806091278E+03  0.17063739911E+03 0.  0.
        -24    2    5    5    0    0  0.73847051543E+02 -0.24646001551E+02  0.10426192692E+03  0.15125893785E+03  0.77122658530E+02 0.  0.
          5    1    3    3  501    0 -0.84061054374E+01  0.54531031692E+02 -0.21919514123E+03  0.22608161351E+03  0.47000000000E+01 0. -1.
        -13    1    4    4    0    0 -0.63458911478E+02  0.32748257723E+02 -0.61229768686E+02  0.94066818822E+02  0.00000000000E+00 0.  1.
         14    1    4    4    0    0 -0.68629129243E+02 -0.25436498127E+02 -0.15379981335E+03  0.17032720101E+03  0.00000000000E+00 0. -1.
         -5    1    5    5    0  502  0.66647094616E+02 -0.37196789736E+02 -0.41073792920E+02  0.86801974933E+02  0.47000000000E+01 0.  1.
         13    1    6    6    0    0  0.29191479562E+01 -0.14155631272E+02  0.70575524818E+02  0.72040322215E+02  0.00000000000E+00 0. -1.
        -14    1    6    6    0    0  0.70927903587E+02 -0.10490370279E+02  0.33686402105E+02  0.79218615631E+02  0.00000000000E+00 0.  1.
</event>
<event>
12    1  0.1683022E-002  0.2808293E+03  0.7818608E-02  0.1095322E+00
         21   -1    0    0  503  502  0.00000000000E+00  0.00000000000E+00  0.50531392599E+03  0.50531392599E+03  0.00000000000E+00 0.  1.
         21   -1    0    0  501  503 -0.00000000000E+00 -0.00000000000E+00 -0.19640151092E+03  0.19640151092E+03  0.00000000000E+00 0.  1.
          6    2    1    2  501    0 -0.21857662434E+03 -0.33636989788E+02 -0.50800296736E+01  0.28087521712E+03  0.17308348593E+03 0.  0.
         24    2    3    3    0    0 -0.11706747186E+03  0.42339413358E+02 -0.28341300246E+02  0.15188026148E+03  0.82261568403E+02 0.  0.
         -6    2    1    2    0  502  0.21857662434E+03  0.33636989788E+02  0.31399244475E+03  0.42084021979E+03  0.17206989117E+03 0.  0.
        -24    2    5    5    0    0  0.37336863224E+02  0.11460060590E+02  0.15236041749E+03  0.17694132796E+03  0.81050369410E+02 0.  0.
          5    1    3    3  501    0 -0.10150915248E+03 -0.75976403146E+02  0.23261270572E+02  0.12899495564E+03  0.47000000000E+01 0. -1.
        -11    1    4    4    0    0 -0.36588854844E+02 -0.14931038493E+02 -0.35124376926E+02  0.52871561956E+02  0.00000000000E+00 0.  1.
         12    1    4    4    0    0 -0.80478617013E+02  0.57270451851E+02  0.67830766800E+01  0.99008699520E+02  0.00000000000E+00 0. -1.
         -5    1    5    5    0  502  0.18123976111E+03  0.22176929198E+02  0.16163202726E+03  0.24389889182E+03  0.47000000000E+01 0.  1.
         11    1    6    6    0    0  0.47610793436E+01  0.24014919562E+02  0.43455357332E+01  0.24864993845E+02  0.00000000000E+00 0. -1.
        -12    1    6    6    0    0  0.32575783880E+02 -0.12554858972E+02  0.14801488175E+03  0.15207633412E+03  0.00000000000E+00 0.  1.
</event>
<event>
12    1  0.1683022E-002  0.2201924E+03  0.7818608E-02  0.1133935E+00
         21   -1    0    0  501  502  0.00000000000E+00  0.00000000000E+00  0.11601042427E+04  0.11601042427E+04  0.00000000000E+00 0.  1.
         21   -1    0    0  502  503 -0.00000000000E+00 -0.00000000000E+00 -0.45508922974E+02  0.45508922974E+02  0.00000000000E+00 0. -1.
          6    2    1    2  501    0  0.10605330443E+03 -0.88055897367E+02  0.37931558627E+03  0.43807100293E+03  0.17036650252E+03 0.  0.
         24    2    3    3    0    0  0.53116389626E+02  0.11969740470E+02  0.24026361464E+03  0.25872500775E+03  0.79040493300E+02 0.  0.
         -6    2    1    2    0  503 -0.10605330443E+03  0.88055897367E+02  0.73527973349E+03  0.76754216277E+03  0.17170771885E+03 0.  0.
        -24    2    5    5    0    0 -0.67343854091E+02  0.12931110667E+03  0.57497608662E+03  0.59748404612E+03  0.71645852551E+02 0.  0.
          5    1    3    3  501    0  0.52936914809E+02 -0.10002563784E+03  0.13905197163E+03  0.17934599518E+03  0.47000000000E+01 0. -1.
        -13    1    4    4    0    0 -0.46587585484E+01  0.33675973234E+02  0.76342413645E+02  0.83569966648E+02  0.00000000000E+00 0.  1.
         14    1    4    4    0    0  0.57775148174E+02 -0.21706232764E+02  0.16392120099E+03  0.17515504110E+03  0.00000000000E+00 0. -1.
         -5    1    5    5    0  503 -0.38709450344E+02 -0.41255209307E+02  0.16030364687E+03  0.17005811666E+03  0.47000000000E+01 0.  1.
         13    1    6    6    0    0 -0.24049405213E+01  0.46993988956E+01 -0.30737310547E+00  0.52879643642E+01  0.00000000000E+00 0. -1.
        -14    1    6    6    0    0 -0.64938913569E+02  0.12461170778E+03  0.57528345972E+03  0.59219608175E+03  0.00000000000E+00 0.  1.
</event>
<event>
12    1  0.1761484E-002  0.1988778E+03  0.7818608E-02  0.1150691E+00
         21   -1    0    0  503  502  0.00000000000E+00  0.00000000000E+00  0.74086141286E+02  0.74086141286E+02  0.00000000000E+00 0.  1.
         21   -1    0    0  501  503 -0.00000000000E+00 -0.00000000000E+00 -0.61819268599E+03  0.61819268599E+03  0.00000000000E+00 0.  1.
          6    2    1    2  501    0 -0.47223676049E+02 -0.88617665443E+02 -0.39991749574E+03  0.44663898141E+03  0.17166598414E+03 0.  0.
         24    2    3    3    0    0 -0.48611821076E+02 -0.14939754763E+02 -0.10074512437E+03  0.13848875951E+03  0.80269863617E+02 0.  0.
         -6    2    1    2    0  502  0.47223676049E+02  0.88617665443E+02 -0.14418904897E+03  0.24563984587E+03  0.17165455376E+03 0.  0.
        -24    2    5    5    0    0 -0.27980488470E+02  0.86615603233E+02 -0.10541422741E+03  0.16087398363E+03  0.80517754628E+02 0.  0.
          5    1    3    3  501    0  0.13881450271E+01 -0.73677910679E+02 -0.29917237137E+03  0.30815022190E+03  0.47000000000E+01 0. -1.
        -11    1    4    4    0    0 -0.42972828653E+01  0.24363440162E+02 -0.64414156918E+02  0.69001648299E+02  0.00000000000E+00 0.  1.
         12    1    4    4    0    0 -0.44314538211E+02 -0.39303194925E+02 -0.36330967451E+02  0.69487111209E+02  0.00000000000E+00 0. -1.
         -5    1    5    5    0  502  0.75204164519E+02  0.20020622095E+01 -0.38774821563E+02  0.84765862241E+02  0.47000000000E+01 0.  1.
         11    1    6    6    0    0 -0.31135182747E+01  0.25484525750E+02 -0.89331024745E+02  0.92947227128E+02  0.00000000000E+00 0. -1.
        -12    1    6    6    0    0 -0.24866970195E+02  0.61131077483E+02 -0.16083202663E+02  0.67926756501E+02  0.00000000000E+00 0.  1.
</event>
<event>
12    1  0.1683022E-002  0.2057414E+03  0.7818608E-02  0.1146144E+00
         21   -1    0    0  501  502  0.00000000000E+00  0.00000000000E+00  0.59749116756E+03  0.59749116756E+03  0.00000000000E+00 0. -1.
         21   -1    0    0  502  503 -0.00000000000E+00 -0.00000000000E+00 -0.10948778729E+03  0.10948778729E+03  0.00000000000E+00 0. -1.
          6    2    1    2  501    0  0.52941069109E+02  0.87874629450E+02  0.46128607281E+03  0.50508847825E+03  0.17833906637E+03 0.  0.
         24    2    3    3    0    0  0.65260355686E+02  0.11347545745E+02  0.13496032103E+03  0.16965033844E+03  0.78608321840E+02 0.  0.
         -6    2    1    2    0  503 -0.52941069109E+02 -0.87874629450E+02  0.26717307464E+02  0.20189047659E+03  0.17181746920E+03 0.  0.
        -24    2    5    5    0    0  0.11401721338E+01 -0.75550574146E+02  0.70539318523E+02  0.13104471704E+03  0.80546465845E+02 0.  0.
          5    1    3    3  501    0 -0.12319286578E+02  0.76527083705E+02  0.32632575179E+03  0.33543813981E+03  0.47000000000E+01 0. -1.
        -13    1    4    4    0    0  0.14333716800E+02  0.39014852333E+02  0.36095730231E+02  0.55050121533E+02  0.00000000000E+00 0.  1.
         14    1    4    4    0    0  0.50926638887E+02 -0.27667306588E+02  0.98864590795E+02  0.11460021691E+03  0.00000000000E+00 0. -1.
         -5    1    5    5    0  503 -0.54081241243E+02 -0.12324055304E+02 -0.43822011059E+02  0.70845759554E+02  0.47000000000E+01 0.  1.
         13    1    6    6    0    0 -0.91985830028E+00 -0.56608904081E+02 -0.13912273154E+01  0.56633467791E+02  0.00000000000E+00 0. -1.
        -14    1    6    6    0    0  0.20600304341E+01 -0.18941670065E+02  0.71930545838E+02  0.74411249249E+02  0.00000000000E+00 0.  1.
</event>
<event>
12    1  0.1683022E-002  0.2295512E+03  0.7818608E-02  0.1126971E+00
         21   -1    0    0  501  502  0.00000000000E+00  0.00000000000E+00  0.17885899827E+03  0.17885899827E+03  0.00000000000E+00 0. -1.
         21   -1    0    0  502  503 -0.00000000000E+00 -0.00000000000E+00 -0.29469146584E+03  0.29469146584E+03  0.00000000000E+00 0. -1.
          6    2    1    2  501    0  0.65912124485E+02 -0.13821390386E+03 -0.63956823320E+02  0.23829445342E+03  0.17101543763E+03 0.  0.
         24    2    3    3    0    0  0.95741607234E+02 -0.54318253849E+02 -0.14700692570E+02  0.13642917696E+03  0.79245705924E+02 0.  0.
         -6    2    1    2    0  503 -0.65912124485E+02  0.13821390386E+03 -0.51875644249E+02  0.23525601070E+03  0.17090001969E+03 0.  0.
        -24    2    5    5    0    0 -0.95072314817E+02  0.49408871443E+02 -0.38975276617E+02  0.14078294593E+03  0.82588038213E+02 0.  0.
          5    1    3    3  501    0 -0.29829482750E+02 -0.83895650006E+02 -0.49256130750E+02  0.10186527646E+03  0.47000000000E+01 0. -1.
        -11    1    4    4    0    0  0.67890120366E+02 -0.95359330223E+01 -0.38437460200E+02  0.78596697187E+02  0.00000000000E+00 0.  1.
         12    1    4    4    0    0  0.27851486868E+02 -0.44782320827E+02  0.23736767631E+02  0.57832479775E+02  0.00000000000E+00 0. -1.
         -5    1    5    5    0  503  0.29160190332E+02  0.88805032412E+02 -0.12900367632E+02  0.94473064769E+02  0.47000000000E+01 0.  1.
         11    1    6    6    0    0 -0.36736216923E+02 -0.13329200778E+02  0.12265426895E+02  0.40959222699E+02  0.00000000000E+00 0. -1.
        -12    1    6    6    0    0 -0.58336097894E+02  0.62738072221E+02 -0.51240703512E+02  0.99823723232E+02  0.00000000000E+00 0.  1.
</event>
<event>
12    1  0.1683022E-002  0.1843585E+03  0.7818608E-02  0.1165462E+00
         21   -1    0    0  503  502  0.00000000000E+00  0.00000000000E+00  0.55655238832E+03  0.55655238832E+03  0.00000000000E+00 0. -1.
         21   -1    0    0  501  503 -0.00000000000E+00 -0.00000000000E+00 -0.74767805174E+02  0.74767805174E+02  0.00000000000E+00 0.  1.
          6    2    1    2  501    0  0.23528190947E+01  0.44460076621E+02  0.90147856877E+02  0.19846064419E+03  0.17110744292E+03 0.  0.
         24    2    3    3    0    0 -0.12557222590E+02 -0.35689246011E+02  0.23942904425E+02  0.93334962311E+02  0.81894727531E+02 0.  0.
         -6    2    1    2    0  502 -0.23528190947E+01 -0.44460076621E+02  0.39163672626E+03  0.43285954930E+03  0.17890173249E+03 0.  0.
        -24    2    5    5    0    0  0.54763233279E+02 -0.28970856707E+02  0.13504577344E+03  0.16949067026E+03  0.81556140941E+02 0.  0.
          5    1    3    3  501    0  0.14910041685E+02  0.80149322632E+02  0.66204952453E+02  0.10512568188E+03  0.47000000000E+01 0. -1.
        -11    1    4    4    0    0 -0.29146083394E+02  0.17025826438E+02  0.16502634322E+02  0.37572727911E+02  0.00000000000E+00 0.  1.
         12    1    4    4    0    0  0.16588860804E+02 -0.52715072449E+02  0.74402701028E+01  0.55762234400E+02  0.00000000000E+00 0. -1.
         -5    1    5    5    0  502 -0.57116052374E+02 -0.15489219914E+02  0.25659095282E+03  0.26336887903E+03  0.47000000000E+01 0.  1.
         13    1    6    6    0    0  0.45594025788E+02  0.21949615033E+02  0.70070928918E+02  0.86432261726E+02  0.00000000000E+00 0. -1.
        -14    1    6    6    0    0  0.91692074914E+01 -0.50920471740E+02  0.64974844522E+02  0.83058408538E+02  0.00000000000E+00 0.  1.
</event>
<event>
12    1  0.1683022E-002  0.2908224E+03  0.7818608E-02  0.1090282E+00
         21   -1    0    0  503  502  0.00000000000E+00  0.00000000000E+00  0.90832248457E+03  0.90832248457E+03  0.00000000000E+00 0. -1.
         21   -1    0    0  501  503 -0.00000000000E+00 -0.00000000000E+00 -0.93001891541E+02  0.93001891541E+02  0.00000000000E+00 0.  1.
          6    2    1    2  501    0  0.33140228578E+02 -0.22897103677E+03  0.36402138893E+03  0.46592833534E+03  0.17621473162E+03 0.  0.
         24    2    3    3    0    0  0.70135828489E+02 -0.22959550275E+03  0.32920782068E+03  0.41490736999E+03  0.78340329061E+02 0.  0.
         -6    2    1    2    0  502 -0.33140228578E+02  0.22897103677E+03  0.45129920410E+03  0.53539604077E+03  0.17161567069E+03 0.  0.
        -24    2    5    5    0    0 -0.36532228933E+02  0.52160885858E+02  0.23269290284E+03  0.25417701567E+03  0.80028785428E+02 0.  0.
          5    1    3    3  501    0 -0.36995599910E+02  0.62446597420E+00  0.34813568248E+02  0.51020965344E+02  0.47000000000E+01 0. -1.
        -13    1    4    4    0    0  0.69156168160E+02 -0.94854038077E+02  0.16488188472E+03  0.20240034596E+03  0.00000000000E+00 0.  1.
         14    1    4    4    0    0  0.97966032866E+00 -0.13474146467E+03  0.16432593596E+03  0.21250702404E+03  0.00000000000E+00 0. -1.
         -5    1    5    5    0  502  0.33920003544E+01  0.17681015091E+03  0.21860630125E+03  0.28121902510E+03  0.47000000000E+01 0.  1.
         11    1    6    6    0    0 -0.41948657739E+02  0.70664623807E+02  0.19996183072E+03  0.21618952955E+03  0.00000000000E+00 0. -1.
        -12    1    6    6    0    0  0.54164288061E+01 -0.18503737949E+02  0.32731072124E+02  0.37987486117E+02  0.00000000000E+00 0.  1.
</event>
<event>
12    1  0.1683022E-002  0.4767228E+03  0.7818608E-02  0.1020144E+00
         21   -1    0    0  501  502  0.00000000000E+00  0.00000000000E+00  0.18941352774E+03  0.18941352774E+03  0.00000000000E+00 0. -1.
         21   -1    0    0  502  503 -0.00000000000E+00 -0.00000000000E+00 -0.13789160135E+04  0.13789160135E+04  0.00000000000E+00 0.  1.
          6    2    1    2  501    0  0.34947374941E+03 -0.27467776015E+03 -0.30837629135E+03  0.56650721151E+03  0.16809137447E+03 0.  0.
         24    2    3    3    0    0  0.89982146036E+02 -0.12526244614E+03 -0.93708431026E+02  0.19804390460E+03  0.81563785370E+02 0.  0.
         -6    2    1    2    0  503 -0.34947374941E+03  0.27467776015E+03 -0.88112619443E+03  0.10018223297E+04  0.17229287979E+03 0.  0.
        -24    2    5    5    0    0 -0.26419870851E+03  0.17499756946E+03 -0.48628963478E+03  0.58573823746E+03  0.78654733093E+02 0.  0.
          5    1    3    3  501    0  0.25949160338E+03 -0.14941531401E+03 -0.21466786032E+03  0.36846330691E+03  0.47000000000E+01 0. -1.
        -11    1    4    4    0    0  0.85656167239E+01 -0.25212464839E+02  0.13921427223E+02  0.30047367756E+02  0.00000000000E+00 0.  1.
         12    1    4    4    0    0  0.81416529312E+02 -0.10004998130E+03 -0.10762985825E+03  0.16799653684E+03  0.00000000000E+00 0. -1.
         -5    1    5    5    0  503 -0.85275040902E+02  0.99680190696E+02 -0.39483655965E+03  0.41608409228E+03  0.47000000000E+01 0.  1.
         11    1    6    6    0    0 -0.14236162335E+01  0.20407182533E+02 -0.44344698716E+02  0.48835766467E+02  0.00000000000E+00 0. -1.
        -12    1    6    6    0    0 -0.26277509228E+03  0.15459038692E+03 -0.44194493606E+03  0.53690247100E+03  0.00000000000E+00 0.  1.
</event>
<event>
12    1  0.1683022E-002  0.2212967E+03  0.7818608E-02  0.1133675E+00
         21   -1    0    0  501  502  0.00000000000E+00  0.00000000000E+00  0.23275484628E+03  0.23275484628E+03  0.00000000000E+00 0. -1.
         21   -1    0    0  502  503 -0.00000000000E+00 -0.00000000000E+00 -0.30720590066E+03  0.30720590066E+03  0.00000000000E+00 0.  1.
          6    2    1    2  501    0  0.97774794683E+02 -0.99450237893E+02  0.11751924452E+03  0.24700203851E+03  0.16658023263E+03 0.  0.
         24    2    3    3    0    0  0.19265581707E+02 -0.78063168842E+02  0.18186295778E+02  0.11850990665E+03  0.85140094262E+02 0.  0.
         -6    2    1    2    0  503 -0.97774794683E+02  0.99450237893E+02 -0.19197029889E+03  0.29295870843E+03  0.17181952420E+03 0.  0.
        -24    2    5    5    0    0  0.16113666078E+02  0.25808292830E+02 -0.61507724499E+02  0.10471341398E+03  0.79094757604E+02 0.  0.
          5    1    3    3  501    0  0.78509212976E+02 -0.21387069052E+02  0.99332948742E+02  0.12849213186E+03  0.47000000000E+01 0. -1.
        -11    1    4    4    0    0 -0.78985631790E+01  0.16158162855E+02  0.87415347014E+01  0.19997198705E+02  0.00000000000E+00 0.  1.
         12    1    4    4    0    0  0.27164144886E+02 -0.94221331696E+02  0.94447610763E+01  0.98512707941E+02  0.00000000000E+00 0. -1.
         -5    1    5    5    0  503 -0.11388846076E+03  0.73641945064E+02 -0.13046257439E+03  0.18824529446E+03  0.47000000000E+01 0.  1.
         13    1    6    6    0    0  0.24728848635E+01  0.11170273797E+02  0.18768843909E+02  0.21980893474E+02  0.00000000000E+00 0. -1.
        -14    1    6    6    0    0  0.13640781214E+02  0.14638019033E+02 -0.80276568408E+02  0.82732520503E+02  0.00000000000E+00 0.  1.
</event>
<event>
12    1  0.1683022E-002  0.2102598E+03  0.7818608E-02  0.1143473E+00
         21   -1    0    0  501  502  0.00000000000E+00  0.00000000000E+00  0.59305996701E+02  0.59305996701E+02  0.00000000000E+00 0.  1.
         21   -1    0    0  502  503 -0.00000000000E+00 -0.00000000000E+00 -0.71044980225E+03  0.71044980225E+03  0.00000000000E+00 0. -1.
          6    2    1    2  501    0  0.93304638739E+02 -0.75655429057E+02 -0.33454585234E+03  0.38969864811E+03  0.15973293169E+03 0.  0.
         24    2    3    3    0    0  0.83627272179E+02 -0.25967611310E+02 -0.31281271802E+03  0.33440895844E+03  0.79433729893E+02 0.  0.
         -6    2    1    2    0  503 -0.93304638739E+02  0.75655429057E+02 -0.31659795321E+03  0.38005715084E+03  0.17256788337E+03 0.  0.
        -24    2    5    5    0    0 -0.79407664983E+01 -0.18863684383E+02 -0.14391155200E+03  0.16543297548E+03  0.78985063229E+02 0.  0.
          5    1    3    3  501    0  0.96773665603E+01 -0.49687817747E+02 -0.21733134321E+02  0.55289689666E+02  0.47000000000E+01 0. -1.
        -13    1    4    4    0    0  0.56904729643E+02 -0.99257988332E+01 -0.75522621969E+02  0.95080682409E+02  0.00000000000E+00 0.  1.
         14    1    4    4    0    0  0.26722542536E+02 -0.16041812477E+02 -0.23729009605E+03  0.23932827603E+03  0.00000000000E+00 0. -1.
         -5    1    5    5    0  503 -0.85363872241E+02  0.94519113439E+02 -0.17268640120E+03  0.21462417536E+03  0.47000000000E+01 0.  1.
         13    1    6    6    0    0 -0.33048036234E+02 -0.37490581231E+02 -0.95881786125E+02  0.10812508169E+03  0.00000000000E+00 0. -1.
        -14    1    6    6    0    0  0.25107269735E+02  0.18626896848E+02 -0.48029765880E+02  0.57307893786E+02  0.00000000000E+00 0.  1.
</event>
<event>
12    1  0.1683022E-002  0.2594770E+03  0.7818608E-02  0.1107641E+00
         21   -1    0    0  501  502  0.00000000000E+00  0.00000000000E+00  0.13673778305E+03  0.13673778305E+03  0.00000000000E+00 0. -1.
         21   -1    0    0  502  503 -0.00000000000E+00 -0.00000000000E+00 -0.49337430151E+03  0.49337430151E+03  0.00000000000E+00 0. -1.
          6    2    1    2  501    0 -0.15985864337E+03  0.11133989433E+03 -0.15302977407E+03  0.30124143324E+03  0.17139699944E+03 0.  0.
         24    2    3    3    0    0 -0.26574451441E+02  0.46733515015E+02 -0.11108594075E+03  0.14722833243E+03  0.80286192732E+02 0.  0.
         -6    2    1    2    0  503  0.15985864337E+03 -0.11133989433E+03 -0.20360674439E+03  0.32887065132E+03  0.16955483186E+03 0.  0.
        -24    2    5    5    0    0  0.14042755313E+03 -0.85134455053E+02 -0.22567044895E+03  0.28920719995E+03  0.75801582151E+02 0.  0.
          5    1    3    3  501    0 -0.13328419193E+03  0.64606379314E+02 -0.41943833323E+02  0.15401310081E+03  0.47000000000E+01 0. -1.
        -13    1    4    4    0    0 -0.31286104718E+02  0.22648739338E+02 -0.57233644341E+01  0.39045392077E+02  0.00000000000E+00 0.  1.
         14    1    4    4    0    0  0.47116532771E+01  0.24084775677E+02 -0.10536257631E+03  0.10818294035E+03  0.00000000000E+00 0. -1.
         -5    1    5    5    0  503  0.19431090241E+02 -0.26205439275E+02  0.22063704561E+02  0.39663451369E+02  0.47000000000E+01 0.  1.
         11    1    6    6    0    0  0.11994291742E+03 -0.62724170478E+02 -0.12566799401E+03  0.18469723798E+03  0.00000000000E+00 0. -1.
        -12    1    6    6    0    0  0.20484635714E+02 -0.22410284575E+02 -0.10000245495E+03  0.10450996197E+03  0.00000000000E+00 0.  1.
</event>
<event>
12    1  0.1683022E-002  0.2669112E+03  0.7818608E-02  0.1103282E+00
         21   -1    0    0  503  502  0.00000000000E+00  0.00000000000E+00  0.81008603637E+03  0.81008603637E+03  0.00000000000E+00 0.  1.
         21   -1    0    0  501  503 -0.00000000000E+00 -0.00000000000E+00 -0.10114110252E+03  0.10114110252E+03  0.00000000000E+00 0. -1.
          6    2    1    2  501    0 -0.18104917940E+03 -0.92306585808E+02  0.52302901045E+03  0.58719751630E+03  0.17303833746E+03 0.  0.
         24    2    3    3    0    0 -0.13971578105E+03 -0.10858931829E+03  0.28857475735E+03  0.34852522215E+03  0.82959631001E+02 0.  0.
         -6    2    1    2    0  502  0.18104917940E+03  0.92306585808E+02  0.18591592341E+03  0.32402962259E+03  0.17067851240E+03 0.  0.
        -24    2    5    5    0    0  0.14332478106E+03  0.10882222472E+03  0.82631432208E+02  0.21273868549E+03  0.77752975862E+02 0.  0.
          5    1    3    3  501    0 -0.41333398353E+02  0.16282732487E+02  0.23445425310E+03  0.23867229414E+03  0.47000000000E+01 0. -1.
        -13    1    4    4    0    0 -0.12556951745E+03 -0.10889040013E+03  0.29005313205E+03  0.33429873222E+03  0.00000000000E+00 0.  1.
         14    1    4    4    0    0 -0.14146263596E+02  0.30108183283E+00 -0.14783747004E+01  0.14226489931E+02  0.00000000000E+00 0. -1.
         -5    1    5    5    0  502  0.37724398337E+02 -0.16515638907E+02  0.10328449120E+03  0.11129093710E+03  0.47000000000E+01 0.  1.
         11    1    6    6    0    0  0.12295330013E+03  0.48537732207E+02  0.51085962646E+02  0.14171521104E+03  0.00000000000E+00 0. -1.
        -12    1    6    6    0    0  0.20371480929E+02  0.60284492508E+02  0.31545469562E+02  0.71023474444E+02  0.00000000000E+00 0.  1.
</event>
<event>
12    1  0.1683022E-002  0.1826519E+03  0.7818608E-02  0.1165428E+00
         21   -1    0    0  501  502  0.00000000000E+00  0.00000000000E+00  0.11273733217E+03  0.11273733217E+03  0.00000000000E+00 0. -1.
         21   -1    0    0  502  503 -0.00000000000E+00 -0.00000000000E+00 -0.36465364728E+03  0.36465364728E+03  0.00000000000E+00 0. -1.
          6    2    1    2  501    0  0.13644768941E+02 -0.55147086240E+02 -0.21673434414E+02  0.18393330065E+03  0.17359245516E+03 0.  0.
         24    2    3    3    0    0  0.29543520290E+02 -0.10026187361E+03 -0.20475048879E+01  0.13201623752E+03  0.80615332297E+02 0.  0.
         -6    2    1    2    0  503 -0.13644768941E+02  0.55147086240E+02 -0.23024288069E+03  0.29345767880E+03  0.17285324498E+03 0.  0.
        -24    2    5    5    0    0 -0.60829873772E+01 -0.10920541978E+02 -0.20718859321E+03  0.22291902124E+03  0.81298929287E+02 0.  0.
          5    1    3    3  501    0 -0.15898751349E+02  0.45114787373E+02 -0.19625929526E+02  0.51917063129E+02  0.47000000000E+01 0. -1.
        -11    1    4    4    0    0 -0.18267500016E+02 -0.71887305698E+02 -0.13131054370E+02  0.75325366685E+02  0.00000000000E+00 0.  1.
         12    1    4    4    0    0  0.47811020305E+02 -0.28374567915E+02  0.11083549482E+02  0.56690870836E+02  0.00000000000E+00 0. -1.
         -5    1    5    5    0  503 -0.75617815637E+01  0.66067628218E+02 -0.23054287476E+02  0.70538657556E+02  0.47000000000E+01 0.  1.
         11    1    6    6    0    0  0.31350486439E+02 -0.61562040363E+00 -0.15345607027E+03  0.15662693731E+03  0.00000000000E+00 0. -1.
        -12    1    6    6    0    0 -0.37433473816E+02 -0.10304921575E+02 -0.53732522938E+02  0.66292083931E+02  0.00000000000E+00 0.  1.
</event>
<event>
12    1  0.1683022E-002  0.2005399E+03  0.7818608E-02  0.1149462E+00
         21   -1    0    0  501  502  0.00000000000E+00  0.00000000000E+00  0.10919762248E+03  0.10919762248E+03  0.00000000000E+00 0. -1.
         21   -1    0    0  502  503 -0.00000000000E+00 -0.00000000000E+00 -0.37668597652E+03  0.37668597652E+03  0.00000000000E+00 0. -1.
          6    2    1    2  501    0 -0.39535035638E+02  0.94217737806E+02 -0.93992471843E+02  0.22070995115E+03  0.17157592085E+03 0.  0.
         24    2    3    3    0    0  0.14619592691E+02  0.50848898109E+02  0.12710959209E+02  0.93347114251E+02  0.75847032411E+02 0.  0.
         -6    2    1    2    0  503  0.39535035638E+02 -0.94217737806E+02 -0.17349588220E+03  0.26517364785E+03  0.17255793582E+03 0.  0.
        -24    2    5    5    0    0  0.38906957900E+02 -0.79690318713E+02 -0.33729032755E+02  0.12457385201E+03  0.80726071901E+02 0.  0.
          5    1    3    3  501    0 -0.54154628328E+02  0.43368839697E+02 -0.10670343105E+03  0.12736283690E+03  0.47000000000E+01 0. -1.
        -11    1    4    4    0    0  0.39575171312E+02  0.42418508000E+02 -0.96308934443E+01  0.58807126386E+02  0.00000000000E+00 0.  1.
         12    1    4    4    0    0 -0.24955578621E+02  0.84303901094E+01  0.22341852653E+02  0.34539987864E+02  0.00000000000E+00 0. -1.
         -5    1    5    5    0  503  0.62807773702E+00 -0.14527419093E+02 -0.13976684944E+03  0.14059979584E+03  0.47000000000E+01 0.  1.
         11    1    6    6    0    0  0.92460588763E+01 -0.27589076735E+02 -0.53955528778E+02  0.61301271157E+02  0.00000000000E+00 0. -1.
        -12    1    6    6    0    0  0.29660899024E+02 -0.52101241978E+02  0.20226496022E+02  0.63272580854E+02  0.00000000000E+00 0.  1.
</event>
<event>
12    1  0.1683022E-002  0.2405832E+03  0.7818608E-02  0.1119618E+00
         21   -1    0    0  503  502  0.00000000000E+00  0.00000000000E+00  0.43864745070E+03  0.43864745070E+03  0.00000000000E+00 0.  1.
         21   -1    0    0  501  503 -0.00000000000E+00 -0.00000000000E+00 -0.15890383894E+03  0.15890383894E+03  0.00000000000E+00 0.  1.
          6    2    1    2  501    0  0.46772713682E+02 -0.16168132788E+03  0.14923452293E+02  0.23976642585E+03  0.17010788050E+03 0.  0.
         24    2    3    3    0    0  0.46463253275E+02 -0.49049075440E+02 -0.43716720627E+02  0.11269605191E+03  0.78896151658E+02 0.  0.
         -6    2    1    2    0  502 -0.46772713682E+02  0.16168132788E+03  0.26482015947E+03  0.35778486378E+03  0.17190623421E+03 0.  0.
        -24    2    5    5    0    0 -0.71152421369E+02  0.17928966819E+03  0.21497812690E+03  0.29938330553E+03  0.78786524215E+02 0.  0.
          5    1    3    3  501    0  0.30946040727E+00 -0.11263225244E+03  0.58640172920E+02  0.12707037395E+03  0.47000000000E+01 0. -1.
        -13    1    4    4    0    0  0.20667034051E+02 -0.65882948432E+02 -0.44028690893E+02  0.81891481928E+02  0.00000000000E+00 0.  1.
         14    1    4    4    0    0  0.25796219223E+02  0.16833872992E+02  0.31197026622E+00  0.30804569979E+02  0.00000000000E+00 0. -1.
         -5    1    5    5    0  502  0.24379707688E+02 -0.17608340315E+02  0.49842032568E+02  0.58401558250E+02  0.47000000000E+01 0.  1.
         13    1    6    6    0    0 -0.16152493805E+02 -0.12828811448E+01  0.48351351259E+01  0.16909387092E+02  0.00000000000E+00 0. -1.
        -14    1    6    6    0    0 -0.54999927564E+02  0.18057254934E+03  0.21014299178E+03  0.28247391844E+03  0.00000000000E+00 0.  1.
</event>
<event>
12    1  0.1683022E-002  0.1850964E+03  0.7818608E-02  0.1163379E+00
         21   -1    0    0  501  502  0.00000000000E+00  0.00000000000E+00  0.13479119069E+04  0.13479119069E+04  0.00000000000E+00 0. -1.
         21   -1    0    0  502  503 -0.00000000000E+00 -0.00000000000E+00 -0.37711560728E+02  0.37711560728E+02  0.00000000000E+00 0. -1.
          6    2    1    2  501    0  0.55902583706E+02 -0.47505115268E+02  0.10524645662E+04  0.10683090973E+04  0.16799056386E+03 0.  0.
         24    2    3    3    0    0  0.57091528482E+02  0.16102211932E+02  0.38380803575E+03  0.39661649551E+03  0.80481751657E+02 0.  0.
         -6    2    1    2    0  503 -0.55902583706E+02  0.47505115268E+02  0.25773578003E+03  0.31731437033E+03  0.16993776057E+03 0.  0.
        -24    2    5    5    0    0  0.26300897013E+02  0.84011464357E+01  0.17426816942E+03  0.19372041966E+03  0.79974306350E+02 0.  0.
          5    1    3    3  501    0 -0.11889447768E+01 -0.63607327201E+02  0.66865653041E+03  0.67169260181E+03  0.47000000000E+01 0. -1.
        -11    1    4    4    0    0  0.40398974496E+02 -0.22745386283E+01  0.63164990763E+02  0.75013776897E+02  0.00000000000E+00 0.  1.
         12    1    4    4    0    0  0.16692553986E+02  0.18376750560E+02  0.32064304499E+03  0.32160271861E+03  0.00000000000E+00 0. -1.
         -5    1    5    5    0  503 -0.82203480718E+02  0.39103968833E+02  0.83467610613E+02  0.12359395067E+03  0.47000000000E+01 0.  1.
         11    1    6    6    0    0 -0.82040439651E+01 -0.18146065173E+02  0.73650639218E+01  0.21232762072E+02  0.00000000000E+00 0. -1.
        -12    1    6    6    0    0  0.34504940978E+02  0.26547211608E+02  0.16690310550E+03  0.17248765759E+03  0.00000000000E+00 0.  1.
</event>
<event>
12    1  0.1683022E-002  0.1758250E+03  0.7818608E-02  0.1172428E+00
         21   -1    0    0  503  502  0.00000000000E+00  0.00000000000E+00  0.49640584379E+02  0.49640584379E+02  0.00000000000E+00 0.  1.
         21   -1    0    0  501  503 -0.00000000000E+00 -0.00000000000E+00 -0.98930164127E+03  0.98930164127E+03  0.00000000000E+00 0.  1.
          6    2    1    2  501    0 -0.21287425738E+02  0.70786290052E+01 -0.79090891953E+03  0.81021685693E+03  0.17438800069E+03 0.  0.
         24    2    3    3    0    0  0.47231695632E+02  0.34015888795E+02 -0.53256463764E+03  0.54154541457E+03  0.79110233294E+02 0.  0.
         -6    2    1    2    0  502  0.21287425738E+02 -0.70786290052E+01 -0.14875213736E+03  0.22872536872E+03  0.17229287403E+03 0.  0.
        -24    2    5    5    0    0  0.97071028145E+01 -0.66910572885E+02 -0.12303817033E+03  0.16241350335E+03  0.81660897035E+02 0.  0.
          5    1    3    3  501    0 -0.68519121370E+02 -0.26937259790E+02 -0.25834428188E+03  0.26867144236E+03  0.47000000000E+01 0. -1.
        -13    1    4    4    0    0 -0.14525669119E+02  0.22205308707E+01 -0.25493642974E+03  0.25535956812E+03  0.00000000000E+00 0.  1.
         14    1    4    4    0    0  0.61757364751E+02  0.31795357924E+02 -0.27762820790E+03  0.28618584645E+03  0.00000000000E+00 0. -1.
         -5    1    5    5    0  502  0.11580322924E+02  0.59831943880E+02 -0.25713967038E+02  0.66311865366E+02  0.47000000000E+01 0.  1.
         11    1    6    6    0    0  0.38027926768E+02 -0.98225800349E+01 -0.66444423929E+02  0.77184634249E+02  0.00000000000E+00 0. -1.
        -12    1    6    6    0    0 -0.28320823954E+02 -0.57087992850E+02 -0.56593746396E+02  0.85228869101E+02  0.00000000000E+00 0.  1.
</event>
<event>
12    1  0.1683022E-002  0.2317149E+03  0.7818608E-02  0.1125733E+00
         21   -1    0    0  501  502  0.00000000000E+00  0.00000000000E+00  0.66309291827E+02  0.66309291827E+02  0.00000000000E+00 0. -1.
         21   -1    0    0  502  503 -0.00000000000E+00 -0.00000000000E+00 -0.80520303327E+03  0.80520303327E+03  0.00000000000E+00 0.  1.
          6    2    1    2  501    0 -0.13943887132E+03 -0.63785832389E+02 -0.35024642945E+03  0.41903190437E+03  0.17147403386E+03 0.  0.
         24    2    3    3    0    0 -0.16344670117E+00 -0.26977169463E+02 -0.16587258786E+03  0.18500557031E+03  0.77366344465E+02 0.  0.
         -6    2    1    2    0  503  0.13943887132E+03  0.63785832389E+02 -0.38864731200E+03  0.45248042073E+03  0.17372382327E+03 0.  0.
        -24    2    5    5    0    0  0.17136496850E+03  0.47695620764E+02 -0.33999561925E+03  0.39192261530E+03  0.79784024766E+02 0.  0.
          5    1    3    3  501    0 -0.13927542462E+03 -0.36808662926E+02 -0.18437384160E+03  0.23402633406E+03  0.47000000000E+01 0. -1.
        -13    1    4    4    0    0 -0.28602020428E+02  0.13836417375E+02 -0.73939092428E+02  0.80476775578E+02  0.00000000000E+00 0.  1.
         14    1    4    4    0    0  0.28438573727E+02 -0.40813586837E+02 -0.91933495427E+02  0.10452879473E+03  0.00000000000E+00 0. -1.
         -5    1    5    5    0  503 -0.31926097176E+02  0.16090211626E+02 -0.48651692751E+02  0.60557805431E+02  0.47000000000E+01 0.  1.
         11    1    6    6    0    0  0.12530023786E+03 -0.44405561533E+01 -0.21779652352E+03  0.25130697126E+03  0.00000000000E+00 0. -1.
        -12    1    6    6    0    0  0.46064730643E+02  0.52136176917E+02 -0.12219909573E+03  0.14061564404E+03  0.00000000000E+00 0.  1.
</event>
<event>
12    1  0.1683022E-002  0.1823210E+03  0.7818608E-02  0.1166060E+00
         21   -1    0    0  501  502  0.00000000000E+00  0.00000000000E+00  0.15619522406E+03  0.15619522406E+03  0.00000000000E+00 0.  1.
         21   -1    0    0  502  503 -0.00000000000E+00 -0.00000000000E+00 -0.24841839034E+03  0.24841839034E+03  0.00000000000E+00 0.  1.
          6    2    1    2  501    0 -0.51482450941E+02  0.93616008260E+01  0.33183684228E+02  0.18332685123E+03  0.17253838749E+03 0.  0.
         24    2    3    3    0    0 -0.43625730941E+02  0.39927740017E+02 -0.37216186449E+02  0.10603358693E+03  0.79753672018E+02 0.  0.
         -6    2    1    2    0  503  0.51482450941E+02 -0.93616008260E+01 -0.12540685051E+03  0.22128676317E+03  0.17465071164E+03 0.  0.
        -24    2    5    5    0    0  0.85019269719E+02 -0.46622494371E+02 -0.62987654359E+02  0.14109113705E+03  0.80853763958E+02 0.  0.
          5    1    3    3  501    0 -0.78567199993E+01 -0.30566139191E+02  0.70399870677E+02  0.77293264296E+02  0.47000000000E+01 0. -1.
        -13    1    4    4    0    0 -0.29609218830E+02  0.58814712469E+02 -0.48520864736E+01  0.66025896327E+02  0.00000000000E+00 0.  1.
         14    1    4    4    0    0 -0.14016512111E+02 -0.18886972452E+02 -0.32364099975E+02  0.40007690603E+02  0.00000000000E+00 0. -1.
         -5    1    5    5    0  503 -0.33536818778E+02  0.37260893545E+02 -0.62419196151E+02  0.80195626126E+02  0.47000000000E+01 0.  1.
         13    1    6    6    0    0  0.15302328537E+00 -0.35184019867E+02 -0.68420697815E+00  0.35191004665E+02  0.00000000000E+00 0. -1.
        -14    1    6    6    0    0  0.84866246433E+02 -0.11438474504E+02 -0.62303447380E+02  0.10590013238E+03  0.00000000000E+00 0.  1.
</event>
<event>
12    1  0.1683022E-002  0.4106423E+03  0.7818608E-02  0.1040197E+00
         21   -1    0    0  503  502  0.00000000000E+00  0.00000000000E+00  0.11713189820E+04  0.11713189820E+04  0.00000000000E+00 0. -1.
         21   -1    0    0  501  503 -0.00000000000E+00 -0.00000000000E+00 -0.15663187499E+03  0.15663187499E+03  0.00000000000E+00 0.  1.
          6    2    1    2  501    0 -0.65859477996E+02 -0.36649069101E+03  0.31750173680E+03  0.51907073130E+03  0.17313051083E+03 0.  0.
         24    2    3    3    0    0  0.68749225085E+01 -0.23713171891E+03  0.14381701024E+03  0.29057016036E+03  0.86423197024E+02 0.  0.
         -6    2    1    2    0  502  0.65859477996E+02  0.36649069101E+03  0.69718537023E+03  0.80888012572E+03  0.17194975976E+03 0.  0.
        -24    2    5    5    0    0 -0.18555113954E+02  0.22196800825E+03  0.47659482590E+03  0.53194167152E+03  0.78773249801E+02 0.  0.
          5    1    3    3  501    0 -0.72734400505E+02 -0.12935897210E+03  0.17368472656E+03  0.22850057094E+03  0.47000000000E+01 0. -1.
        -13    1    4    4    0    0 -0.19850364256E+02 -0.13448490317E+03  0.38946208413E+02  0.14141086695E+03  0.00000000000E+00 0.  1.
         14    1    4    4    0    0  0.26725286764E+02 -0.10264681574E+03  0.10487080183E+03  0.14915929341E+03  0.00000000000E+00 0. -1.
         -5    1    5    5    0  502  0.84414591951E+02  0.14452268275E+03  0.22059054433E+03  0.27693845420E+03  0.47000000000E+01 0.  1.
         11    1    6    6    0    0  0.15221973693E+00 -0.10839494130E+01 -0.27233033869E+01  0.29350465951E+01  0.00000000000E+00 0. -1.
        -12    1    6    6    0    0 -0.18707333691E+02  0.22305195767E+03  0.47931812929E+03  0.52900662493E+03  0.00000000000E+00 0.  1.
</event>
<event>
12    1  0.1683022E-002  0.3923267E+03  0.7818608E-02  0.1046580E+00
         21   -1    0    0  503  502  0.00000000000E+00  0.00000000000E+00  0.55348683747E+03  0.55348683747E+03  0.00000000000E+00 0. -1.
         21   -1    0    0  501  503 -0.00000000000E+00 -0.00000000000E+00 -0.28612067664E+03  0.28612067664E+03  0.00000000000E+00 0. -1.
          6    2    1    2  501    0  0.35082572264E+03 -0.24659553187E+02  0.59808304766E+02  0.39685925098E+03  0.17387768845E+03 0.  0.
         24    2    3    3    0    0  0.11903046779E+03  0.42321194128E+02  0.41175174726E+02  0.15481639482E+03  0.79456814413E+02 0.  0.
         -6    2    1    2    0  502 -0.35082572264E+03  0.24659553187E+02  0.20755785606E+03  0.44274826314E+03  0.17105256404E+03 0.  0.
        -24    2    5    5    0    0 -0.21572290782E+03  0.28839370271E+02  0.54727107403E+02  0.23866600232E+03  0.81230056893E+02 0.  0.
          5    1    3    3  501    0  0.23179525485E+03 -0.66980747316E+02  0.18633130040E+02  0.24204285616E+03  0.47000000000E+01 0. -1.
        -13    1    4    4    0    0  0.28999047165E+02  0.13276396137E+02  0.50530959309E+02  0.59754374564E+02  0.00000000000E+00 0.  1.
         14    1    4    4    0    0  0.90031420623E+02  0.29044797991E+02 -0.93557845830E+01  0.95062020255E+02  0.00000000000E+00 0. -1.
         -5    1    5    5    0  502 -0.13510281482E+03 -0.41798170832E+01  0.15283074866E+03  0.20408226081E+03  0.47000000000E+01 0.  1.
         11    1    6    6    0    0 -0.63311719884E+02 -0.17733774794E+02  0.43638519309E+02  0.78912489573E+02  0.00000000000E+00 0. -1.
        -12    1    6    6    0    0 -0.15241118794E+03  0.46573145064E+02  0.11088588095E+02  0.15975351275E+03  0.00000000000E+00 0.  1.
</event>
<event>
12    1  0.1683022E-002  0.2130605E+03  0.7818608E-02  0.1139186E+00
         21   -1    0    0  501  502  0.00000000000E+00  0.00000000000E+00  0.30386278800E+03  0.30386278800E+03  0.00000000000E+00 0.  1.
         21   -1    0    0  502  503 -0.00000000000E+00 -0.00000000000E+00 -0.19261406180E+03  0.19261406180E+03  0.00000000000E+00 0. -1.
          6    2    1    2  501    0  0.12323536951E+03 -0.28788494189E+02 -0.62057237811E+02  0.22191416050E+03  0.17140320933E+03 0.  0.
         24    2    3    3    0    0  0.19507912244E+02  0.26972613674E+02 -0.56410585384E+02  0.10391983341E+03  0.80678975603E+02 0.  0.
         -6    2    1    2    0  503 -0.12323536951E+03  0.28788494189E+02  0.17330596401E+03  0.27456268930E+03  0.17127165410E+03 0.  0.
        -24    2    5    5    0    0 -0.14564253622E+03  0.25396536819E+02  0.18358785126E+03  0.24923693758E+03  0.80980364834E+02 0.  0.
          5    1    3    3  501    0  0.10372745727E+03 -0.55761107863E+02 -0.56466524270E+01  0.11799432709E+03  0.47000000000E+01 0. -1.
        -11    1    4    4    0    0  0.92459144322E+00  0.40947383988E+02  0.20458387052E+01  0.41008884169E+02  0.00000000000E+00 0.  1.
         12    1    4    4    0    0  0.18583320801E+02 -0.13974770314E+02 -0.58456424089E+02  0.62910949242E+02  0.00000000000E+00 0. -1.
         -5    1    5    5    0  503  0.22407166705E+02  0.33919573704E+01 -0.10281887252E+02  0.25325751717E+02  0.47000000000E+01 0.  1.
         13    1    6    6    0    0  0.50030238028E+01 -0.12001466767E+02  0.18788793095E+02  0.22849161860E+02  0.00000000000E+00 0. -1.
        -14    1    6    6    0    0 -0.15064556002E+03  0.37398003586E+02  0.16479905816E+03  0.22638777572E+03  0.00000000000E+00 0.  1.
</event>
<event>
12    1  0.1683022E-002  0.1799598E+03  0.7818608E-02  0.1167849E+00
         21   -1    0    0  501  502  0.00000000000E+00  0.00000000000E+00  0.21875769146E+03  0.21875769146E+03  0.00000000000E+00 0. -1.
         21   -1    0    0  502  503 -0.00000000000E+00 -0.00000000000E+00 -0.14865740293E+03  0.14865740293E+03  0.00000000000E+00 0. -1.
          6    2    1    2  501    0  0.36389083384E+02 -0.39757496498E+02  0.47103847566E+02  0.18602226975E+03  0.17169941313E+03 0.  0.
         24    2    3    3    0    0  0.46708396106E+02  0.18663694278E+02  0.74863392546E+02  0.12035487994E+03  0.79691667259E+02 0.  0.
         -6    2    1    2    0  503 -0.36389083384E+02  0.39757496498E+02  0.22996440956E+02  0.18139282464E+03  0.17166740115E+03 0.  0.
        -24    2    5    5    0    0 -0.21185428629E+02 -0.43388461102E+02 -0.27205001204E+01  0.92917673096E+02  0.79340480901E+02 0.  0.
          5    1    3    3  501    0 -0.10319312721E+02 -0.58421190776E+02 -0.27759544980E+02  0.65667389808E+02  0.47000000000E+01 0. -1.
        -13    1    4    4    0    0  0.12418677007E+02 -0.15559795551E+02 -0.10270926209E+02  0.22401399541E+02  0.00000000000E+00 0.  1.
         14    1    4    4    0    0  0.34289719099E+02  0.34223489829E+02  0.85134318755E+02  0.97953480397E+02  0.00000000000E+00 0. -1.
         -5    1    5    5    0  503 -0.15203654756E+02  0.83145957600E+02  0.25716941076E+02  0.88475151549E+02  0.47000000000E+01 0.  1.
         11    1    6    6    0    0  0.13962809447E+02 -0.88505341141E+01 -0.31699204850E+02  0.35750966279E+02  0.00000000000E+00 0. -1.
        -12    1    6    6    0    0 -0.35148238076E+02 -0.34537926988E+02  0.28978704729E+02  0.57166706817E+02  0.00000000000E+00 0.  1.
</event>
<event>
12    1  0.1683022E-002  0.1742419E+03  0.7818608E-02  0.1173799E+00
         21   -1    0    0  503  502  0.00000000000E+00  0.00000000000E+00  0.33581943144E+03  0.33581943144E+03  0.00000000000E+00 0. -1.
         21   -1    0    0  501  503 -0.00000000000E+00 -0.00000000000E+00 -0.90284914629E+02  0.90284914629E+02  0.00000000000E+00 0. -1.
          6    2    1    2  501    0 -0.90143172680E+01 -0.14011569773E+02  0.13905202836E+03  0.22292534868E+03  0.17344354266E+03 0.  0.
         24    2    3    3    0    0 -0.34738208632E+02 -0.13885679804E+02  0.16373925256E+03  0.18696309801E+03  0.82128569590E+02 0.  0.
         -6    2    1    2    0  502  0.90143172680E+01  0.14011569773E+02  0.10648248845E+03  0.20317899739E+03  0.17223705359E+03 0.  0.
        -24    2    5    5    0    0  0.55476040004E+02  0.39819358687E+02  0.27941593805E+02  0.10822903277E+03  0.79180922766E+02 0.  0.
          5    1    3    3  501    0  0.25723891364E+02 -0.12588996949E+00 -0.24687224200E+02  0.35962250679E+02  0.47000000000E+01 0. -1.
        -13    1    4    4    0    0  0.10315934097E+02  0.22289866896E+02  0.89951651390E+02  0.93244604403E+02  0.00000000000E+00 0.  1.
         14    1    4    4    0    0 -0.45054142729E+02 -0.36175546699E+02  0.73787601174E+02  0.93718493602E+02  0.00000000000E+00 0. -1.
         -5    1    5    5    0  502 -0.46461722736E+02 -0.25807788914E+02  0.78540894645E+02  0.94949964612E+02  0.47000000000E+01 0.  1.
         13    1    6    6    0    0 -0.34620702781E+01 -0.17365760308E+02  0.18431608031E+02  0.25559337556E+02  0.00000000000E+00 0. -1.
        -14    1    6    6    0    0  0.58938110282E+02  0.57185118995E+02  0.95099857740E+01  0.82669695218E+02  0.00000000000E+00 0.  1.
</event>
<event>
12    1  0.1683022E-002  0.2154720E+03  0.7818608E-02  0.1137316E+00
         21   -1    0    0  501  502  0.00000000000E+00  0.00000000000E+00  0.12948644859E+03  0.12948644859E+03  0.00000000000E+00 0.  1.
         21   -1    0    0  502  503 -0.00000000000E+00 -0.00000000000E+00 -0.36102789196E+03  0.36102789196E+03  0.00000000000E+00 0.  1.
          6    2    1    2  501    0  0.92672837302E+02  0.90888430483E+02 -0.13644118873E+03  0.25498892134E+03  0.17191332251E+03 0.  0.
         24    2    3    3    0    0  0.87516382163E+02  0.11890237694E+03 -0.72539808942E+02  0.18486869199E+03  0.84365378019E+02 0.  0.
         -6    2    1    2    0  503 -0.92672837302E+02 -0.90888430483E+02 -0.95100254646E+02  0.23552541921E+03  0.17198605493E+03 0.  0.
        -24    2    5    5    0    0 -0.11721528532E+03 -0.32538056052E+02 -0.37309953484E+02  0.14968308199E+03  0.78834283160E+02 0.  0.
          5    1    3    3  501    0  0.51564551383E+01 -0.28013946455E+02 -0.63901379788E+02  0.70120229352E+02  0.47000000000E+01 0. -1.
        -11    1    4    4    0    0  0.62922973694E+02  0.17545991989E+02 -0.34308014892E+02  0.73784838139E+02  0.00000000000E+00 0.  1.
         12    1    4    4    0    0  0.24593408469E+02  0.10135638495E+03 -0.38231794050E+02  0.11108385385E+03  0.00000000000E+00 0. -1.
         -5    1    5    5    0  503  0.24542448013E+02 -0.58350374431E+02 -0.57790301162E+02  0.85842337219E+02  0.47000000000E+01 0.  1.
         13    1    6    6    0    0  0.68901237868E+01  0.10994053721E+02 -0.67013666437E-03  0.12974707067E+02  0.00000000000E+00 0. -1.
        -14    1    6    6    0    0 -0.12410540910E+03 -0.43532109773E+02 -0.37309283347E+02  0.13670837492E+03  0.00000000000E+00 0.  1.
</event>
<event>
12    1  0.1683022E-002  0.2208805E+03  0.7818608E-02  0.1133388E+00
         21   -1    0    0  503  502  0.00000000000E+00  0.00000000000E+00  0.10196631533E+03  0.10196631533E+03  0.00000000000E+00 0.  1.
         21   -1    0    0  501  503 -0.00000000000E+00 -0.00000000000E+00 -0.48262184613E+03  0.48262184613E+03  0.00000000000E+00 0.  1.
          6    2    1    2  501    0 -0.95787604073E+02  0.10079707585E+03 -0.22329892633E+03  0.31408692012E+03  0.17161837693E+03 0.  0.
         24    2    3    3    0    0 -0.12618735139E+03  0.46753310026E+02 -0.14163157771E+03  0.21143937222E+03  0.80857805259E+02 0.  0.
         -6    2    1    2    0  502  0.95787604073E+02 -0.10079707585E+03 -0.15735660448E+03  0.27050124133E+03  0.17051247754E+03 0.  0.
        -24    2    5    5    0    0  0.78233054880E+02 -0.65374677605E+02 -0.18298463946E+03  0.22315364718E+03  0.76940968447E+02 0.  0.
          5    1    3    3  501    0  0.30399747314E+02  0.54043765820E+02 -0.81667348620E+02  0.10264754791E+03  0.47000000000E+01 0. -1.
        -11    1    4    4    0    0 -0.12016377569E+03  0.54646420022E+02 -0.92190953635E+02  0.16101160250E+03  0.00000000000E+00 0.  1.
         12    1    4    4    0    0 -0.60235756998E+01 -0.78931099961E+01 -0.49440624073E+02  0.50427769714E+02  0.00000000000E+00 0. -1.
         -5    1    5    5    0  502  0.17554549193E+02 -0.35422398241E+02  0.25628034984E+02  0.47347594148E+02  0.47000000000E+01 0.  1.
         11    1    6    6    0    0  0.23677492764E+02 -0.40464072424E+02 -0.14444888557E+03  0.15186653800E+03  0.00000000000E+00 0. -1.
        -12    1    6    6    0    0  0.54555562116E+02 -0.24910605181E+02 -0.38535753887E+02  0.71287109185E+02  0.00000000000E+00 0.  1.
</event>
<event>
12    1  0.1683022E-002  0.2057895E+03  0.7818608E-02  0.1144980E+00
         21   -1    0    0  503  502  0.00000000000E+00  0.00000000000E+00  0.32116892451E+02  0.32116892451E+02  0.00000000000E+00 0.  1.
         21   -1    0    0  501  503 -0.00000000000E+00 -0.00000000000E+00 -0.17794897493E+04  0.17794897493E+04  0.00000000000E+00 0.  1.
          6    2    1    2  501    0  0.59157306009E+02 -0.94202113067E+02 -0.41186283241E+03  0.46033451965E+03  0.17292556867E+03 0.  0.
         24    2    3    3    0    0  0.13259721502E+02 -0.70541380553E+02 -0.10668035096E+03  0.15077861918E+03  0.78750162780E+02 0.  0.
         -6    2    1    2    0  502 -0.59157306009E+02  0.94202113067E+02 -0.13355100244E+04  0.13512721221E+04  0.17313491166E+03 0.  0.
        -24    2    5    5    0    0 -0.23562422590E+02 -0.72966398524E+00 -0.14370994708E+03  0.15515818422E+03  0.53533102574E+02 0.  0.
          5    1    3    3  501    0  0.45897584507E+02 -0.23660732515E+02 -0.30518248145E+03  0.30955590046E+03  0.47000000000E+01 0. -1.
        -11    1    4    4    0    0 -0.27660768458E+02 -0.56695661974E+02 -0.58000083865E+02  0.85694375117E+02  0.00000000000E+00 0.  1.
         12    1    4    4    0    0  0.40920489960E+02 -0.13845718578E+02 -0.48680267091E+02  0.65084244065E+02  0.00000000000E+00 0. -1.
         -5    1    5    5    0  502 -0.35594883419E+02  0.94931777053E+02 -0.11918000773E+04  0.11961139379E+04  0.47000000000E+01 0.  1.
         11    1    6    6    0    0  0.36108413784E+01  0.18464319257E+02 -0.21827221866E+02  0.28816607633E+02  0.00000000000E+00 0. -1.
        -12    1    6    6    0    0 -0.27173263968E+02 -0.19193983243E+02 -0.12188272522E+03  0.12634157658E+03  0.00000000000E+00 0.  1.
</event>
<event>
12    1  0.1683022E-002  0.2129793E+03  0.7818608E-02  0.1140264E+00
         21   -1    0    0  503  502  0.00000000000E+00  0.00000000000E+00  0.51693225295E+03  0.51693225295E+03  0.00000000000E+00 0. -1.
         21   -1    0    0  501  503 -0.00000000000E+00 -0.00000000000E+00 -0.88886959890E+02  0.88886959890E+02  0.00000000000E+00 0. -1.
          6    2    1    2  501    0 -0.54523467709E+02  0.10399149305E+03  0.15316180881E+03  0.25808207195E+03  0.17134986731E+03 0.  0.
         24    2    3    3    0    0 -0.51602350352E+02  0.52680148396E+00  0.11051432927E+03  0.14603577420E+03  0.80311582545E+02 0.  0.
         -6    2    1    2    0  502  0.54523467709E+02 -0.10399149305E+03  0.27488348425E+03  0.34773714089E+03  0.17768835100E+03 0.  0.
        -24    2    5    5    0    0  0.88485225556E+02 -0.92097339813E+02  0.13105483120E+03  0.19940089004E+03  0.79207266246E+02 0.  0.
          5    1    3    3  501    0 -0.29211173572E+01  0.10346469157E+03  0.42647479537E+02  0.11204629775E+03  0.47000000000E+01 0. -1.
        -11    1    4    4    0    0 -0.34793583189E+02 -0.35182041272E+02  0.34293929240E+02  0.60203347431E+02  0.00000000000E+00 0.  1.
         12    1    4    4    0    0 -0.16808767163E+02  0.35708842756E+02  0.76220400031E+02  0.85832426771E+02  0.00000000000E+00 0. -1.
         -5    1    5    5    0  502 -0.33961757846E+02 -0.11894153241E+02  0.14382865305E+03  0.14833625085E+03  0.47000000000E+01 0.  1.
         11    1    6    6    0    0  0.81665294097E+02 -0.97572256475E+02  0.13838522342E+03  0.18798945597E+03  0.00000000000E+00 0. -1.
        -12    1    6    6    0    0  0.68199314589E+01  0.54749166624E+01 -0.73303922193E+01  0.11411434075E+02  0.00000000000E+00 0.  1.
</event>
<event>
12    1  0.1683022E-002  0.2820148E+03  0.7818608E-02  0.1094874E+00
         21   -1    0    0  501  502  0.00000000000E+00  0.00000000000E+00  0.12988617427E+03  0.12988617427E+03  0.00000000000E+00 0.  1.
         21   -1    0    0  502  503 -0.00000000000E+00 -0.00000000000E+00 -0.64399079346E+03  0.64399079346E+03  0.00000000000E+00 0.  1.
          6    2    1    2  501    0  0.31089395091E+02  0.22066648691E+03 -0.16449165286E+03  0.32469816721E+03  0.16944363959E+03 0.  0.
         24    2    3    3    0    0 -0.35592004496E+02  0.67765524493E+02 -0.54343976631E+02  0.12474888880E+03  0.82158751004E+02 0.  0.
         -6    2    1    2    0  503 -0.31089395091E+02 -0.22066648691E+03 -0.34961296633E+03  0.44917880052E+03  0.17283552782E+03 0.  0.
        -24    2    5    5    0    0  0.33895365734E+02 -0.82521795287E+02 -0.21221985479E+03  0.24373797677E+03  0.80076163981E+02 0.  0.
          5    1    3    3  501    0  0.66681399587E+02  0.15290096242E+03 -0.11014767623E+03  0.19994927841E+03  0.47000000000E+01 0. -1.
        -11    1    4    4    0    0 -0.46547443937E+02  0.73803979784E+02 -0.21879634971E+02  0.89957825649E+02  0.00000000000E+00 0.  1.
         12    1    4    4    0    0  0.10955439441E+02 -0.60384552913E+01 -0.32464341659E+02  0.34791063149E+02  0.00000000000E+00 0. -1.
         -5    1    5    5    0  503 -0.64984760824E+02 -0.13814469163E+03 -0.13739311153E+03  0.20544082375E+03  0.47000000000E+01 0.  1.
         11    1    6    6    0    0  0.15341287477E+02  0.90187988349E+01 -0.86996951572E+01  0.19808546885E+02  0.00000000000E+00 0. -1.
        -12    1    6    6    0    0  0.18554078257E+02 -0.91540594121E+02 -0.20352015964E+03  0.22392942989E+03  0.00000000000E+00 0.  1.
</event>
<event>
12    1  0.1683022E-002  0.1876604E+03  0.7818608E-02  0.1161018E+00
         21   -1    0    0  503  502  0.00000000000E+00  0.00000000000E+00  0.10967413808E+03  0.10967413808E+03  0.00000000000E+00 0. -1.
         21   -1    0    0  501  503 -0.00000000000E+00 -0.00000000000E+00 -0.35505263786E+03  0.35505263786E+03  0.00000000000E+00 0. -1.
          6    2    1    2  501    0  0.73475910076E+02 -0.10180669161E+02 -0.46996001173E+02  0.19164793280E+03  0.17034656038E+03 0.  0.
         24    2    3    3    0    0  0.92824077755E+02 -0.96454870245E+01  0.17052900616E+02  0.12457342324E+03  0.80736556326E+02 0.  0.
         -6    2    1    2    0  502 -0.73475910076E+02  0.10180669161E+02 -0.19838249861E+03  0.27307884314E+03  0.17237773473E+03 0.  0.
        -24    2    5    5    0    0 -0.49374852790E+02  0.25876626802E+02 -0.31051397538E+02  0.10322887572E+03  0.81145151367E+02 0.  0.
          5    1    3    3  501    0 -0.19348167679E+02 -0.53518213615E+00 -0.64048901789E+02  0.67074509561E+02  0.47000000000E+01 0. -1.
        -11    1    4    4    0    0  0.28296816236E+02 -0.11087655027E+02  0.44949309110E+02  0.54259435055E+02  0.00000000000E+00 0.  1.
         12    1    4    4    0    0  0.64527261518E+02  0.14421680026E+01 -0.27896408493E+02  0.70313988185E+02  0.00000000000E+00 0. -1.
         -5    1    5    5    0  502 -0.24101057286E+02 -0.15695957641E+02 -0.16733110107E+03  0.16984996743E+03  0.47000000000E+01 0.  1.
         11    1    6    6    0    0 -0.32588195644E+02  0.41352027539E+02 -0.50710742452E+02  0.73099658528E+02  0.00000000000E+00 0. -1.
        -12    1    6    6    0    0 -0.16786657146E+02 -0.15475400737E+02  0.19659344913E+02  0.30129217191E+02  0.00000000000E+00 0.  1.
</event>
<event>
12    1  0.1683022E-002  0.2208658E+03  0.7818608E-02  0.1133420E+00
         21   -1    0    0  503  502  0.00000000000E+00  0.00000000000E+00  0.82284055639E+03  0.82284055639E+03  0.00000000000E+00 0.  1.
         21   -1    0    0  501  503 -0.00000000000E+00 -0.00000000000E+00 -0.63994177366E+02  0.63994177366E+02  0.00000000000E+00 0.  1.
          6    2    1    2  501    0 -0.10947698467E+03  0.84647024856E+02  0.25661480916E+03  0.33857475847E+03  0.17213767109E+03 0.  0.
         24    2    3    3    0    0 -0.12774536213E+03  0.25452199962E+02  0.15130185782E+03  0.21630183167E+03  0.83231833919E+02 0.  0.
         -6    2    1    2    0  502  0.10947698467E+03 -0.84647024856E+02  0.50223156987E+03  0.54825997528E+03  0.17088628306E+03 0.  0.
        -24    2    5    5    0    0  0.11761060083E+03 -0.56326874912E+02  0.49533699608E+03  0.51763626303E+03  0.74723429042E+02 0.  0.
          5    1    3    3  501    0  0.18268377456E+02  0.59194824895E+02  0.10531295134E+03  0.12227292680E+03  0.47000000000E+01 0. -1.
        -11    1    4    4    0    0 -0.10067025672E+03  0.57161937598E+01  0.15244807556E+03  0.18277743625E+03  0.00000000000E+00 0.  1.
         12    1    4    4    0    0 -0.27075105401E+02  0.19736006202E+02 -0.11462177417E+01  0.33524395422E+02  0.00000000000E+00 0. -1.
         -5    1    5    5    0  502 -0.81336161576E+01 -0.28320149945E+02  0.68945737846E+01  0.30623712256E+02  0.47000000000E+01 0.  1.
         11    1    6    6    0    0  0.27961809623E+02  0.18493496502E+02  0.10945711614E+03  0.11447590351E+03  0.00000000000E+00 0. -1.
        -12    1    6    6    0    0  0.89648791204E+02 -0.74820371413E+02  0.38587987994E+03  0.40316035952E+03  0.00000000000E+00 0.  1.
</event>
<event>
12    1  0.1683022E-002  0.1720379E+03  0.7818608E-02  0.1175770E+00
         21   -1    0    0  501  502  0.00000000000E+00  0.00000000000E+00  0.49815288437E+02  0.49815288437E+02  0.00000000000E+00 0. -1.
         21   -1    0    0  502  503 -0.00000000000E+00 -0.00000000000E+00 -0.72455452566E+03  0.72455452566E+03  0.00000000000E+00 0. -1.
          6    2    1    2  501    0 -0.28888622168E+01 -0.46122464652E+01 -0.17293612827E+03  0.24393428212E+03  0.17195176995E+03 0.  0.
         24    2    3    3    0    0  0.33971300175E+02  0.51985556900E+02 -0.67282988601E+02  0.11844859034E+03  0.75143333954E+02 0.  0.
         -6    2    1    2    0  503  0.28888622168E+01  0.46122464652E+01 -0.50180310895E+03  0.53043553198E+03  0.17183094916E+03 0.  0.
        -24    2    5    5    0    0 -0.67243776430E+00  0.71001872776E+02 -0.32046375730E+03  0.33723533582E+03  0.77388202407E+02 0.  0.
          5    1    3    3  501    0 -0.36860162392E+02 -0.56597803365E+02 -0.10565313967E+03  0.12548569177E+03  0.47000000000E+01 0. -1.
        -11    1    4    4    0    0  0.51531372078E+02  0.28117780124E+02 -0.66641944937E+02  0.88810138455E+02  0.00000000000E+00 0.  1.
         12    1    4    4    0    0 -0.17560071903E+02  0.23867776776E+02 -0.64104366348E+00  0.29638451890E+02  0.00000000000E+00 0. -1.
         -5    1    5    5    0  503  0.35612999811E+01 -0.66389626311E+02 -0.18133935165E+03  0.19320019616E+03  0.47000000000E+01 0.  1.
         13    1    6    6    0    0 -0.31098334133E+02  0.15866764879E+02 -0.61438210392E+02  0.70664802481E+02  0.00000000000E+00 0. -1.
        -14    1    6    6    0    0  0.30425896369E+02  0.55135107897E+02 -0.25902554691E+03  0.26657053334E+03  0.00000000000E+00 0.  1.
</event>
<event>
12    1  0.1683022E-002  0.1732383E+03  0.7818608E-02  0.1177651E+00
         21   -1    0    0  501  502  0.00000000000E+00  0.00000000000E+00  0.50088185649E+02  0.50088185649E+02  0.00000000000E+00 0.  1.
         21   -1    0    0  502  503 -0.00000000000E+00 -0.00000000000E+00 -0.56070863610E+03  0.56070863610E+03  0.00000000000E+00 0.  1.
          6    2    1    2  501    0  0.17564948067E+02  0.10289834847E+02 -0.26409994184E+03  0.30949318567E+03  0.16007137344E+03 0.  0.
         24    2    3    3    0    0  0.38043621223E+02  0.84234420808E+01 -0.64978225333E+02  0.10925730612E+03  0.78719233230E+02 0.  0.
         -6    2    1    2    0  503 -0.17564948067E+02 -0.10289834847E+02 -0.24652050860E+03  0.30130363607E+03  0.17203811161E+03 0.  0.
        -24    2    5    5    0    0  0.45744344561E+02 -0.36301640794E+02 -0.10729491267E+03  0.14609236990E+03  0.80127573754E+02 0.  0.
          5    1    3    3  501    0 -0.20478673156E+02  0.18663927659E+01 -0.19912171651E+03  0.20023587956E+03  0.47000000000E+01 0. -1.
        -13    1    4    4    0    0  0.13092116212E+02  0.37223625427E+02 -0.73000652093E+01  0.40128453108E+02  0.00000000000E+00 0.  1.
         14    1    4    4    0    0  0.24951505011E+02 -0.28800183346E+02 -0.57678160124E+02  0.69128853009E+02  0.00000000000E+00 0. -1.
         -5    1    5    5    0  503 -0.63309292628E+02  0.26011805947E+02 -0.13922559593E+03  0.15521126617E+03  0.47000000000E+01 0.  1.
         11    1    6    6    0    0 -0.20358638868E+02 -0.71849179203E+01 -0.74072663524E+01  0.22824653708E+02  0.00000000000E+00 0. -1.
        -12    1    6    6    0    0  0.66102983430E+02 -0.29116722874E+02 -0.99887646317E+02  0.12326771619E+03  0.00000000000E+00 0.  1.
</event>
<event>
12    1  0.1683022E-002  0.1854578E+03  0.7818608E-02  0.1164390E+00
         21   -1    0    0  501  502  0.00000000000E+00  0.00000000000E+00  0.10581364154E+03  0.10581364154E+03  0.00000000000E+00 0.  1.
         21   -1    0    0  502  503 -0.00000000000E+00 -0.00000000000E+00 -0.34395145787E+03  0.34395145787E+03  0.00000000000E+00 0.  1.
          6    2    1    2  501    0 -0.45614681072E+02 -0.53458371888E+02 -0.48499663683E+02  0.18451576947E+03  0.16357064270E+03 0.  0.
         24    2    3    3    0    0 -0.10496347062E+02 -0.74231743246E+02  0.14092648728E+02  0.10965110548E+03  0.78766980257E+02 0.  0.
         -6    2    1    2    0  503  0.45614681072E+02  0.53458371888E+02 -0.18963815265E+03  0.26524932994E+03  0.17162774088E+03 0.  0.
        -24    2    5    5    0    0  0.77630813752E+02  0.84464028739E+02 -0.13292113792E+03  0.19296313992E+03  0.80037672790E+02 0.  0.
          5    1    3    3  501    0 -0.35118334010E+02  0.20773371358E+02 -0.62592312411E+02  0.74864663989E+02  0.47000000000E+01 0. -1.
        -13    1    4    4    0    0 -0.12447958178E+02  0.13492838229E+02  0.11900152035E+02  0.21877430487E+02  0.00000000000E+00 0.  1.
         14    1    4    4    0    0  0.19516111162E+01 -0.87724581475E+02  0.21924966927E+01  0.87773674998E+02  0.00000000000E+00 0. -1.
         -5    1    5    5    0  503 -0.32016132680E+02 -0.31005656851E+02 -0.56717014724E+02  0.72286190022E+02  0.47000000000E+01 0.  1.
         11    1    6    6    0    0  0.31958556802E+02 -0.10709611975E+02 -0.24739901387E+02  0.41810379837E+02  0.00000000000E+00 0. -1.
        -12    1    6    6    0    0  0.45672256950E+02  0.95173640714E+02 -0.10818123654E+03  0.15115276008E+03  0.00000000000E+00 0.  1.
</event>
<event>
12    1  0.1683022E-002  0.2071578E+03  0.7818608E-02  0.1144061E+00
         21   -1    0    0  501  502  0.00000000000E+00  0.00000000000E+00  0.72728903258E+03  0.72728903258E+03  0.00000000000E+00 0. -1.
         21   -1    0    0  502  503 -0.00000000000E+00 -0.00000000000E+00 -0.81362359738E+02  0.81362359738E+02  0.00000000000E+00 0. -1.
          6    2    1    2  501    0 -0.95877233434E+02  0.61463540367E+02  0.53577165888E+03  0.57402726753E+03  0.17171436379E+03 0.  0.
         24    2    3    3    0    0 -0.47721846172E+02  0.13157773933E+02  0.46982557937E+03  0.47903587953E+03  0.79301937102E+02 0.  0.
         -6    2    1    2    0  503  0.95877233434E+02 -0.61463540367E+02  0.11015501396E+03  0.23462412478E+03  0.17304375788E+03 0.  0.
        -24    2    5    5    0    0  0.83680127971E+02 -0.10591360264E+03  0.10394564524E+03  0.18787774869E+03  0.79204142869E+02 0.  0.
          5    1    3    3  501    0 -0.48155387263E+02  0.48305766434E+02  0.65946079506E+02  0.94991388007E+02  0.47000000000E+01 0. -1.
        -13    1    4    4    0    0  0.89107900030E+01 -0.24047583143E+02  0.13791734350E+03  0.14028143880E+03  0.00000000000E+00 0.  1.
         14    1    4    4    0    0 -0.56632636175E+02  0.37205357076E+02  0.33190823587E+03  0.33875444072E+03  0.00000000000E+00 0. -1.
         -5    1    5    5    0  503  0.12197105463E+02  0.44450062271E+02  0.62093687231E+01  0.46746376089E+02  0.47000000000E+01 0.  1.
         11    1    6    6    0    0  0.37495395034E+02  0.30575750955E+01  0.31865793591E+02  0.49301949408E+02  0.00000000000E+00 0. -1.
        -12    1    6    6    0    0  0.46184732937E+02 -0.10897117773E+03  0.72079851648E+02  0.13857579928E+03  0.00000000000E+00 0.  1.
</event>
<event>
12    1  0.1683022E-002  0.1848667E+03  0.7818608E-02  0.1163194E+00
         21   -1    0    0  501  502  0.00000000000E+00  0.00000000000E+00  0.13795204874E+03  0.13795204874E+03  0.00000000000E+00 0.  1.
         21   -1    0    0  502  503 -0.00000000000E+00 -0.00000000000E+00 -0.26150778156E+03  0.26150778156E+03  0.00000000000E+00 0.  1.
          6    2    1    2  501    0 -0.60045571170E+02 -0.30239037900E+02 -0.15744653744E+02  0.18545300991E+03  0.17211930377E+03 0.  0.
         24    2    3    3    0    0  0.26208128798E+02  0.18338485925E+02 -0.19892347125E+00  0.85137326643E+02  0.78899675134E+02 0.  0.
         -6    2    1    2    0  503  0.60045571170E+02  0.30239037900E+02 -0.10781107907E+03  0.21400682040E+03  0.17220865360E+03 0.  0.
        -24    2    5    5    0    0  0.25524098981E+02 -0.65161742328E+01  0.12007193762E+02  0.83925360665E+02  0.78774064928E+02 0.  0.
          5    1    3    3  501    0 -0.86253699968E+02 -0.48577523825E+02 -0.15545730272E+02  0.10031568326E+03  0.47000000000E+01 0. -1.
        -11    1    4    4    0    0  0.15930951607E+01 -0.30287172250E+02 -0.35350172212E+01  0.30534359366E+02  0.00000000000E+00 0.  1.
         12    1    4    4    0    0  0.24615033637E+02  0.48625658176E+02  0.33360937500E+01  0.54602967277E+02  0.00000000000E+00 0. -1.
         -5    1    5    5    0  503  0.34521472189E+02  0.36755212133E+02 -0.11981827284E+03  0.13008145973E+03  0.47000000000E+01 0.  1.
         13    1    6    6    0    0  0.74661481888E+01 -0.44089327714E+01  0.45229890802E+02  0.46053502353E+02  0.00000000000E+00 0. -1.
        -14    1    6    6    0    0  0.18057950792E+02 -0.21072414614E+01 -0.33222697040E+02  0.37871858312E+02  0.00000000000E+00 0.  1.
</event>
<event>
12    1  0.1683022E-002  0.2444500E+03  0.7818608E-02  0.1116930E+00
         21   -1    0    0  501  502  0.00000000000E+00  0.00000000000E+00  0.12099208433E+04  0.12099208433E+04  0.00000000000E+00 0.  1.
         21   -1    0    0  502  503 -0.00000000000E+00 -0.00000000000E+00 -0.53714417065E+02  0.53714417065E+02  0.00000000000E+00 0. -1.
          6    2    1    2  501    0 -0.15917608064E+03  0.66763657770E+02  0.75867813527E+03  0.79696131963E+03  0.17251209060E+03 0.  0.
         24    2    3    3    0    0 -0.17702964783E+03  0.42319015006E+02  0.72329760104E+03  0.75016214630E+03  0.80333248638E+02 0.  0.
         -6    2    1    2    0  503  0.15917608064E+03 -0.66763657770E+02  0.39752829094E+03  0.46667394071E+03  0.17309365729E+03 0.  0.
        -24    2    5    5    0    0  0.16767136609E+02 -0.52527656929E+02  0.20240794504E+03  0.22464706112E+03  0.80355673369E+02 0.  0.
          5    1    3    3  501    0  0.17853567194E+02  0.24444642764E+02  0.35380534233E+02  0.46799173326E+02  0.47000000000E+01 0. -1.
        -11    1    4    4    0    0 -0.23660950385E+02 -0.57113991570E+01  0.23138059558E+03  0.23265734604E+03  0.00000000000E+00 0.  1.
         12    1    4    4    0    0 -0.15336869745E+03  0.48030414163E+02  0.49191700546E+03  0.51750480027E+03  0.00000000000E+00 0. -1.
         -5    1    5    5    0  503  0.14240894403E+03 -0.14236000841E+02  0.19512034590E+03  0.24202687959E+03  0.47000000000E+01 0.  1.
         11    1    6    6    0    0  0.33280890650E+02 -0.65137284109E+02  0.12835548582E+03  0.14773494577E+03  0.00000000000E+00 0. -1.
        -12    1    6    6    0    0 -0.16513754041E+02  0.12609627180E+02  0.74052459226E+02  0.76912115350E+02  0.00000000000E+00 0.  1.
</event>
<event>
12    1  0.1683022E-002  0.2034621E+03  0.7818608E-02  0.1147192E+00
         21   -1    0    0  501  502  0.00000000000E+00  0.00000000000E+00  0.68060701453E+03  0.68060701453E+03  0.00000000000E+00 0.  1.
         21   -1    0    0  502  503 -0.00000000000E+00 -0.00000000000E+00 -0.61580600197E+02  0.61580600197E+02  0.00000000000E+00 0. -1.
          6    2    1    2  501    0  0.10630954064E+03 -0.20643464361E+02  0.36360663390E+03  0.41666127292E+03  0.17224680284E+03 0.  0.
         24    2    3    3    0    0  0.10511551515E+03  0.42451539825E+02  0.27085093765E+03  0.30437541256E+03  0.80204467391E+02 0.  0.
         -6    2    1    2    0  503 -0.10630954064E+03  0.20643464361E+02  0.25541978044E+03  0.32552634180E+03  0.17029463855E+03 0.  0.
        -24    2    5    5    0    0 -0.11437805773E+02 -0.28413627867E+02  0.16269331843E+03  0.18400768180E+03  0.80321562794E+02 0.  0.
          5    1    3    3  501    0  0.11940254877E+01 -0.63095004186E+02  0.92755696250E+02  0.11228586036E+03  0.47000000000E+01 0. -1.
        -11    1    4    4    0    0  0.98441866696E+02  0.32802154109E+01  0.20564111744E+03  0.22801278498E+03  0.00000000000E+00 0.  1.
         12    1    4    4    0    0  0.66736484525E+01  0.39171324414E+02  0.65209820211E+02  0.76362627587E+02  0.00000000000E+00 0. -1.
         -5    1    5    5    0  503 -0.94871734863E+02  0.49057092228E+02  0.92726462009E+02  0.14151866001E+03  0.47000000000E+01 0.  1.
         13    1    6    6    0    0 -0.46160939288E+02 -0.13053754274E+02  0.92948975776E+02  0.10459801582E+03  0.00000000000E+00 0. -1.
        -14    1    6    6    0    0  0.34723133515E+02 -0.15359873593E+02  0.69744342651E+02  0.79409665971E+02  0.00000000000E+00 0.  1.
</event>
<event>
12    1  0.1683022E-002  0.1927779E+03  0.7818608E-02  0.1156200E+00
         21   -1    0    0  501  502  0.00000000000E+00  0.00000000000E+00  0.64669147564E+03  0.64669147564E+03  0.00000000000E+00 0. -1.
         21   -1    0    0  502  503 -0.00000000000E+00 -0.00000000000E+00 -0.91030644259E+02  0.91030644259E+02  0.00000000000E+00 0. -1.
          6    2    1    2  501    0  0.46529345266E+02 -0.74496153202E+02  0.50324474258E+03  0.53890498644E+03  0.17160610905E+03 0.  0.
         24    2    3    3    0    0 -0.27647732268E+02 -0.80443292261E+02  0.31984372574E+03  0.34092612324E+03  0.81823543350E+02 0.  0.
         -6    2    1    2    0  503 -0.46529345266E+02  0.74496153202E+02  0.52416088805E+02  0.19881713346E+03  0.17048797430E+03 0.  0.
        -24    2    5    5    0    0 -0.34251374502E+02  0.96065488964E+02 -0.83522974970E+01  0.13300777558E+03  0.84968068505E+02 0.  0.
          5    1    3    3  501    0  0.74177077534E+02  0.59471390599E+01  0.18340101684E+03  0.19797886320E+03  0.47000000000E+01 0. -1.
        -13    1    4    4    0    0  0.27144524757E+01 -0.60728575974E+02  0.92294148626E+02  0.11051487711E+03  0.00000000000E+00 0.  1.
         14    1    4    4    0    0 -0.30362184744E+02 -0.19714716287E+02  0.22754957711E+03  0.23041124613E+03  0.00000000000E+00 0. -1.
         -5    1    5    5    0  503 -0.12277970764E+02 -0.21569335762E+02  0.60768386302E+02  0.65809357883E+02  0.47000000000E+01 0.  1.
         13    1    6    6    0    0 -0.16831675160E+02 -0.68708478498E+01 -0.21078005373E+02  0.27835160308E+02  0.00000000000E+00 0. -1.
        -14    1    6    6    0    0 -0.17419699342E+02  0.10293633681E+03  0.12725707876E+02  0.10517261527E+03  0.00000000000E+00 0.  1.
</event>
<event>
12    1  0.1683022E-002  0.1883173E+03  0.7818608E-02  0.1160432E+00
         21   -1    0    0  503  502  0.00000000000E+00  0.00000000000E+00  0.10407259342E+03  0.10407259342E+03  0.00000000000E+00 0. -1.
         21   -1    0    0  501  503 -0.00000000000E+00 -0.00000000000E+00 -0.34640024917E+03  0.34640024917E+03  0.00000000000E+00 0. -1.
          6    2    1    2  501    0 -0.55908500677E+02 -0.43169906168E+02 -0.15836443799E+03  0.24605428419E+03  0.17456807927E+03 0.  0.
         24    2    3    3    0    0 -0.35182587903E+01 -0.17251991151E+02 -0.40774781054E+01  0.80999651553E+02  0.78957636619E+02 0.  0.
         -6    2    1    2    0  502  0.55908500677E+02  0.43169906168E+02 -0.83963217763E+02  0.20441855841E+03  0.17247528472E+03 0.  0.
        -24    2    5    5    0    0  0.51465537602E+02 -0.18590233480E+02 -0.10078320248E+03  0.14008305766E+03  0.80446944010E+02 0.  0.
          5    1    3    3  501    0 -0.52390241887E+02 -0.25917915018E+02 -0.15428695988E+03  0.16505463263E+03  0.47000000000E+01 0. -1.
        -13    1    4    4    0    0  0.25273946205E+02 -0.37550761835E+02 -0.63049248874E+01  0.45701030065E+02  0.00000000000E+00 0.  1.
         14    1    4    4    0    0 -0.28792204996E+02  0.20298770684E+02  0.22274467821E+01  0.35298621488E+02  0.00000000000E+00 0. -1.
         -5    1    5    5    0  502  0.44429630758E+01  0.61760139648E+02  0.16819984717E+02  0.64335500745E+02  0.47000000000E+01 0.  1.
         11    1    6    6    0    0  0.11420337266E+02  0.28765696152E+02 -0.15444112174E+02  0.34589159851E+02  0.00000000000E+00 0. -1.
        -12    1    6    6    0    0  0.40045200336E+02 -0.47355929632E+02 -0.85339090306E+02  0.10549389781E+03  0.00000000000E+00 0.  1.
</event>
<event>
12    1  0.1683022E-002  0.1758785E+03  0.7818608E-02  0.1171957E+00
         21   -1    0    0  501  502  0.00000000000E+00  0.00000000000E+00  0.15252558938E+03  0.15252558938E+03  0.00000000000E+00 0. -1.
         21   -1    0    0  502  503 -0.00000000000E+00 -0.00000000000E+00 -0.20236139542E+03  0.20236139542E+03  0.00000000000E+00 0. -1.
          6    2    1    2  501    0 -0.71307615941E+01 -0.30157509289E+02 -0.22559990495E+02  0.17731952857E+03  0.17312694451E+03 0.  0.
         24    2    3    3    0    0 -0.95331626249E+00 -0.82566154485E+02  0.89225124954E+01  0.11569108614E+03  0.80540284981E+02 0.  0.
         -6    2    1    2    0  503  0.71307615941E+01  0.30157509289E+02 -0.27275815547E+02  0.17756745623E+03  0.17270179000E+03 0.  0.
        -24    2    5    5    0    0  0.18899095526E+02  0.84609997555E+02 -0.26617514162E+02  0.12165600371E+03  0.81090466026E+02 0.  0.
          5    1    3    3  501    0 -0.61774453316E+01  0.52408645196E+02 -0.31482502990E+02  0.61628442432E+02  0.47000000000E+01 0. -1.
        -11    1    4    4    0    0  0.12938438059E+02 -0.86206851695E+02 -0.14348731050E+02  0.88345404755E+02  0.00000000000E+00 0.  1.
         12    1    4    4    0    0 -0.13891754321E+02  0.36406972100E+01  0.23271243545E+02  0.27345681386E+02  0.00000000000E+00 0. -1.
         -5    1    5    5    0  503 -0.11768333932E+02 -0.54452488265E+02 -0.65830138539E+00  0.55911452517E+02  0.47000000000E+01 0.  1.
         11    1    6    6    0    0  0.23035939652E+02 -0.87182914326E+01 -0.42704290065E+00  0.24634234041E+02  0.00000000000E+00 0. -1.
        -12    1    6    6    0    0 -0.41368441254E+01  0.93328288987E+02 -0.26190471261E+02  0.97021769668E+02  0.00000000000E+00 0.  1.
</event>
<event>
12    1  0.1683022E-002  0.2230609E+03  0.7818608E-02  0.1131666E+00
         21   -1    0    0  503  502  0.00000000000E+00  0.00000000000E+00  0.55645610913E+02  0.55645610913E+02  0.00000000000E+00 0. -1.
         21   -1    0    0  501  503 -0.00000000000E+00 -0.00000000000E+00 -0.97196534214E+03  0.97196534214E+03  0.00000000000E+00 0. -1.
          6    2    1    2  501    0 -0.10916383823E+03 -0.90391155565E+02 -0.31211821791E+03  0.38363255395E+03  0.17224648013E+03 0.  0.
         24    2    3    3    0    0 -0.62040071179E+02 -0.86341229056E+02 -0.30864204779E+03  0.33597518218E+03  0.79470945063E+02 0.  0.
         -6    2    1    2    0  502  0.10916383823E+03  0.90391155565E+02 -0.60420151331E+03  0.64397839910E+03  0.17193430501E+03 0.  0.
        -24    2    5    5    0    0  0.98758482413E+02  0.11592737406E+03 -0.36762186061E+03  0.40575079374E+03  0.79344062892E+02 0.  0.
          5    1    3    3  501    0 -0.47123767047E+02 -0.40499265089E+01 -0.34761701220E+01  0.47657371771E+02  0.47000000000E+01 0. -1.
        -13    1    4    4    0    0 -0.60716461753E+02 -0.16986496489E+02 -0.13529447929E+03  0.14926361217E+03  0.00000000000E+00 0.  1.
         14    1    4    4    0    0 -0.13236094257E+01 -0.69354732567E+02 -0.17334756850E+03  0.18671157001E+03  0.00000000000E+00 0. -1.
         -5    1    5    5    0  502  0.10405355812E+02 -0.25536218492E+02 -0.23657965270E+03  0.23822760537E+03  0.47000000000E+01 0.  1.
         13    1    6    6    0    0  0.50857430535E+02  0.79414570063E+02 -0.30334037464E+03  0.31766103801E+03  0.00000000000E+00 0. -1.
        -14    1    6    6    0    0  0.47901051878E+02  0.36512803994E+02 -0.64281485964E+02  0.88089755729E+02  0.00000000000E+00 0.  1.
</event>
<event>
12    1  0.1683022E-002  0.1972588E+03  0.7818608E-02  0.1152245E+00
         21   -1    0    0  501  502  0.00000000000E+00  0.00000000000E+00  0.18504165884E+03  0.18504165884E+03  0.00000000000E+00 0.  1.
         21   -1    0    0  502  503 -0.00000000000E+00 -0.00000000000E+00 -0.23654560740E+03  0.23654560740E+03  0.00000000000E+00 0.  1.
          6    2    1    2  501    0 -0.57857524973E+02 -0.74530659401E+02 -0.97171202860E+02  0.21989380960E+03  0.17323028734E+03 0.  0.
         24    2    3    3    0    0  0.19743726751E+02 -0.18299132086E+02 -0.88718103806E+02  0.12357411371E+03  0.81700591524E+02 0.  0.
         -6    2    1    2    0  503  0.57857524973E+02  0.74530659401E+02  0.45667254298E+02  0.20169345663E+03  0.17231494406E+03 0.  0.
        -24    2    5    5    0    0  0.70464623973E+02 -0.63569060384E+01 -0.48218699284E+01  0.10539714906E+03  0.77972014939E+02 0.  0.
          5    1    3    3  501    0 -0.77601251724E+02 -0.56231527315E+02 -0.84530990538E+01  0.96319695893E+02  0.47000000000E+01 0. -1.
        -13    1    4    4    0    0  0.15387393962E+02 -0.35729746154E+02 -0.65317250526E+01  0.39446800698E+02  0.00000000000E+00 0.  1.
         14    1    4    4    0    0  0.43563327894E+01  0.17430614068E+02 -0.82186378753E+02  0.84127313013E+02  0.00000000000E+00 0. -1.
         -5    1    5    5    0  503 -0.12607099000E+02  0.80887565439E+02  0.50489124226E+02  0.96296307577E+02  0.47000000000E+01 0.  1.
         11    1    6    6    0    0  0.27773074027E+02  0.22035438579E+02 -0.31655675950E+02  0.47528791423E+02  0.00000000000E+00 0. -1.
        -12    1    6    6    0    0  0.42691549946E+02 -0.28392344617E+02  0.26833806021E+02  0.57868357634E+02  0.00000000000E+00 0.  1.
</event>
<event>
12    1  0.1683022E-002  0.2268485E+03  0.7818608E-02  0.1129224E+00
         21   -1    0    0  503  502  0.00000000000E+00  0.00000000000E+00  0.39093621686E+03  0.39093621686E+03  0.00000000000E+00 0. -1.
         21   -1    0    0  501  503 -0.00000000000E+00 -0.00000000000E+00 -0.14758025606E+03  0.14758025606E+03  0.00000000000E+00 0. -1.
          6    2    1    2  501    0 -0.14256298391E+03 -0.26115017294E+02  0.30590838459E+02  0.22890177778E+03  0.17451081905E+03 0.  0.
         24    2    3    3    0    0 -0.14636476648E+02 -0.45533577923E+02  0.34428351243E+02  0.99367657717E+02  0.80006792610E+02 0.  0.
         -6    2    1    2    0  502  0.14256298391E+03  0.26115017294E+02  0.21276512234E+03  0.30961469514E+03  0.17200599889E+03 0.  0.
        -24    2    5    5    0    0  0.30088109127E+02  0.48670208169E+02  0.39110604553E+02  0.10143853022E+03  0.74067891498E+02 0.  0.
          5    1    3    3  501    0 -0.12792650726E+03  0.19418560629E+02 -0.38375127844E+01  0.12953412007E+03  0.47000000000E+01 0. -1.
        -11    1    4    4    0    0  0.23369152712E+02  0.58562869247E+01 -0.45297790741E+01  0.24513920402E+02  0.00000000000E+00 0.  1.
         12    1    4    4    0    0 -0.38005629360E+02 -0.51389864848E+02  0.38958130317E+02  0.74853737314E+02  0.00000000000E+00 0. -1.
         -5    1    5    5    0  502  0.11247487478E+03 -0.22555190875E+02  0.17365451779E+03  0.20817616492E+03  0.47000000000E+01 0.  1.
         13    1    6    6    0    0  0.12417016240E+02  0.18487689251E+02  0.57686795344E+02  0.61836423758E+02  0.00000000000E+00 0. -1.
        -14    1    6    6    0    0  0.17671092887E+02  0.30182518917E+02 -0.18576190791E+02  0.39602106463E+02  0.00000000000E+00 0.  1.
</event>
<event>
12    1  0.1683022E-002  0.1950199E+03  0.7818608E-02  0.1157133E+00
         21   -1    0    0  503  502  0.00000000000E+00  0.00000000000E+00  0.19701984014E+03  0.19701984014E+03  0.00000000000E+00 0.  1.
         21   -1    0    0  501  503 -0.00000000000E+00 -0.00000000000E+00 -0.19701433123E+03  0.19701433123E+03  0.00000000000E+00 0.  1.
          6    2    1    2  501    0  0.72204966945E+01  0.92035870777E+02 -0.58463850164E+02  0.20359464292E+03  0.17178480656E+03 0.  0.
         24    2    3    3    0    0  0.50286726890E+02  0.10885271959E+03 -0.26462896673E+02  0.14717073299E+03  0.81125028718E+02 0.  0.
         -6    2    1    2    0  502 -0.72204966945E+01 -0.92035870777E+02  0.58469359070E+02  0.19043952846E+03  0.15596733942E+03 0.  0.
        -24    2    5    5    0    0  0.37461368981E+02 -0.96308691619E+02  0.21981659189E+02  0.13240360544E+03  0.79804781466E+02 0.  0.
          5    1    3    3  501    0 -0.43066230195E+02 -0.16816848814E+02 -0.32000953491E+02  0.56423909928E+02  0.47000000000E+01 0. -1.
        -11    1    4    4    0    0  0.52013510393E+02  0.51703077518E+02 -0.46207402329E+02  0.86681817691E+02  0.00000000000E+00 0.  1.
         12    1    4    4    0    0 -0.17267835033E+01  0.57149642073E+02  0.19744505655E+02  0.60488915298E+02  0.00000000000E+00 0. -1.
         -5    1    5    5    0  502 -0.44681865675E+02  0.42728208428E+01  0.36487699882E+02  0.58035923020E+02  0.47000000000E+01 0.  1.
         11    1    6    6    0    0 -0.93410639262E+01 -0.73101215020E+02 -0.45032898151E+01  0.73833073429E+02  0.00000000000E+00 0. -1.
        -12    1    6    6    0    0  0.46802432907E+02 -0.23207476599E+02  0.26484949004E+02  0.58570532009E+02  0.00000000000E+00 0.  1.
</event>
<event>
12    1  0.1683022E-002  0.2970934E+03  0.7818608E-02  0.1086710E+00
         21   -1    0    0  503  502  0.00000000000E+00  0.00000000000E+00  0.10125325174E+03  0.10125325174E+03  0.00000000000E+00 0.  1.
         21   -1    0    0  501  503 -0.00000000000E+00 -0.00000000000E+00 -0.88350600391E+03  0.88350600391E+03  0.00000000000E+00 0. -1.
          6    2    1    2  501    0  0.19555452583E+03  0.14247409003E+03 -0.33378191652E+03  0.44680888837E+03  0.17230024965E+03 0.  0.
         24    2    3    3    0    0  0.79060706960E+02  0.12643851157E+03 -0.25334141976E+03  0.30425814958E+03  0.78446504235E+02 0.  0.
         -6    2    1    2    0  502 -0.19555452583E+03 -0.14247409003E+03 -0.44847083566E+03  0.53795036729E+03  0.17240669455E+03 0.  0.
        -24    2    5    5    0    0 -0.14567468399E+03 -0.36980566338E+02 -0.33099789787E+03  0.37230356450E+03  0.80384450613E+02 0.  0.
          5    1    3    3  501    0  0.11649381887E+03  0.16035578457E+02 -0.80440496755E+02  0.14255073879E+03  0.47000000000E+01 0. -1.
        -11    1    4    4    0    0  0.91317188546E+02  0.83209164099E+02 -0.18360444900E+03  0.22129886490E+03  0.00000000000E+00 0.  1.
         12    1    4    4    0    0 -0.12256481586E+02  0.43229347469E+02 -0.69736970765E+02  0.82959284682E+02  0.00000000000E+00 0. -1.
         -5    1    5    5    0  502 -0.49879841833E+02 -0.10549352369E+03 -0.11747293779E+03  0.16564680279E+03  0.47000000000E+01 0.  1.
         13    1    6    6    0    0 -0.97617158503E+02 -0.56259762579E+02 -0.17684548577E+03  0.20968690078E+03  0.00000000000E+00 0. -1.
        -14    1    6    6    0    0 -0.48057525490E+02  0.19279196242E+02 -0.15415241210E+03  0.16261666372E+03  0.00000000000E+00 0.  1.
</event>
<event>
12    1  0.1683022E-002  0.1755595E+03  0.7818608E-02  0.1172522E+00
         21   -1    0    0  501  502  0.00000000000E+00  0.00000000000E+00  0.23052104039E+03  0.23052104039E+03  0.00000000000E+00 0. -1.
         21   -1    0    0  502  503 -0.00000000000E+00 -0.00000000000E+00 -0.19363122225E+03  0.19363122225E+03  0.00000000000E+00 0. -1.
          6    2    1    2  501    0 -0.29700885058E+02  0.12786548904E+02  0.13741946343E+03  0.22184719120E+03  0.17113278151E+03 0.  0.
         24    2    3    3    0    0 -0.77467427622E+01  0.49851830346E+02  0.19014440075E+02  0.95761272052E+02  0.79141994424E+02 0.  0.
         -6    2    1    2    0  503  0.29700885058E+02 -0.12786548904E+02 -0.10052964529E+03  0.20230507144E+03  0.17255577052E+03 0.  0.
        -24    2    5    5    0    0  0.16265039427E+02 -0.32733409403E+02 -0.13292360122E+03  0.16168663262E+03  0.84485831988E+02 0.  0.
          5    1    3    3  501    0 -0.21954142296E+02 -0.37065281442E+02  0.11840502335E+03  0.12608591915E+03  0.47000000000E+01 0. -1.
        -11    1    4    4    0    0  0.13040273009E+02 -0.16349241742E+02 -0.63926861980E+01  0.21868078619E+02  0.00000000000E+00 0.  1.
         12    1    4    4    0    0 -0.20787015771E+02  0.66201072088E+02  0.25407126273E+02  0.73893193433E+02  0.00000000000E+00 0. -1.
         -5    1    5    5    0  503  0.13435845631E+02  0.19946860499E+02  0.32393955929E+02  0.40618438822E+02  0.47000000000E+01 0.  1.
         13    1    6    6    0    0  0.51094626105E+02 -0.18804039243E+02 -0.75026615627E+02  0.92699761386E+02  0.00000000000E+00 0. -1.
        -14    1    6    6    0    0 -0.34829586679E+02 -0.13929370160E+02 -0.57896985592E+02  0.68986871229E+02  0.00000000000E+00 0.  1.
</event>
<event>
12    1  0.1683022E-002  0.2535011E+03  0.7818608E-02  0.1112157E+00
         21   -1    0    0  501  502  0.00000000000E+00  0.00000000000E+00  0.61521804885E+03  0.61521804885E+03  0.00000000000E+00 0. -1.
         21   -1    0    0  502  503 -0.00000000000E+00 -0.00000000000E+00 -0.11893336924E+03  0.11893336924E+03  0.00000000000E+00 0.  1.
          6    2    1    2  501    0 -0.13583013426E+02 -0.17863335554E+03  0.39052593405E+03  0.46558919473E+03  0.17935556617E+03 0.  0.
         24    2    3    3    0    0  0.14097545690E+02 -0.74746676747E+02  0.31480347064E+03  0.33400410116E+03  0.81680523913E+02 0.  0.
         -6    2    1    2    0  503  0.13583013426E+02  0.17863335554E+03  0.10575874556E+03  0.26856222336E+03  0.16984222557E+03 0.  0.
        -24    2    5    5    0    0  0.53938240647E+02  0.12670373483E+03  0.12254102764E+03  0.20052572681E+03  0.78937275313E+02 0.  0.
          5    1    3    3  501    0 -0.27680559116E+02 -0.10388667879E+03  0.75722463403E+02  0.13158509356E+03  0.47000000000E+01 0. -1.
        -11    1    4    4    0    0  0.22514056418E+02  0.93565055579E+01  0.43837265176E+02  0.50161068078E+02  0.00000000000E+00 0.  1.
         12    1    4    4    0    0 -0.84165107271E+01 -0.84103182305E+02  0.27096620547E+03  0.28384303309E+03  0.00000000000E+00 0. -1.
         -5    1    5    5    0  503 -0.40355227221E+02  0.51929620709E+02 -0.16782282074E+02  0.68036496549E+02  0.47000000000E+01 0.  1.
         13    1    6    6    0    0 -0.60217651985E+01  0.23082740102E+02  0.61873603344E+02  0.66313025398E+02  0.00000000000E+00 0. -1.
        -14    1    6    6    0    0  0.59960005846E+02  0.10362099473E+03  0.60667424294E+02  0.13421270141E+03  0.00000000000E+00 0.  1.
</event>
<event>
12    1  0.1683022E-002  0.2332191E+03  0.7818608E-02  0.1124443E+00
         21   -1    0    0  503  502  0.00000000000E+00  0.00000000000E+00  0.13002600841E+03  0.13002600841E+03  0.00000000000E+00 0. -1.
         21   -1    0    0  501  503 -0.00000000000E+00 -0.00000000000E+00 -0.42632419229E+03  0.42632419229E+03  0.00000000000E+00 0. -1.
          6    2    1    2  501    0  0.11679441416E+02  0.15719992862E+03 -0.18755739368E+03  0.29928070019E+03  0.17188058259E+03 0.  0.
         24    2    3    3    0    0 -0.60912828686E+02  0.93431776418E+02 -0.10632373899E+03  0.17295963477E+03  0.78552073459E+02 0.  0.
         -6    2    1    2    0  502 -0.11679441416E+02 -0.15719992862E+03 -0.10874079020E+03  0.25706950052E+03  0.17149910126E+03 0.  0.
        -24    2    5    5    0    0  0.87116074370E+01 -0.15279302255E+03 -0.29379432972E+02  0.17487746492E+03  0.79356013078E+02 0.  0.
          5    1    3    3  501    0  0.72592270101E+02  0.63768152204E+02 -0.81233654690E+02  0.12632106542E+03  0.47000000000E+01 0. -1.
        -11    1    4    4    0    0 -0.19211156735E+02 -0.33326952433E+01  0.45313175375E+01  0.20017698152E+02  0.00000000000E+00 0.  1.
         12    1    4    4    0    0 -0.41701671950E+02  0.96764471662E+02 -0.11085505653E+03  0.15294193662E+03  0.00000000000E+00 0. -1.
         -5    1    5    5    0  502 -0.20391048852E+02 -0.44069060717E+01 -0.79361357224E+02  0.82192035593E+02  0.47000000000E+01 0.  1.
         11    1    6    6    0    0 -0.29156323574E+02 -0.23139108015E+02 -0.39209599870E+01  0.37428377620E+02  0.00000000000E+00 0. -1.
        -12    1    6    6    0    0  0.37867931011E+02 -0.12965391454E+03 -0.25458472985E+02  0.13744908730E+03  0.00000000000E+00 0.  1.
</event>
<event>
12    1  0.3098588E-002  0.2146498E+03  0.7818608E-02  0.1141033E+00
         21   -1    0    0  501  502  0.00000000000E+00  0.00000000000E+00  0.18461506568E+03  0.18461506568E+03  0.00000000000E+00 0.  1.
         21   -1    0    0  502  503 -0.00000000000E+00 -0.00000000000E+00 -0.26825062088E+03  0.26825062088E+03  0.00000000000E+00 0.  1.
          6    2    1    2  501    0 -0.84545693025E+02 -0.54946885260E+02  0.40119689451E+02  0.21836692305E+03  0.18949245154E+03 0.  0.
         24    2    3    3    0    0 -0.11413016458E+03 -0.79569632943E+02 -0.21834333023E+01  0.16098081972E+03  0.80950824468E+02 0.  0.
         -6    2    1    2    0  503  0.84545693025E+02  0.54946885260E+02 -0.12375524465E+03  0.23449876352E+03  0.17177652664E+03 0.  0.
        -24    2    5    5    0    0  0.15702041691E+01 -0.18893985826E+02 -0.26503545368E+02  0.86791658046E+02  0.80441940229E+02 0.  0.
          5    1    3    3  501    0  0.29584471557E+02  0.24622747683E+02  0.42303122753E+02  0.57386103330E+02  0.47000000000E+01 0. -1.
        -13    1    4    4    0    0 -0.34187050964E+01  0.13581661979E+02 -0.80896569446E+01  0.16173794735E+02  0.00000000000E+00 0.  1.
         14    1    4    4    0    0 -0.11071145949E+03 -0.93151294921E+02  0.59062236423E+01  0.14480702498E+03  0.00000000000E+00 0. -1.
         -5    1    5    5    0  503  0.82975488856E+02  0.73840871086E+02 -0.97251699282E+02  0.14770710547E+03  0.47000000000E+01 0.  1.
         13    1    6    6    0    0 -0.13782895674E+02  0.93632099640E+01 -0.46177791728E+02  0.49092019340E+02  0.00000000000E+00 0. -1.
        -14    1    6    6    0    0  0.15353099844E+02 -0.28257195790E+02  0.19674246360E+02  0.37699638706E+02  0.00000000000E+00 0.  1.
</event>
<event>
12    1  0.1683022E-002  0.2208050E+03  0.7818608E-02  0.1134093E+00
         21   -1    0    0  503  502  0.00000000000E+00  0.00000000000E+00  0.13071684243E+04  0.13071684243E+04  0.00000000000E+00 0. -1.
         21   -1    0    0  501  503 -0.00000000000E+00 -0.00000000000E+00 -0.48518323822E+02  0.48518323822E+02  0.00000000000E+00 0.  1.
          6    2    1    2  501    0  0.11604465150E+03 -0.67498657337E+02  0.29767698727E+03  0.37062979103E+03  0.17530665522E+03 0.  0.
         24    2    3    3    0    0  0.27756988586E+02 -0.50608083237E+02  0.54009914459E+02  0.11086887155E+03  0.77738068633E+02 0.  0.
         -6    2    1    2    0  502 -0.11604465150E+03  0.67498657337E+02  0.96097311325E+03  0.98505695713E+03  0.16983949636E+03 0.  0.
        -24    2    5    5    0    0 -0.12554551217E+03  0.91815442528E+02  0.65359703821E+03  0.67653837763E+03  0.79519412277E+02 0.  0.
          5    1    3    3  501    0  0.88287662917E+02 -0.16890574100E+02  0.24366707281E+03  0.25976091948E+03  0.47000000000E+01 0. -1.
        -11    1    4    4    0    0  0.39602719907E+02 -0.16094777428E+02  0.60224401595E+02  0.73853881631E+02  0.00000000000E+00 0.  1.
         12    1    4    4    0    0 -0.11845731321E+02 -0.34513305809E+02 -0.62144871360E+01  0.37014989920E+02  0.00000000000E+00 0. -1.
         -5    1    5    5    0  502  0.95008606675E+01 -0.24316785191E+02  0.30737607503E+03  0.30851857950E+03  0.47000000000E+01 0.  1.
         13    1    6    6    0    0 -0.11085625233E+02  0.27208257491E+02  0.25824746831E+03  0.25991332258E+03  0.00000000000E+00 0. -1.
        -14    1    6    6    0    0 -0.11445988694E+03  0.64607185037E+02  0.39534956990E+03  0.41662505505E+03  0.00000000000E+00 0.  1.
</event>
<event>
12    1  0.1683022E-002  0.1822464E+03  0.7818608E-02  0.1165808E+00
         21   -1    0    0  501  502  0.00000000000E+00  0.00000000000E+00  0.53007002132E+03  0.53007002132E+03  0.00000000000E+00 0. -1.
         21   -1    0    0  502  503 -0.00000000000E+00 -0.00000000000E+00 -0.65210550824E+02  0.65210550824E+02  0.00000000000E+00 0. -1.
          6    2    1    2  501    0 -0.28581548442E+02  0.47813260440E+02  0.29350846739E+03  0.34513078281E+03  0.17281499942E+03 0.  0.
         24    2    3    3    0    0 -0.26517463425E+02 -0.20808104213E+02  0.24699665661E+03  0.26207302774E+03  0.80862663977E+02 0.  0.
         -6    2    1    2    0  503  0.28581548442E+02 -0.47813260440E+02  0.17135100310E+03  0.25014978934E+03  0.17352445953E+03 0.  0.
        -24    2    5    5    0    0 -0.47451176474E+02 -0.45097278642E+02  0.78852824387E+02  0.13029005931E+03  0.80450935065E+02 0.  0.
          5    1    3    3  501    0 -0.20640850171E+01  0.68621364654E+02  0.46511810780E+02  0.83057755062E+02  0.47000000000E+01 0. -1.
        -13    1    4    4    0    0 -0.41963730346E+02  0.83375458266E+00  0.60162995472E+02  0.73356907211E+02  0.00000000000E+00 0.  1.
         14    1    4    4    0    0  0.15446266921E+02 -0.21641858796E+02  0.18683366114E+03  0.18871612053E+03  0.00000000000E+00 0. -1.
         -5    1    5    5    0  503  0.76032724916E+02 -0.27159817980E+01  0.92498178714E+02  0.11985973002E+03  0.47000000000E+01 0.  1.
         13    1    6    6    0    0  0.20432525718E+02 -0.49821958082E+00  0.63176124693E+01  0.21392722064E+02  0.00000000000E+00 0. -1.
        -14    1    6    6    0    0 -0.67883702192E+02 -0.44599059062E+02  0.72535211917E+02  0.10889733725E+03  0.00000000000E+00 0.  1.
</event>
<event>
12    1  0.1683022E-002  0.2297165E+03  0.7818608E-02  0.1126946E+00
         21   -1    0    0  501  502  0.00000000000E+00  0.00000000000E+00  0.29303275927E+03  0.29303275927E+03  0.00000000000E+00 0. -1.
         21   -1    0    0  502  503 -0.00000000000E+00 -0.00000000000E+00 -0.28692057035E+03  0.28692057035E+03  0.00000000000E+00 0. -1.
          6    2    1    2  501    0 -0.10156294049E+02  0.15133978959E+03  0.18039244034E+03  0.29160760109E+03  0.17171685491E+03 0.  0.
         24    2    3    3    0    0 -0.45177815465E+02  0.45623839580E+02  0.13734902832E+03  0.17212038685E+03  0.81474549658E+02 0.  0.
         -6    2    1    2    0  503  0.10156294049E+02 -0.15133978959E+03 -0.17428025142E+03  0.28834572853E+03  0.17251890014E+03 0.  0.
        -24    2    5    5    0    0 -0.50070435873E+02 -0.41780287084E+02 -0.84883271184E+02  0.13457819730E+03  0.81568869824E+02 0.  0.
          5    1    3    3  501    0  0.35021521416E+02  0.10571595001E+03  0.43043412024E+02  0.11948721424E+03  0.47000000000E+01 0. -1.
        -13    1    4    4    0    0 -0.34517892381E+02 -0.16869244226E+02  0.36455410375E+02  0.52962753335E+02  0.00000000000E+00 0.  1.
         14    1    4    4    0    0 -0.10659923083E+02  0.62493083806E+02  0.10089361794E+03  0.11915763352E+03  0.00000000000E+00 0. -1.
         -5    1    5    5    0  503  0.60226729922E+02 -0.10955950251E+03 -0.89396980232E+02  0.15376753123E+03  0.47000000000E+01 0.  1.
         11    1    6    6    0    0 -0.39953687515E+02 -0.61684736632E+01 -0.88583899953E+02  0.97372760792E+02  0.00000000000E+00 0. -1.
        -12    1    6    6    0    0 -0.10116748358E+02 -0.35611813421E+02  0.37006287689E+01  0.37205436508E+02  0.00000000000E+00 0.  1.
</event>
<event>
12    1  0.1683022E-002  0.1801368E+03  0.7818608E-02  0.1167951E+00
         21   -1    0    0  503  502  0.00000000000E+00  0.00000000000E+00  0.24311532109E+03  0.24311532109E+03  0.00000000000E+00 0. -1.
         21   -1    0    0  501  503 -0.00000000000E+00 -0.00000000000E+00 -0.24178205266E+03  0.24178205266E+03  0.00000000000E+00 0. -1.
          6    2    1    2  501    0  0.52573206892E+02 -0.42485300224E+01 -0.16224160091E+03  0.24242851930E+03  0.17224185848E+03 0.  0.
         24    2    3    3    0    0  0.73949859500E+02 -0.55576163881E+02 -0.13392667086E+03  0.17985606099E+03  0.76515082153E+02 0.  0.
         -6    2    1    2    0  502 -0.52573206892E+02  0.42485300224E+01  0.16357486934E+03  0.24246885445E+03  0.17103337514E+03 0.  0.
        -24    2    5    5    0    0 -0.61866532740E+02 -0.36427967729E+02  0.16938781260E+03  0.20007989735E+03  0.78646484730E+02 0.  0.
          5    1    3    3  501    0 -0.21376652609E+02  0.51327633859E+02 -0.28314930055E+02  0.62572458305E+02  0.47000000000E+01 0. -1.
        -11    1    4    4    0    0  0.65967663961E+01 -0.15461125323E+02  0.73029955863E+01  0.18327505768E+02  0.00000000000E+00 0.  1.
         12    1    4    4    0    0  0.67353093104E+02 -0.40115038558E+02 -0.14122966644E+03  0.16152855523E+03  0.00000000000E+00 0. -1.
         -5    1    5    5    0  502  0.92933258481E+01  0.40676497752E+02 -0.58129432643E+01  0.42388957100E+02  0.47000000000E+01 0.  1.
         13    1    6    6    0    0 -0.73181157532E+02 -0.95745262431E+01  0.14226805857E+03  0.16027274834E+03  0.00000000000E+00 0. -1.
        -14    1    6    6    0    0  0.11314624792E+02 -0.26853441486E+02  0.27119754028E+02  0.39807149011E+02  0.00000000000E+00 0.  1.
</event>
<event>
12    1  0.1683022E-002  0.1948615E+03  0.7818608E-02  0.1154577E+00
         21   -1    0    0  501  502  0.00000000000E+00  0.00000000000E+00  0.27153920532E+03  0.27153920532E+03  0.00000000000E+00 0. -1.
         21   -1    0    0  502  503 -0.00000000000E+00 -0.00000000000E+00 -0.34196990427E+03  0.34196990427E+03  0.00000000000E+00 0.  1.
          6    2    1    2  501    0 -0.84828629201E+02  0.85079211632E+01  0.20136501872E+03  0.28021219433E+03  0.17522192223E+03 0.  0.
         24    2    3    3    0    0 -0.36283146265E+01 -0.45150584414E+02  0.12987332972E+03  0.15935741410E+03  0.80473372714E+02 0.  0.
         -6    2    1    2    0  503  0.84828629201E+02 -0.85079211632E+01 -0.27179571768E+03  0.33329691525E+03  0.17304808730E+03 0.  0.
        -24    2    5    5    0    0  0.47910941953E+02  0.60491301829E+02 -0.14921252366E+03  0.18778905340E+03  0.83938640718E+02 0.  0.
          5    1    3    3  501    0 -0.81200314574E+02  0.53658505578E+02  0.71491689002E+02  0.12085478023E+03  0.47000000000E+01 0. -1.
        -11    1    4    4    0    0  0.18160099712E+02 -0.16325845630E+01 -0.24227326918E+01  0.18393590939E+02  0.00000000000E+00 0.  1.
         12    1    4    4    0    0 -0.21788414339E+02 -0.43517999851E+02  0.13229606241E+03  0.14096382316E+03  0.00000000000E+00 0. -1.
         -5    1    5    5    0  503  0.36917687247E+02 -0.68999222992E+02 -0.12258319402E+03  0.14550786185E+03  0.47000000000E+01 0.  1.
         11    1    6    6    0    0 -0.36408845580E+01  0.37706947544E+01 -0.91985518648E+02  0.92134737316E+02  0.00000000000E+00 0. -1.
        -12    1    6    6    0    0  0.51551826511E+02  0.56720607075E+02 -0.57227005010E+02  0.95654316087E+02  0.00000000000E+00 0.  1.
</event>
<event>
12    1  0.1683022E-002  0.1961423E+03  0.7818608E-02  0.1153341E+00
         21   -1    0    0  503  502  0.00000000000E+00  0.00000000000E+00  0.22393402576E+03  0.22393402576E+03  0.00000000000E+00 0. -1.
         21   -1    0    0  501  503 -0.00000000000E+00 -0.00000000000E+00 -0.17608903174E+03  0.17608903174E+03  0.00000000000E+00 0. -1.
          6    2    1    2  501    0 -0.60791884703E+01 -0.94733734451E+02 -0.11409242210E+02  0.19647380876E+03  0.17164017521E+03 0.  0.
         24    2    3    3    0    0  0.17790945867E+02 -0.17485628555E+01 -0.46828589322E+01  0.10012361581E+03  0.98403424980E+02 0.  0.
         -6    2    1    2    0  502  0.60791884703E+01  0.94733734451E+02  0.59254236228E+02  0.20354924874E+03  0.17002880690E+03 0.  0.
        -24    2    5    5    0    0 -0.23107817301E+02 -0.92143797913E+01  0.64093307161E+01  0.83250596215E+02  0.79187790944E+02 0.  0.
          5    1    3    3  501    0 -0.23870134337E+02 -0.92985171596E+02 -0.67263832777E+01  0.96350192952E+02  0.47000000000E+01 0. -1.
        -13    1    4    4    0    0 -0.24978741519E+02 -0.32259520849E+02 -0.19945782008E+02  0.45414187576E+02  0.00000000000E+00 0.  1.
         14    1    4    4    0    0  0.42769687386E+02  0.30510957993E+02  0.15262923075E+02  0.54709428233E+02  0.00000000000E+00 0. -1.
         -5    1    5    5    0  502  0.29187005772E+02  0.10394811424E+03  0.52844905511E+02  0.12029865252E+03  0.47000000000E+01 0.  1.
         11    1    6    6    0    0 -0.41828843385E+02  0.16859791129E+02 -0.11433890470E+02  0.46525676214E+02  0.00000000000E+00 0. -1.
        -12    1    6    6    0    0  0.18721026084E+02 -0.26074170920E+02  0.17843221186E+02  0.36724920001E+02  0.00000000000E+00 0.  1.
</event>
<event>
12    1  0.1683022E-002  0.1822824E+03  0.7818608E-02  0.1165937E+00
         21   -1    0    0  501  502  0.00000000000E+00  0.00000000000E+00  0.73960923639E+02  0.73960923639E+02  0.00000000000E+00 0.  1.
         21   -1    0    0  502  503 -0.00000000000E+00 -0.00000000000E+00 -0.47836156996E+03  0.47836156996E+03  0.00000000000E+00 0.  1.
          6    2    1    2  501    0 -0.45610866353E+02 -0.32493275592E+02 -0.13096826717E+03  0.22445388426E+03  0.17346669728E+03 0.  0.
         24    2    3    3    0    0 -0.82101619252E+02 -0.64771620698E+02 -0.94506904882E+02  0.16342120817E+03  0.82697626804E+02 0.  0.
         -6    2    1    2    0  503  0.45610866353E+02  0.32493275592E+02 -0.27343237915E+03  0.32786860934E+03  0.17203602802E+03 0.  0.
        -24    2    5    5    0    0 -0.18043889475E+02  0.14245029941E+02 -0.23515317996E+03  0.25123758756E+03  0.85409627858E+02 0.  0.
          5    1    3    3  501    0  0.36490752899E+02  0.32278345107E+02 -0.36461362286E+02  0.61032676082E+02  0.47000000000E+01 0. -1.
        -13    1    4    4    0    0 -0.52411713552E+01 -0.55676713858E+02 -0.39089362474E+02  0.68230085752E+02  0.00000000000E+00 0.  1.
         14    1    4    4    0    0 -0.76860447897E+02 -0.90949068408E+01 -0.55417542407E+02  0.95191122421E+02  0.00000000000E+00 0. -1.
         -5    1    5    5    0  503  0.63654755828E+02  0.18248245651E+02 -0.38279199187E+02  0.76631021782E+02  0.47000000000E+01 0.  1.
         11    1    6    6    0    0 -0.45813019392E+02 -0.57557045145E+01 -0.80123103290E+02  0.92475253777E+02  0.00000000000E+00 0. -1.
        -12    1    6    6    0    0  0.27769129917E+02  0.20000734455E+02 -0.15503007667E+03  0.15876233378E+03  0.00000000000E+00 0.  1.
</event>
<event>
12    1  0.1683022E-002  0.1836431E+03  0.7818608E-02  0.1164763E+00
         21   -1    0    0  501  502  0.00000000000E+00  0.00000000000E+00  0.22751194443E+03  0.22751194443E+03  0.00000000000E+00 0.  1.
         21   -1    0    0  502  503 -0.00000000000E+00 -0.00000000000E+00 -0.15893288328E+03  0.15893288328E+03  0.00000000000E+00 0.  1.
          6    2    1    2  501    0  0.23206146844E+02 -0.54156946812E+02 -0.19072439497E+02  0.18463084191E+03  0.17393472827E+03 0.  0.
         24    2    3    3    0    0 -0.25995036672E+02 -0.88460002573E+02 -0.24354977737E+02  0.12423670888E+03  0.79628392590E+02 0.  0.
         -6    2    1    2    0  503 -0.23206146844E+02  0.54156946812E+02  0.87651500649E+02  0.20181398580E+03  0.17197266981E+03 0.  0.
        -24    2    5    5    0    0  0.50779365760E+02  0.45273701318E+02  0.73648548346E+02  0.12584727731E+03  0.76060347851E+02 0.  0.
          5    1    3    3  501    0  0.49201183516E+02  0.34303055762E+02  0.52825382402E+01  0.60394133028E+02  0.47000000000E+01 0. -1.
        -11    1    4    4    0    0  0.70371764262E+01 -0.77862189935E+02  0.56317105468E+01  0.78382132130E+02  0.00000000000E+00 0.  1.
         12    1    4    4    0    0 -0.33032213098E+02 -0.10597812638E+02 -0.29986688284E+02  0.45854576752E+02  0.00000000000E+00 0. -1.
         -5    1    5    5    0  503 -0.73985512604E+02  0.88832454938E+01  0.14002952304E+02  0.75966708491E+02  0.47000000000E+01 0.  1.
         13    1    6    6    0    0  0.28203168825E+02  0.47513734748E+02  0.84292130430E+02  0.10078758343E+03  0.00000000000E+00 0. -1.
        -14    1    6    6    0    0  0.22576196934E+02 -0.22400334306E+01 -0.10643582084E+02  0.25059693880E+02  0.00000000000E+00 0.  1.
</event>
<event>
12    1  0.1683022E-002  0.2193388E+03  0.7818608E-02  0.1135216E+00
         21   -1    0    0  501  502  0.00000000000E+00  0.00000000000E+00  0.62062466810E+02  0.62062466810E+02  0.00000000000E+00 0. -1.
         21   -1    0    0  502  503 -0.00000000000E+00 -0.00000000000E+00 -0.92851163888E+03  0.92851163888E+03  0.00000000000E+00 0.  1.
          6    2    1    2  501    0 -0.13074699154E+03 -0.79731133420E+01 -0.21835887659E+03  0.30637345504E+03  0.17036944748E+03 0.  0.
         24    2    3    3    0    0 -0.48814192128E+02 -0.71079621718E+01 -0.20248387270E+03  0.22278016671E+03  0.78726968026E+02 0.  0.
         -6    2    1    2    0  503  0.13074699154E+03  0.79731133420E+01 -0.64809029547E+03  0.68420065065E+03  0.17592939756E+03 0.  0.
        -24    2    5    5    0    0  0.23203254218E+02  0.28870652259E+01 -0.45864530818E+03  0.46624878318E+03  0.80533737946E+02 0.  0.
          5    1    3    3  501    0 -0.81932799411E+02 -0.86515117019E+00 -0.15875003894E+02  0.83593288334E+02  0.47000000000E+01 0. -1.
        -13    1    4    4    0    0 -0.64232325490E+02  0.14447506885E+02 -0.13272770795E+03  0.14815926076E+03  0.00000000000E+00 0.  1.
         14    1    4    4    0    0  0.15418133363E+02 -0.21555469056E+02 -0.69756164755E+02  0.74620905944E+02  0.00000000000E+00 0. -1.
         -5    1    5    5    0  503  0.10754373732E+03  0.50860481161E+01 -0.18944498729E+03  0.21795186747E+03  0.47000000000E+01 0.  1.
         13    1    6    6    0    0  0.12370961378E+02 -0.30238109289E+02 -0.36272381332E+03  0.36419218647E+03  0.00000000000E+00 0. -1.
        -14    1    6    6    0    0  0.10832292840E+02  0.33125174515E+02 -0.95921494863E+02  0.10205659671E+03  0.00000000000E+00 0.  1.
</event>
<event>
12    1  0.1683022E-002  0.2154154E+03  0.7818608E-02  0.1137487E+00
         21   -1    0    0  501  502  0.00000000000E+00  0.00000000000E+00  0.80622094242E+03  0.80622094242E+03  0.00000000000E+00 0.  1.
         21   -1    0    0  502  503 -0.00000000000E+00 -0.00000000000E+00 -0.60613500979E+02  0.60613500979E+02  0.00000000000E+00 0.  1.
          6    2    1    2  501    0  0.12517126141E+03 -0.30385249827E+02  0.47257178903E+03  0.51905252416E+03  0.17175656892E+03 0.  0.
         24    2    3    3    0    0  0.57362228075E+02 -0.43756540790E+02  0.41560168196E+03  0.42936116715E+03  0.80132351377E+02 0.  0.
         -6    2    1    2    0  503 -0.12517126141E+03  0.30385249827E+02  0.27303565242E+03  0.34778191924E+03  0.17266351024E+03 0.  0.
        -24    2    5    5    0    0 -0.65973531690E+02 -0.46033760775E+02  0.15865187314E+03  0.19794876087E+03  0.86842852691E+02 0.  0.
          5    1    3    3  501    0  0.67809033333E+02  0.13371290963E+02  0.56970107064E+02  0.89691357011E+02  0.47000000000E+01 0. -1.
        -13    1    4    4    0    0  0.14255535470E+02  0.22698559108E+02  0.14272569071E+03  0.14522075494E+03  0.00000000000E+00 0.  1.
         14    1    4    4    0    0  0.43106692604E+02 -0.66455099898E+02  0.27287599125E+03  0.28414041221E+03  0.00000000000E+00 0. -1.
         -5    1    5    5    0  503 -0.59197729718E+02  0.76419010602E+02  0.11438377927E+03  0.14983315837E+03  0.47000000000E+01 0.  1.
         13    1    6    6    0    0  0.19475113139E+02 -0.13635806991E+02  0.54069632686E+02  0.59065560548E+02  0.00000000000E+00 0. -1.
        -14    1    6    6    0    0 -0.85448644830E+02 -0.32397953784E+02  0.10458224046E+03  0.13888320032E+03  0.00000000000E+00 0.  1.
</event>
<event>
12    1  0.1683022E-002  0.1875301E+03  0.7818608E-02  0.1160852E+00
         21   -1    0    0  503  502  0.00000000000E+00  0.00000000000E+00  0.46339711133E+02  0.46339711133E+02  0.00000000000E+00 0.  1.
         21   -1    0    0  501  503 -0.00000000000E+00 -0.00000000000E+00 -0.10032447013E+04  0.10032447013E+04  0.00000000000E+00 0.  1.
          6    2    1    2  501    0  0.68669910241E+02 -0.28387458603E+02 -0.73817777540E+03  0.76147135508E+03  0.17149574961E+03 0.  0.
         24    2    3    3    0    0 -0.74302784732E+01 -0.62141551473E+02 -0.46775993749E+03  0.47848995186E+03  0.78971472404E+02 0.  0.
         -6    2    1    2    0  502 -0.68669910241E+02  0.28387458603E+02 -0.21872721477E+03  0.28811305736E+03  0.17218053014E+03 0.  0.
        -24    2    5    5    0    0 -0.91737429547E+02  0.19832538770E+02 -0.22936713695E+03  0.26089918141E+03  0.81547616613E+02 0.  0.
          5    1    3    3  501    0  0.76100188714E+02  0.33754092870E+02 -0.27041783791E+03  0.28298140322E+03  0.47000000000E+01 0. -1.
        -11    1    4    4    0    0  0.28173728281E+02 -0.58549072715E+02 -0.29968058733E+03  0.30664345306E+03  0.00000000000E+00 0.  1.
         12    1    4    4    0    0 -0.35604006754E+02 -0.35924787581E+01 -0.16807935016E+03  0.17184649880E+03  0.00000000000E+00 0. -1.
         -5    1    5    5    0  502  0.23067519307E+02  0.85549198329E+01  0.10639922173E+02  0.27213875949E+02  0.47000000000E+01 0.  1.
         11    1    6    6    0    0 -0.10165880018E+02  0.36598322114E+02 -0.47092533692E+02  0.60501975403E+02  0.00000000000E+00 0. -1.
        -12    1    6    6    0    0 -0.81571549530E+02 -0.16765783344E+02 -0.18227460325E+03  0.20039720601E+03  0.00000000000E+00 0.  1.
</event>
<event>
12    1  0.1683022E-002  0.2768124E+03  0.7818608E-02  0.1097640E+00
         21   -1    0    0  501  502  0.00000000000E+00  0.00000000000E+00  0.41166689928E+03  0.41166689928E+03  0.00000000000E+00 0. -1.
         21   -1    0    0  502  503 -0.00000000000E+00 -0.00000000000E+00 -0.18780059552E+03  0.18780059552E+03  0.00000000000E+00 0. -1.
          6    2    1    2  501    0 -0.28310640705E+02 -0.21379971935E+03  0.76816951023E+02  0.28727327650E+03  0.17353178112E+03 0.  0.
         24    2    3    3    0    0  0.29109547091E+02 -0.19888298108E+03  0.46700228695E+02  0.22057474570E+03  0.77913421099E+02 0.  0.
         -6    2    1    2    0  503  0.28310640705E+02  0.21379971935E+03  0.14704935274E+03  0.31219421829E+03  0.17125976008E+03 0.  0.
        -24    2    5    5    0    0 -0.45388450263E+02  0.15428540222E+03  0.10846663297E+03  0.20980170774E+03  0.79922771138E+02 0.  0.
          5    1    3    3  501    0 -0.57420187796E+02 -0.14916738273E+02  0.30116722328E+02  0.66698530800E+02  0.47000000000E+01 0. -1.
        -11    1    4    4    0    0  0.39707736803E+02 -0.60745000357E+02  0.37595997367E+02  0.81731991585E+02  0.00000000000E+00 0.  1.
         12    1    4    4    0    0 -0.10598189713E+02 -0.13813798072E+03  0.91042313284E+01  0.13884275412E+03  0.00000000000E+00 0. -1.
         -5    1    5    5    0  503  0.73699090968E+02  0.59514317133E+02  0.38582719773E+02  0.10239251056E+03  0.47000000000E+01 0.  1.
         11    1    6    6    0    0  0.60157952863E+01  0.97591652784E+01 -0.10603679494E+02  0.15616309381E+02  0.00000000000E+00 0. -1.
        -12    1    6    6    0    0 -0.51404245549E+02  0.14452623694E+03  0.11907031246E+03  0.19418539836E+03  0.00000000000E+00 0.  1.
</event>
<event>
12    1  0.1683022E-002  0.2046720E+03  0.7818608E-02  0.1145911E+00
         21   -1    0    0  501  502  0.00000000000E+00  0.00000000000E+00  0.10131782086E+04  0.10131782086E+04  0.00000000000E+00 0. -1.
         21   -1    0    0  502  503 -0.00000000000E+00 -0.00000000000E+00 -0.78514241108E+02  0.78514241108E+02  0.00000000000E+00 0. -1.
          6    2    1    2  501    0  0.10709489743E+03 -0.16817048826E+02  0.84332695374E+03  0.86780814232E+03  0.17360440885E+03 0.  0.
         24    2    3    3    0    0  0.58857463276E+02  0.32873956685E+02  0.25119307515E+03  0.27161969370E+03  0.78322404153E+02 0.  0.
         -6    2    1    2    0  503 -0.10709489743E+03  0.16817048826E+02  0.91337013734E+02  0.22388430738E+03  0.17329051568E+03 0.  0.
        -24    2    5    5    0    0  0.81604998394E+01 -0.13776607180E+02  0.65174499048E+02  0.10171088325E+03  0.76426433792E+02 0.  0.
          5    1    3    3  501    0  0.48237434158E+02 -0.49691005512E+02  0.59213387859E+03  0.59618844861E+03  0.47000000000E+01 0. -1.
        -13    1    4    4    0    0 -0.69360213206E+01 -0.18474436458E+02  0.53975836428E+02  0.57470027948E+02  0.00000000000E+00 0.  1.
         14    1    4    4    0    0  0.65793484596E+02  0.51348393143E+02  0.19721723872E+03  0.21414966575E+03  0.00000000000E+00 0. -1.
         -5    1    5    5    0  503 -0.11525539727E+03  0.30593656007E+02  0.26162514686E+02  0.12217342413E+03  0.47000000000E+01 0.  1.
         13    1    6    6    0    0 -0.24919449740E+01 -0.31927128505E+02  0.72635612195E+02  0.79381883848E+02  0.00000000000E+00 0. -1.
        -14    1    6    6    0    0  0.10652444813E+02  0.18150521325E+02 -0.74611131469E+01  0.22328999401E+02  0.00000000000E+00 0.  1.
</event>
<event>
12    1  0.1683022E-002  0.2001637E+03  0.7818608E-02  0.1149957E+00
         21   -1    0    0  501  502  0.00000000000E+00  0.00000000000E+00  0.37246183795E+03  0.37246183795E+03  0.00000000000E+00 0. -1.
         21   -1    0    0  502  503 -0.00000000000E+00 -0.00000000000E+00 -0.12067822138E+03  0.12067822138E+03  0.00000000000E+00 0.  1.
          6    2    1    2  501    0  0.75551940150E+02 -0.63777741329E+02  0.21037443069E+03  0.29038405472E+03  0.17403965696E+03 0.  0.
         24    2    3    3    0    0  0.89875269391E+02  0.14692604878E+02  0.99074631020E+02  0.15337132392E+03  0.73576788470E+02 0.  0.
         -6    2    1    2    0  503 -0.75551940150E+02  0.63777741329E+02  0.41409185869E+02  0.20275600461E+03  0.17210340143E+03 0.  0.
        -24    2    5    5    0    0 -0.92388131665E+02  0.58061400939E+02 -0.23488113213E+02  0.13530318169E+03  0.76475920140E+02 0.  0.
          5    1    3    3  501    0 -0.14323329241E+02 -0.78470346208E+02  0.11129979967E+03  0.13701273080E+03  0.47000000000E+01 0. -1.
        -13    1    4    4    0    0  0.41362241702E+02  0.43828801541E+02  0.46367176440E+02  0.76037582380E+02  0.00000000000E+00 0.  1.
         14    1    4    4    0    0  0.48513027690E+02 -0.29136196663E+02  0.52707454580E+02  0.77333741536E+02  0.00000000000E+00 0. -1.
         -5    1    5    5    0  503  0.16836191514E+02  0.57163403905E+01  0.64897299083E+02  0.67452822924E+02  0.47000000000E+01 0.  1.
         13    1    6    6    0    0 -0.39395622309E+02  0.46352848275E+02 -0.46285097249E+02  0.76438941828E+02  0.00000000000E+00 0. -1.
        -14    1    6    6    0    0 -0.52992509356E+02  0.11708552664E+02  0.22796984036E+02  0.58864239861E+02  0.00000000000E+00 0.  1.
</event>
<event>
12    1  0.1683022E-002  0.2021120E+03  0.7818608E-02  0.1148065E+00
         21   -1    0    0  503  502  0.00000000000E+00  0.00000000000E+00  0.26048343851E+03  0.26048343851E+03  0.00000000000E+00 0. -1.
         21   -1    0    0  501  503 -0.00000000000E+00 -0.00000000000E+00 -0.16259959574E+03  0.16259959574E+03  0.00000000000E+00 0. -1.
          6    2    1    2  501    0 -0.33772879568E+01  0.10595956185E+03  0.79052373269E+01  0.20226653481E+03  0.17207679538E+03 0.  0.
         24    2    3    3    0    0 -0.51105866804E+02  0.91154206287E+02 -0.34308153106E+02  0.13668241994E+03  0.81142686702E+02 0.  0.
         -6    2    1    2    0  502  0.33772879568E+01 -0.10595956185E+03  0.89978605445E+02  0.22081649943E+03  0.17153699940E+03 0.  0.
        -24    2    5    5    0    0 -0.34512715897E+02 -0.15662588828E+00  0.10762175565E+02  0.83240170026E+02  0.74979659860E+02 0.  0.
          5    1    3    3  501    0  0.47728578848E+02  0.14805355564E+02  0.42213390433E+02  0.65584114876E+02  0.47000000000E+01 0. -1.
        -11    1    4    4    0    0 -0.19337364621E+02 -0.12908975348E+02 -0.92986212242E+01  0.25040760206E+02  0.00000000000E+00 0.  1.
         12    1    4    4    0    0 -0.31768502183E+02  0.10406318163E+03 -0.25009531882E+02  0.11164165973E+03  0.00000000000E+00 0. -1.
         -5    1    5    5    0  502  0.37890003854E+02 -0.10580293596E+03  0.79216429880E+02  0.13757632941E+03  0.47000000000E+01 0.  1.
         13    1    6    6    0    0  0.14064218774E+02 -0.23779231335E+02 -0.21227682743E+01  0.27708486746E+02  0.00000000000E+00 0. -1.
        -14    1    6    6    0    0 -0.48576934671E+02  0.23622605447E+02  0.12884943839E+02  0.55531683280E+02  0.00000000000E+00 0.  1.
</event>
<event>
12    1  0.1683022E-002  0.1947077E+03  0.7818608E-02  0.1155354E+00
         21   -1    0    0  503  502  0.00000000000E+00  0.00000000000E+00  0.25457518563E+03  0.25457518563E+03  0.00000000000E+00 0. -1.
         21   -1    0    0  501  503 -0.00000000000E+00 -0.00000000000E+00 -0.19805106856E+03  0.19805106856E+03  0.00000000000E+00 0. -1.
          6    2    1    2  501    0  0.65058805407E+02 -0.66327597915E+02  0.14486013657E+03  0.23881712762E+03  0.16558128780E+03 0.  0.
         24    2    3    3    0    0  0.18486641171E+02 -0.13245376335E+02  0.14240764141E+03  0.16800192119E+03  0.86183022078E+02 0.  0.
         -6    2    1    2    0  502 -0.65058805407E+02  0.66327597915E+02 -0.88336019500E+02  0.21380912656E+03  0.17111134344E+03 0.  0.
        -24    2    5    5    0    0  0.43909444267E+01  0.27054759000E+02 -0.10241254130E+03  0.13265580196E+03  0.79737022763E+02 0.  0.
          5    1    3    3  501    0  0.46572164236E+02 -0.53082221580E+02  0.24524951607E+01  0.70815206432E+02  0.47000000000E+01 0. -1.
        -11    1    4    4    0    0 -0.18956984407E+02  0.27751207649E+02  0.53071510947E+02  0.62817848244E+02  0.00000000000E+00 0.  1.
         12    1    4    4    0    0  0.37443625578E+02 -0.40996583984E+02  0.89336130465E+02  0.10518407294E+03  0.00000000000E+00 0. -1.
         -5    1    5    5    0  502 -0.69449749833E+02  0.39272838914E+02  0.14076521804E+02  0.81153324605E+02  0.47000000000E+01 0.  1.
         11    1    6    6    0    0 -0.24593287324E+02 -0.15670647058E+02 -0.56425777737E+02  0.63515882690E+02  0.00000000000E+00 0. -1.
        -12    1    6    6    0    0  0.28984231751E+02  0.42725406058E+02 -0.45986763568E+02  0.69139919268E+02  0.00000000000E+00 0.  1.
</event>
<event>
12    1  0.1683022E-002  0.2612454E+03  0.7818608E-02  0.1106467E+00
         21   -1    0    0  501  502  0.00000000000E+00  0.00000000000E+00  0.60132122009E+03  0.60132122009E+03  0.00000000000E+00 0.  1.
         21   -1    0    0  502  503 -0.00000000000E+00 -0.00000000000E+00 -0.16432152465E+03  0.16432152465E+03  0.00000000000E+00 0. -1.
          6    2    1    2  501    0  0.15846875549E+03  0.11492863668E+03  0.43195689618E+03  0.50481273949E+03  0.17299769885E+03 0.  0.
         24    2    3    3    0    0  0.12647188826E+03  0.29811581315E+02  0.31280241555E+03  0.35485076805E+03  0.10578207557E+03 0.  0.
         -6    2    1    2    0  503 -0.15846875549E+03 -0.11492863668E+03  0.50427992650E+01  0.26083000524E+03  0.17229603540E+03 0.  0.
        -24    2    5    5    0    0 -0.15181140807E+03 -0.74493827616E+02 -0.48765485139E+02  0.19303092318E+03  0.79289537690E+02 0.  0.
          5    1    3    3  501    0  0.31996867230E+02  0.85117055365E+02  0.11915448063E+03  0.14996197145E+03  0.47000000000E+01 0. -1.
        -13    1    4    4    0    0  0.95967878991E+02  0.49245906733E+01  0.29746364503E+03  0.31259991284E+03  0.00000000000E+00 0.  1.
         14    1    4    4    0    0  0.30504009270E+02  0.24886990642E+02  0.15338770512E+02  0.42250855205E+02  0.00000000000E+00 0. -1.
         -5    1    5    5    0  503 -0.66573474167E+01 -0.40434809064E+02  0.53808284404E+02  0.67799082067E+02  0.47000000000E+01 0.  1.
         11    1    6    6    0    0 -0.37127587439E+02  0.12646226731E+02  0.44649476380E+01  0.39475569115E+02  0.00000000000E+00 0. -1.
        -12    1    6    6    0    0 -0.11468382064E+03 -0.87140054348E+02 -0.53230432777E+02  0.15355535406E+03  0.00000000000E+00 0.  1.
</event>
<event>
12    1  0.1683022E-002  0.1935605E+03  0.7818608E-02  0.1155489E+00
         21   -1    0    0  501  502  0.00000000000E+00  0.00000000000E+00  0.43522751996E+02  0.43522751996E+02  0.00000000000E+00 0. -1.
         21   -1    0    0  502  503 -0.00000000000E+00 -0.00000000000E+00 -0.96022485418E+03  0.96022485418E+03  0.00000000000E+00 0. -1.
          6    2    1    2  501    0 -0.89163593483E+02 -0.13781827986E+02 -0.62210111239E+03  0.65124881765E+03  0.17022086613E+03 0.  0.
         24    2    3    3    0    0 -0.72638440323E+02  0.22493928349E+02 -0.19162430485E+03  0.21890476135E+03  0.73600954532E+02 0.  0.
         -6    2    1    2    0  503  0.89163593483E+02  0.13781827986E+02 -0.29460098980E+03  0.35249878853E+03  0.17124709499E+03 0.  0.
        -24    2    5    5    0    0  0.78260973642E+02 -0.47172369264E+02 -0.13294464653E+03  0.17932504746E+03  0.78314629446E+02 0.  0.
          5    1    3    3  501    0 -0.16525153160E+02 -0.36275756334E+02 -0.43047680754E+03  0.43234405629E+03  0.47000000000E+01 0. -1.
        -11    1    4    4    0    0 -0.51085803320E+02  0.47822185923E+02 -0.15082895229E+03  0.16627114487E+03  0.00000000000E+00 0.  1.
         12    1    4    4    0    0 -0.21552637004E+02 -0.25328257574E+02 -0.40795352561E+02  0.52633616484E+02  0.00000000000E+00 0. -1.
         -5    1    5    5    0  503  0.10902619841E+02  0.60954197250E+02 -0.16165634326E+03  0.17317374108E+03  0.47000000000E+01 0.  1.
         11    1    6    6    0    0  0.22180160079E+02 -0.37445357560E+02 -0.11211010612E+02  0.44942196907E+02  0.00000000000E+00 0. -1.
        -12    1    6    6    0    0  0.56080813563E+02 -0.97270117045E+01 -0.12173363592E+03  0.13438285055E+03  0.00000000000E+00 0.  1.
</event>
<event>
12    1  0.1683022E-002  0.1935534E+03  0.7818608E-02  0.1155352E+00
         21   -1    0    0  501  502  0.00000000000E+00  0.00000000000E+00  0.11987241843E+04  0.11987241843E+04  0.00000000000E+00 0.  1.
         21   -1    0    0  502  503 -0.00000000000E+00 -0.00000000000E+00 -0.33270882862E+02  0.33270882862E+02  0.00000000000E+00 0.  1.
          6    2    1    2  501    0 -0.16269172829E+02  0.87818258906E+02  0.73566284942E+03  0.76063241016E+03  0.17142083535E+03 0.  0.
         24    2    3    3    0    0  0.45166807919E+02  0.94229724531E+02  0.53652903553E+03  0.55208540717E+03  0.77560359235E+02 0.  0.
         -6    2    1    2    0  503  0.16269172829E+02 -0.87818258906E+02  0.42979045197E+03  0.47136265695E+03  0.17171543082E+03 0.  0.
        -24    2    5    5    0    0  0.57525459904E+02 -0.85704631854E+01  0.29726936435E+03  0.31146824487E+03  0.72531105097E+02 0.  0.
          5    1    3    3  501    0 -0.61435980749E+02 -0.64114656246E+01  0.19913381389E+03  0.20854700299E+03  0.47000000000E+01 0. -1.
        -11    1    4    4    0    0  0.14131448758E+02 -0.84773854124E+00  0.21252847744E+03  0.21299946063E+03  0.00000000000E+00 0.  1.
         12    1    4    4    0    0  0.31035359161E+02  0.95077463072E+02  0.32400055809E+03  0.33908594654E+03  0.00000000000E+00 0. -1.
         -5    1    5    5    0  503 -0.41256287074E+02 -0.79247795721E+02  0.13252108763E+03  0.15989441208E+03  0.47000000000E+01 0.  1.
         13    1    6    6    0    0  0.29092282945E+02 -0.30210530006E+02  0.24232185517E+03  0.24592461964E+03  0.00000000000E+00 0. -1.
        -14    1    6    6    0    0  0.28433176959E+02  0.21640066821E+02  0.54947509176E+02  0.65543625233E+02  0.00000000000E+00 0.  1.
</event>
<event>
12    1  0.1683022E-002  0.2053958E+03  0.7818608E-02  0.1146150E+00
         21   -1    0    0  503  502  0.00000000000E+00  0.00000000000E+00  0.22369541895E+03  0.22369541895E+03  0.00000000000E+00 0. -1.
         21   -1    0    0  501  503 -0.00000000000E+00 -0.00000000000E+00 -0.19618617087E+03  0.19618617087E+03  0.00000000000E+00 0.  1.
          6    2    1    2  501    0  0.80265125558E+02 -0.78491994719E+02  0.64758433147E+02  0.21536268817E+03  0.17199985226E+03 0.  0.
         24    2    3    3    0    0  0.10054924965E+02 -0.71651461244E+02  0.89762738517E+02  0.14037221909E+03  0.80074822839E+02 0.  0.
         -6    2    1    2    0  502 -0.80265125558E+02  0.78491994719E+02 -0.37249185064E+02  0.20451890165E+03  0.16684422594E+03 0.  0.
        -24    2    5    5    0    0  0.15420800021E+02  0.15417388792E+02 -0.31449107905E+02  0.89671467368E+02  0.81095183096E+02 0.  0.
          5    1    3    3  501    0  0.70210200592E+02 -0.68405334751E+01 -0.25004305370E+02  0.74990469078E+02  0.47000000000E+01 0. -1.
        -11    1    4    4    0    0 -0.19268103453E+02 -0.51233356154E+02  0.13836726397E+02  0.56458582969E+02  0.00000000000E+00 0.  1.
         12    1    4    4    0    0  0.29323028418E+02 -0.20418105089E+02  0.75926012121E+02  0.83913636125E+02  0.00000000000E+00 0. -1.
         -5    1    5    5    0  502 -0.95685925579E+02  0.63074605926E+02 -0.58000771584E+01  0.11484743428E+03  0.47000000000E+01 0.  1.
         13    1    6    6    0    0  0.38792637253E+02  0.30845033427E+02 -0.28475196006E+01  0.49642654643E+02  0.00000000000E+00 0. -1.
        -14    1    6    6    0    0 -0.23371837232E+02 -0.15427644635E+02 -0.28601588305E+02  0.40028812725E+02  0.00000000000E+00 0.  1.
</event>
<event>
12    1  0.1683022E-002  0.1774369E+03  0.7818608E-02  0.1170512E+00
         21   -1    0    0  501  502  0.00000000000E+00  0.00000000000E+00  0.43765075780E+02  0.43765075780E+02  0.00000000000E+00 0.  1.
         21   -1    0    0  502  503 -0.00000000000E+00 -0.00000000000E+00 -0.71607413041E+03  0.71607413041E+03  0.00000000000E+00 0.  1.
          6    2    1    2  501    0  0.25233037156E+02  0.29231905035E+02 -0.33222922893E+03  0.37625330256E+03  0.17233420059E+03 0.  0.
         24    2    3    3    0    0 -0.46831813297E+02  0.35358505988E+02 -0.23170818523E+03  0.25232813104E+03  0.80853941935E+02 0.  0.
         -6    2    1    2    0  503 -0.25233037156E+02 -0.29231905035E+02 -0.34007982570E+03  0.38358590364E+03  0.17318385370E+03 0.  0.
        -24    2    5    5    0    0  0.16396533704E+01 -0.84095927371E+02 -0.22660909061E+03  0.25462893343E+03  0.80058730491E+02 0.  0.
          5    1    3    3  501    0  0.72064850453E+02 -0.61266009539E+01 -0.10052104370E+03  0.12392517152E+03  0.47000000000E+01 0. -1.
        -13    1    4    4    0    0  0.10977063246E+02 -0.16939084553E+02 -0.69305254324E+02  0.72184809897E+02  0.00000000000E+00 0.  1.
         14    1    4    4    0    0 -0.57808876543E+02  0.52297590541E+02 -0.16240293091E+03  0.18014332114E+03  0.00000000000E+00 0. -1.
         -5    1    5    5    0  503 -0.26872690527E+02  0.54864022336E+02 -0.11347073509E+03  0.12895697020E+03  0.47000000000E+01 0.  1.
         11    1    6    6    0    0 -0.21191954790E+00 -0.69544327306E+02 -0.22938863661E+03  0.23969898827E+03  0.00000000000E+00 0. -1.
        -12    1    6    6    0    0  0.18515729183E+01 -0.14551600065E+02  0.27795459945E+01  0.14929945166E+02  0.00000000000E+00 0.  1.
</event>
<event>
12    1  0.1683022E-002  0.1909087E+03  0.7818608E-02  0.1157879E+00
         21   -1    0    0  503  502  0.00000000000E+00  0.00000000000E+00  0.52360069764E+03  0.52360069764E+03  0.00000000000E+00 0.  1.
         21   -1    0    0  501  503 -0.00000000000E+00 -0.00000000000E+00 -0.76710311872E+02  0.76710311872E+02  0.00000000000E+00 0.  1.
          6    2    1    2  501    0  0.73691945512E+02 -0.33935898374E+02  0.13024653519E+03  0.23110668509E+03  0.17281201328E+03 0.  0.
         24    2    3    3    0    0  0.11358096225E+03 -0.12228025740E+02  0.70654209186E+02  0.15603538092E+03  0.79403168853E+02 0.  0.
         -6    2    1    2    0  502 -0.73691945512E+02  0.33935898374E+02  0.31664385058E+03  0.36920432443E+03  0.17165767397E+03 0.  0.
        -24    2    5    5    0    0 -0.37686423609E+02  0.24125568059E+01  0.30817038426E+03  0.32037801694E+03  0.79037972182E+02 0.  0.
          5    1    3    3  501    0 -0.39889016742E+02 -0.21707872634E+02  0.59592326004E+02  0.75071304168E+02  0.47000000000E+01 0. -1.
        -13    1    4    4    0    0  0.37640068422E+02 -0.29230483572E+02  0.61312433266E+02  0.77655717070E+02  0.00000000000E+00 0.  1.
         14    1    4    4    0    0  0.75940893833E+02  0.17002457831E+02  0.93417759205E+01  0.78379663853E+02  0.00000000000E+00 0. -1.
         -5    1    5    5    0  502 -0.36005521903E+02  0.31523341568E+02  0.84734663177E+01  0.48826307484E+02  0.47000000000E+01 0.  1.
         13    1    6    6    0    0  0.61734764837E+01 -0.21692641057E+02  0.19910059576E+03  0.20037397465E+03  0.00000000000E+00 0. -1.
        -14    1    6    6    0    0 -0.43859900093E+02  0.24105197863E+02  0.10906978851E+03  0.12000404229E+03  0.00000000000E+00 0.  1.
</event>
<event>
12    1  0.1683022E-002  0.2673777E+03  0.7818608E-02  0.1102835E+00
         21   -1    0    0  501  502  0.00000000000E+00  0.00000000000E+00  0.30010498724E+03  0.30010498724E+03  0.00000000000E+00 0. -1.
         21   -1    0    0  502  503 -0.00000000000E+00 -0.00000000000E+00 -0.24262005225E+03  0.24262005225E+03  0.00000000000E+00 0.  1.
          6    2    1    2  501    0  0.19868642029E+03  0.47526974604E+02  0.66404539117E+02  0.27519860843E+03  0.17201629092E+03 0.  0.
         24    2    3    3    0    0  0.18023002978E+02  0.14796008990E+02  0.34064567460E+02  0.88708527640E+02  0.78517880776E+02 0.  0.
         -6    2    1    2    0  503 -0.19868642029E+03 -0.47526974604E+02 -0.89196041199E+01  0.26752643106E+03  0.17249847841E+03 0.  0.
        -24    2    5    5    0    0 -0.15348848344E+03 -0.20350767451E+02  0.56651926533E+02  0.18324644907E+03  0.79980947944E+02 0.  0.
          5    1    3    3  501    0  0.18066341731E+03  0.32730965614E+02  0.32339971657E+02  0.18649008079E+03  0.47000000000E+01 0. -1.
        -13    1    4    4    0    0 -0.10010712398E+01 -0.23446727034E+02 -0.11602288570E+02  0.26179462414E+02  0.00000000000E+00 0.  1.
         14    1    4    4    0    0  0.19024074218E+02  0.38242736024E+02  0.45666856029E+02  0.62529065226E+02  0.00000000000E+00 0. -1.
         -5    1    5    5    0  503 -0.45197936854E+02 -0.27176207152E+02 -0.65571530653E+02  0.84279981984E+02  0.47000000000E+01 0.  1.
         11    1    6    6    0    0 -0.63719640078E+02  0.59266630982E+01  0.62600419595E+02  0.89521675591E+02  0.00000000000E+00 0. -1.
        -12    1    6    6    0    0 -0.89768843361E+02 -0.26277430550E+02 -0.59484930623E+01  0.93724773482E+02  0.00000000000E+00 0.  1.
</event>
<event>
12    1  0.1683022E-002  0.2210012E+03  0.7818608E-02  0.1133502E+00
         21   -1    0    0  503  502  0.00000000000E+00  0.00000000000E+00  0.16884727702E+02  0.16884727702E+02  0.00000000000E+00 0. -1.
         21   -1    0    0  501  503 -0.00000000000E+00 -0.00000000000E+00 -0.28738388063E+04  0.28738388063E+04  0.00000000000E+00 0.  1.
          6    2    1    2  501    0 -0.28108626057E+02  0.13356027616E+03 -0.13526501881E+04  0.13702723809E+04  0.17133424756E+03 0.  0.
         24    2    3    3    0    0 -0.52876954230E+02  0.20777242814E+02 -0.64424250846E+03  0.65250012371E+03  0.86488933516E+02 0.  0.
         -6    2    1    2    0  502  0.28108626057E+02 -0.13356027616E+03 -0.15043038906E+04  0.15204511531E+04  0.17381907732E+03 0.  0.
        -24    2    5    5    0    0  0.66195721567E+01  0.47700202397E+01 -0.63793230864E+03  0.64283001715E+03  0.78779621195E+02 0.  0.
          5    1    3    3  501    0  0.24768328173E+02  0.11278303334E+03 -0.70840767961E+03  0.71777225721E+03  0.47000000000E+01 0. -1.
        -13    1    4    4    0    0 -0.27225981284E+01  0.28047383757E+02 -0.47494234876E+03  0.47577757716E+03  0.00000000000E+00 0.  1.
         14    1    4    4    0    0 -0.50154356102E+02 -0.72701409423E+01 -0.16930015970E+03  0.17672254655E+03  0.00000000000E+00 0. -1.
         -5    1    5    5    0  502  0.21489053900E+02 -0.13833029640E+03 -0.86637158193E+03  0.87762113598E+03  0.47000000000E+01 0.  1.
         13    1    6    6    0    0  0.39075925731E+02  0.18458582757E+02 -0.30665206578E+03  0.30968231577E+03  0.00000000000E+00 0. -1.
        -14    1    6    6    0    0 -0.32456353574E+02 -0.13688562517E+02 -0.33128024285E+03  0.33314770138E+03  0.00000000000E+00 0.  1.
</event>
<event>
12    1  0.1683022E-002  0.2177387E+03  0.7818608E-02  0.1135695E+00
         21   -1    0    0  503  502  0.00000000000E+00  0.00000000000E+00  0.18233805053E+03  0.18233805053E+03  0.00000000000E+00 0. -1.
         21   -1    0    0  501  503 -0.00000000000E+00 -0.00000000000E+00 -0.49538131671E+03  0.49538131671E+03  0.00000000000E+00 0. -1.
          6    2    1    2  501    0  0.16455073630E+02  0.13012121241E+03 -0.39034074978E+03  0.44666734209E+03  0.17304194344E+03 0.  0.
         24    2    3    3    0    0  0.61206055288E+02  0.10330699782E+03 -0.35503812730E+03  0.38350075586E+03  0.81254174671E+02 0.  0.
         -6    2    1    2    0  502 -0.16455073630E+02 -0.13012121241E+03  0.77297483591E+02  0.23105202514E+03  0.17380402178E+03 0.  0.
        -24    2    5    5    0    0  0.47893357993E+02 -0.54136024713E+02  0.73947537538E+02  0.13131345918E+03  0.80935179879E+02 0.  0.
          5    1    3    3  501    0 -0.44750981658E+02  0.26814214587E+02 -0.35302622471E+02  0.63166586235E+02  0.47000000000E+01 0. -1.
        -13    1    4    4    0    0  0.15340417283E+02  0.98217683201E+01 -0.58723298905E+01  0.19138437598E+02  0.00000000000E+00 0.  1.
         14    1    4    4    0    0  0.45865638005E+02  0.93485229505E+02 -0.34916579741E+03  0.36436231826E+03  0.00000000000E+00 0. -1.
         -5    1    5    5    0  502 -0.64348431623E+02 -0.75985187698E+02  0.33499460534E+01  0.99738565963E+02  0.47000000000E+01 0.  1.
         11    1    6    6    0    0  0.40241521573E+02 -0.64052961804E+02  0.85579844271E+02  0.11421940168E+03  0.00000000000E+00 0. -1.
        -12    1    6    6    0    0  0.76518364205E+01  0.99169370909E+01 -0.11632306734E+02  0.17094057500E+02  0.00000000000E+00 0.  1.
</event>
<event>
12    1  0.1683022E-002  0.2155009E+03  0.7818608E-02  0.1137382E+00
         21   -1    0    0  501  502  0.00000000000E+00  0.00000000000E+00  0.70223973042E+03  0.70223973042E+03  0.00000000000E+00 0.  1.
         21   -1    0    0  502  503 -0.00000000000E+00 -0.00000000000E+00 -0.66428278800E+02  0.66428278800E+02  0.00000000000E+00 0.  1.
          6    2    1    2  501    0  0.12261487372E+03  0.42267659183E+02  0.35012362203E+03  0.41112917200E+03  0.17210369865E+03 0.  0.
         24    2    3    3    0    0  0.12816393063E+02 -0.90099012912E+01  0.75675040654E+02  0.11108049530E+03  0.79791769040E+02 0.  0.
         -6    2    1    2    0  503 -0.12261487372E+03 -0.42267659183E+02  0.28568782959E+03  0.35753883723E+03  0.17145122303E+03 0.  0.
        -24    2    5    5    0    0 -0.12417197081E+03  0.13274434284E+02  0.25280426285E+03  0.29280269848E+03  0.78921074400E+02 0.  0.
          5    1    3    3  501    0  0.10979848066E+03  0.51277560474E+02  0.27444858138E+03  0.30004867669E+03  0.47000000000E+01 0. -1.
        -11    1    4    4    0    0  0.43990653970E+02  0.11084144483E+01  0.24657055549E+02  0.50441814080E+02  0.00000000000E+00 0.  1.
         12    1    4    4    0    0 -0.31174260907E+02 -0.10118315739E+02  0.51017985105E+02  0.60638681225E+02  0.00000000000E+00 0. -1.
         -5    1    5    5    0  503  0.15570970822E+01 -0.55542093466E+02  0.32883566741E+02  0.64736138744E+02  0.47000000000E+01 0.  1.
         11    1    6    6    0    0 -0.41134228758E+02  0.38532937945E+02  0.65811593758E+02  0.86648588881E+02  0.00000000000E+00 0. -1.
        -12    1    6    6    0    0 -0.83037742049E+02 -0.25258503661E+02  0.18699266909E+03  0.20615410960E+03  0.00000000000E+00 0.  1.
</event>
<event>
12    1  0.1683022E-002  0.2087449E+03  0.7818608E-02  0.1142684E+00
         21   -1    0    0  503  502  0.00000000000E+00  0.00000000000E+00  0.33013612232E+03  0.33013612232E+03  0.00000000000E+00 0. -1.
         21   -1    0    0  501  503 -0.00000000000E+00 -0.00000000000E+00 -0.17538260929E+03  0.17538260929E+03  0.00000000000E+00 0. -1.
          6    2    1    2  501    0  0.10423615188E+03  0.54949756560E+02 -0.48815677221E+02  0.21437682041E+03  0.17230728273E+03 0.  0.
         24    2    3    3    0    0  0.11302604321E+03  0.89436110891E+02 -0.62283912391E+02  0.17603553479E+03  0.79595975980E+02 0.  0.
         -6    2    1    2    0  502 -0.10423615188E+03 -0.54949756560E+02  0.20356919026E+03  0.29114191120E+03  0.17157664797E+03 0.  0.
        -24    2    5    5    0    0 -0.28299837906E+02 -0.91511244766E+02  0.11036429195E+03  0.16539490619E+03  0.77459727026E+02 0.  0.
          5    1    3    3  501    0 -0.87898913232E+01 -0.34486354331E+02  0.13468235170E+02  0.38341285621E+02  0.47000000000E+01 0. -1.
        -13    1    4    4    0    0  0.65653742364E+01  0.47480570958E+02 -0.53658287634E+01  0.48231741371E+02  0.00000000000E+00 0.  1.
         14    1    4    4    0    0  0.10646066897E+03  0.41955539933E+02 -0.56918083627E+02  0.12780379342E+03  0.00000000000E+00 0. -1.
         -5    1    5    5    0  502 -0.75936313978E+02  0.36561488206E+02  0.93204898310E+02  0.12574700501E+03  0.47000000000E+01 0.  1.
         13    1    6    6    0    0 -0.50909975393E+02 -0.51486277975E+02  0.88915664259E+02  0.11466759684E+03  0.00000000000E+00 0. -1.
        -14    1    6    6    0    0  0.22610137487E+02 -0.40024966791E+02  0.21448627688E+02  0.50727309346E+02  0.00000000000E+00 0.  1.
</event>
<event>
12    1  0.1683022E-002  0.2167533E+03  0.7818608E-02  0.1136450E+00
         21   -1    0    0  503  502  0.00000000000E+00  0.00000000000E+00  0.39247629580E+03  0.39247629580E+03  0.00000000000E+00 0. -1.
         21   -1    0    0  501  503 -0.00000000000E+00 -0.00000000000E+00 -0.11990717459E+03  0.11990717459E+03  0.00000000000E+00 0. -1.
          6    2    1    2  501    0  0.90137945912E+02 -0.95875781196E+02  0.11862842133E+03  0.24652686091E+03  0.17142279921E+03 0.  0.
         24    2    3    3    0    0  0.10408005523E+03 -0.98785101563E+02  0.41605192019E+02  0.16805702969E+03  0.76948158120E+02 0.  0.
         -6    2    1    2    0  502 -0.90137945912E+02  0.95875781196E+02  0.15394069987E+03  0.26585660948E+03  0.17223525485E+03 0.  0.
        -24    2    5    5    0    0 -0.41153500553E+02  0.13279715272E+03  0.12849555741E+03  0.19928177311E+03  0.62236825453E+02 0.  0.
          5    1    3    3  501    0 -0.13942109323E+02  0.29093203665E+01  0.77023229314E+02  0.78469831217E+02  0.47000000000E+01 0. -1.
        -13    1    4    4    0    0 -0.10287787033E+02 -0.55119000893E+01 -0.58227356895E+01  0.13043153589E+02  0.00000000000E+00 0.  1.
         14    1    4    4    0    0  0.11436784227E+03 -0.93273201474E+02  0.47427927709E+02  0.15501387610E+03  0.00000000000E+00 0. -1.
         -5    1    5    5    0  502 -0.48984445359E+02 -0.36921371525E+02  0.25445142465E+02  0.66574836368E+02  0.47000000000E+01 0.  1.
         11    1    6    6    0    0 -0.55462839999E+02  0.86571460140E+02  0.75777522750E+02  0.12772226621E+03  0.00000000000E+00 0. -1.
        -12    1    6    6    0    0  0.14309339446E+02  0.46225692582E+02  0.52718034656E+02  0.71559506902E+02  0.00000000000E+00 0.  1.
</event>
<event>
12    1  0.1683022E-002  0.1992252E+03  0.7818608E-02  0.1150468E+00
         21   -1    0    0  503  502  0.00000000000E+00  0.00000000000E+00  0.23929273378E+03  0.23929273378E+03  0.00000000000E+00 0. -1.
         21   -1    0    0  501  503 -0.00000000000E+00 -0.00000000000E+00 -0.16872553833E+03  0.16872553833E+03  0.00000000000E+00 0. -1.
          6    2    1    2  501    0  0.98939398668E+02  0.60317044260E+01  0.63187365272E+02  0.20900554121E+03  0.17281576045E+03 0.  0.
         24    2    3    3    0    0  0.40424665505E+02 -0.11944764465E+02 -0.93033826848E+01  0.11401014148E+03  0.10552217043E+03 0.  0.
         -6    2    1    2    0  502 -0.98939398668E+02 -0.60317044260E+01  0.73798301731E+01  0.19901273090E+03  0.17241293194E+03 0.  0.
        -24    2    5    5    0    0 -0.96618819679E+02  0.17858113752E+02 -0.42466113575E+02  0.14348961312E+03  0.95560398333E+02 0.  0.
          5    1    3    3  501    0  0.58514733163E+02  0.17976468891E+02  0.72490747957E+02  0.94995399732E+02  0.47000000000E+01 0. -1.
        -13    1    4    4    0    0 -0.13905728872E+02 -0.44271461619E+02  0.10849463500E+02  0.47655455801E+02  0.00000000000E+00 0.  1.
         14    1    4    4    0    0  0.54330394377E+02  0.32326697154E+02 -0.20152846184E+02  0.66354685678E+02  0.00000000000E+00 0. -1.
         -5    1    5    5    0  502 -0.23205789894E+01 -0.23889818178E+02  0.49845943748E+02  0.55523117776E+02  0.47000000000E+01 0.  1.
         11    1    6    6    0    0 -0.79138687418E+02 -0.11228658034E+01  0.14945851870E+02  0.80545460219E+02  0.00000000000E+00 0. -1.
        -12    1    6    6    0    0 -0.17480132261E+02  0.18980979555E+02 -0.57411965445E+02  0.62944152906E+02  0.00000000000E+00 0.  1.
</event>
<event>
12    1  0.1683022E-002  0.2254736E+03  0.7818608E-02  0.1129906E+00
         21   -1    0    0  501  502  0.00000000000E+00  0.00000000000E+00  0.17517794361E+03  0.17517794361E+03  0.00000000000E+00 0.  1.
         21   -1    0    0  502  503 -0.00000000000E+00 -0.00000000000E+00 -0.45979663223E+03  0.45979663223E+03  0.00000000000E+00 0. -1.
          6    2    1    2  501    0  0.14504738547E+03 -0.44597406676E+01  0.50619643147E+02  0.23108586336E+03  0.17256794214E+03 0.  0.
         24    2    3    3    0    0  0.75983091000E+02 -0.68146324654E+02  0.42781377418E+02  0.13669631860E+03  0.80238928107E+02 0.  0.
         -6    2    1    2    0  503 -0.14504738547E+03  0.44597406676E+01 -0.33523833177E+03  0.40388871248E+03  0.17228673675E+03 0.  0.
        -24    2    5    5    0    0 -0.15994055222E+03  0.44693422732E+01 -0.34273700952E+03  0.38656454796E+03  0.79765511199E+02 0.  0.
          5    1    3    3  501    0  0.69064294468E+02  0.63686583987E+02  0.78382657285E+01  0.94389544760E+02  0.47000000000E+01 0. -1.
        -11    1    4    4    0    0  0.66450950878E+02 -0.81841664337E+02  0.18192158193E+02  0.10698009868E+03  0.00000000000E+00 0.  1.
         12    1    4    4    0    0  0.95321401215E+01  0.13695339682E+02  0.24589219225E+02  0.29716219921E+02  0.00000000000E+00 0. -1.
         -5    1    5    5    0  503  0.14893166755E+02 -0.96016055810E-02  0.74986777516E+01  0.17324164517E+02  0.47000000000E+01 0.  1.
         13    1    6    6    0    0  0.14403522933E+01  0.16838321582E+02 -0.34498151493E+02  0.38415181177E+02  0.00000000000E+00 0. -1.
        -14    1    6    6    0    0 -0.16138090452E+03 -0.12368979309E+02 -0.30823885803E+03  0.34814936678E+03  0.00000000000E+00 0.  1.
</event>
<event>
12    1  0.1683022E-002  0.1922260E+03  0.7818608E-02  0.1156554E+00
         21   -1    0    0  501  502  0.00000000000E+00  0.00000000000E+00  0.13132711206E+03  0.13132711206E+03  0.00000000000E+00 0. -1.
         21   -1    0    0  502  503 -0.00000000000E+00 -0.00000000000E+00 -0.56998846456E+03  0.56998846456E+03  0.00000000000E+00 0.  1.
          6    2    1    2  501    0 -0.26087996269E+02  0.81829393341E+02  0.30330389970E+02  0.19460413072E+03  0.17197151501E+03 0.  0.
         24    2    3    3    0    0  0.47790051998E+02  0.74916425011E+02  0.44438323558E+02  0.11892798563E+03  0.65366209602E+02 0.  0.
         -6    2    1    2    0  503  0.26087996269E+02 -0.81829393341E+02 -0.46899174247E+03  0.50671144589E+03  0.17154183667E+03 0.  0.
        -24    2    5    5    0    0  0.12387603436E+02  0.16855076508E+02 -0.13276105299E+03  0.15599861194E+03  0.79199263959E+02 0.  0.
          5    1    3    3  501    0 -0.73878048267E+02  0.69129683302E+01 -0.14107933589E+02  0.75676145099E+02  0.47000000000E+01 0. -1.
        -11    1    4    4    0    0  0.33018090067E+02  0.62377827932E+02  0.14017622150E+00  0.70577668837E+02  0.00000000000E+00 0.  1.
         12    1    4    4    0    0  0.14771961932E+02  0.12538597079E+02  0.44298147337E+02  0.48350316788E+02  0.00000000000E+00 0. -1.
         -5    1    5    5    0  503  0.13700392832E+02 -0.98684469848E+02 -0.33623068948E+03  0.35071283395E+03  0.47000000000E+01 0.  1.
         11    1    6    6    0    0 -0.98418674759E+01  0.36308273658E+02 -0.11619116685E+03  0.12212919530E+03  0.00000000000E+00 0. -1.
        -12    1    6    6    0    0  0.22229470912E+02 -0.19453197150E+02 -0.16569886146E+02  0.33869416636E+02  0.00000000000E+00 0.  1.
</event>
<event>
12    1  0.1683022E-002  0.2094649E+03  0.7818608E-02  0.1142409E+00
         21   -1    0    0  503  502  0.00000000000E+00  0.00000000000E+00  0.22309625858E+03  0.22309625858E+03  0.00000000000E+00 0. -1.
         21   -1    0    0  501  503 -0.00000000000E+00 -0.00000000000E+00 -0.23264261300E+03  0.23264261300E+03  0.00000000000E+00 0. -1.
          6    2    1    2  501    0  0.50878587569E+02 -0.10518415773E+03 -0.96775584714E+02  0.22883693006E+03  0.17131400716E+03 0.  0.
         24    2    3    3    0    0 -0.95027586135E+01 -0.11273989336E+03 -0.58379157089E+02  0.15673026073E+03  0.91409313904E+02 0.  0.
         -6    2    1    2    0  502 -0.50878587569E+02  0.10518415773E+03  0.87229230293E+02  0.22690194152E+03  0.17384825204E+03 0.  0.
        -24    2    5    5    0    0 -0.25993978650E+02 -0.16327177294E+02  0.28345838169E+02  0.89520748601E+02  0.79172054692E+02 0.  0.
          5    1    3    3  501    0  0.60381346182E+02  0.75557356286E+01 -0.38396427625E+02  0.72106669331E+02  0.47000000000E+01 0. -1.
        -13    1    4    4    0    0  0.34894241972E+02 -0.57349039683E+02 -0.53015294300E+02  0.85540294043E+02  0.00000000000E+00 0.  1.
         14    1    4    4    0    0 -0.44397000586E+02 -0.55390853678E+02 -0.53638627892E+01  0.71189966682E+02  0.00000000000E+00 0. -1.
         -5    1    5    5    0  502 -0.24884608919E+02  0.12151133503E+03  0.58883392124E+02  0.13738119292E+03  0.47000000000E+01 0.  1.
         11    1    6    6    0    0 -0.41165115355E+01  0.30838332007E+02  0.18512527543E+01  0.31166897904E+02  0.00000000000E+00 0. -1.
        -12    1    6    6    0    0 -0.21877467114E+02 -0.47165509301E+02  0.26494585414E+02  0.58353850697E+02  0.00000000000E+00 0.  1.
</event>
<event>
12    1  0.1683022E-002  0.2022531E+03  0.7818608E-02  0.1152446E+00
         21   -1    0    0  501  502  0.00000000000E+00  0.00000000000E+00  0.22056926779E+03  0.22056926779E+03  0.00000000000E+00 0.  1.
         21   -1    0    0  502  503 -0.00000000000E+00 -0.00000000000E+00 -0.19740389913E+03  0.19740389913E+03  0.00000000000E+00 0.  1.
          6    2    1    2  501    0  0.46194234598E+02 -0.40631312947E+02  0.94262992797E+02  0.22314079331E+03  0.19266938244E+03 0.  0.
         24    2    3    3    0    0 -0.41636281682E+02 -0.51644688843E+02  0.29899518109E+02  0.11359518221E+03  0.87230329587E+02 0.  0.
         -6    2    1    2    0  503 -0.46194234598E+02  0.40631312947E+02 -0.71097624133E+02  0.19483237361E+03  0.17064574635E+03 0.  0.
        -24    2    5    5    0    0 -0.37771068961E+02  0.89394052185E+02 -0.75218678750E+02  0.14495424666E+03  0.77045011352E+02 0.  0.
          5    1    3    3  501    0  0.87830516280E+02  0.11013375896E+02  0.64363474688E+02  0.10954561111E+03  0.47000000000E+01 0. -1.
        -11    1    4    4    0    0  0.16898575916E+02 -0.21788832841E+02  0.38467930171E+02  0.47329660428E+02  0.00000000000E+00 0.  1.
         12    1    4    4    0    0 -0.58534857598E+02 -0.29855856002E+02 -0.85684120620E+01  0.66265521781E+02  0.00000000000E+00 0. -1.
         -5    1    5    5    0  503 -0.84231656366E+01 -0.48762739238E+02  0.41210546166E+01  0.49878126955E+02  0.47000000000E+01 0.  1.
         11    1    6    6    0    0 -0.54905108331E+02  0.34697298681E+02 -0.28152600348E+02  0.70788716353E+02  0.00000000000E+00 0. -1.
        -12    1    6    6    0    0  0.17134039369E+02  0.54696753504E+02 -0.47066078401E+02  0.74165530303E+02  0.00000000000E+00 0.  1.
</event>
<event>
12    1  0.1683022E-002  0.2096712E+03  0.7818608E-02  0.1141829E+00
         21   -1    0    0  501  502  0.00000000000E+00  0.00000000000E+00  0.12913672309E+03  0.12913672309E+03  0.00000000000E+00 0. -1.
         21   -1    0    0  502  503 -0.00000000000E+00 -0.00000000000E+00 -0.55550618290E+03  0.55550618290E+03  0.00000000000E+00 0. -1.
          6    2    1    2  501    0 -0.96020400525E+02  0.72764684456E+02 -0.17613856568E+00  0.20967132352E+03  0.17160249491E+03 0.  0.
         24    2    3    3    0    0 -0.25163707918E+02  0.53636811858E+02 -0.58322955970E+02  0.11591798346E+03  0.80779278991E+02 0.  0.
         -6    2    1    2    0  503  0.96020400525E+02 -0.72764684456E+02 -0.42619332125E+03  0.47497158247E+03  0.17158857904E+03 0.  0.
        -24    2    5    5    0    0  0.73335739932E+01  0.13528662006E+02 -0.21951965684E+03  0.23404008099E+03  0.79681075354E+02 0.  0.
          5    1    3    3  501    0 -0.70856692608E+02  0.19127872599E+02  0.58146817404E+02  0.93753340056E+02  0.47000000000E+01 0. -1.
        -13    1    4    4    0    0  0.21968080751E+02  0.33194635219E+02 -0.49942448278E+02  0.63864924013E+02  0.00000000000E+00 0.  1.
         14    1    4    4    0    0 -0.47131788668E+02  0.20442176639E+02 -0.83805076920E+01  0.52053059449E+02  0.00000000000E+00 0. -1.
         -5    1    5    5    0  503  0.88686826532E+02 -0.86293346462E+02 -0.20667366441E+03  0.24093150148E+03  0.47000000000E+01 0.  1.
         11    1    6    6    0    0 -0.10007962675E+02  0.26623765528E+02 -0.23711967550E+02  0.37030279676E+02  0.00000000000E+00 0. -1.
        -12    1    6    6    0    0  0.17341536668E+02 -0.13095103522E+02 -0.19580768929E+03  0.19700980132E+03  0.00000000000E+00 0.  1.
</event>
<event>
12    1  0.1683022E-002  0.2068664E+03  0.7818608E-02  0.1144097E+00
         21   -1    0    0  503  502  0.00000000000E+00  0.00000000000E+00  0.30270032569E+03  0.30270032569E+03  0.00000000000E+00 0. -1.
         21   -1    0    0  501  503 -0.00000000000E+00 -0.00000000000E+00 -0.14570379557E+03  0.14570379557E+03  0.00000000000E+00 0. -1.
          6    2    1    2  501    0 -0.10234103827E+02 -0.11467539728E+03  0.39491729040E+02  0.21060219713E+03  0.17186769665E+03 0.  0.
         24    2    3    3    0    0  0.13826546409E+02  0.86887404006E+01  0.29249879679E+02  0.84409444435E+02  0.77477295082E+02 0.  0.
         -6    2    1    2    0  502  0.10234103827E+02  0.11467539728E+03  0.11750480108E+03  0.23780192413E+03  0.17171835435E+03 0.  0.
        -24    2    5    5    0    0 -0.28907280327E+02  0.47337990489E+02  0.12629179464E+03  0.15928010829E+03  0.79649352184E+02 0.  0.
          5    1    3    3  501    0 -0.24060650236E+02 -0.12336413768E+03  0.10241849361E+02  0.12619275270E+03  0.47000000000E+01 0. -1.
        -13    1    4    4    0    0  0.37193693556E+02  0.72096658169E+01 -0.95692533669E+01  0.39075833088E+02  0.00000000000E+00 0.  1.
         14    1    4    4    0    0 -0.23367147146E+02  0.14790745836E+01  0.38819133046E+02  0.45333611347E+02  0.00000000000E+00 0. -1.
         -5    1    5    5    0  502  0.39141384153E+02  0.67337406786E+02 -0.87869935660E+01  0.78521815835E+02  0.47000000000E+01 0.  1.
         11    1    6    6    0    0  0.59576037867E+01  0.23154998003E+02 -0.21553959893E+01  0.24006097294E+02  0.00000000000E+00 0. -1.
        -12    1    6    6    0    0 -0.34864884113E+02  0.24182992486E+02  0.12844719063E+03  0.13527401100E+03  0.00000000000E+00 0.  1.
</event>
<event>
12    1  0.1683022E-002  0.4079905E+03  0.7818608E-02  0.1041131E+00
         21   -1    0    0  503  502  0.00000000000E+00  0.00000000000E+00  0.42431941478E+03  0.42431941478E+03  0.00000000000E+00 0.  1.
         21   -1    0    0  501  503 -0.00000000000E+00 -0.00000000000E+00 -0.64983201673E+03  0.64983201673E+03  0.00000000000E+00 0.  1.
          6    2    1    2  501    0  0.38883250627E+02 -0.36747970589E+03  0.22606176184E+03  0.46556647299E+03  0.17057250419E+03 0.  0.
         24    2    3    3    0    0 -0.93255962731E+01 -0.22899248589E+03  0.20451790525E+03  0.31727948509E+03  0.79461769127E+02 0.  0.
         -6    2    1    2    0  502 -0.38883250627E+02  0.36747970589E+03 -0.45157436378E+03  0.60858495852E+03  0.17292485156E+03 0.  0.
        -24    2    5    5    0    0  0.15234193157E+02  0.11976982505E+03 -0.98470033362E+02  0.17385096979E+03  0.77142210202E+02 0.  0.
          5    1    3    3  501    0  0.48208846901E+02 -0.13848722001E+03  0.21543856588E+02  0.14828698790E+03  0.47000000000E+01 0. -1.
        -13    1    4    4    0    0  0.30805443316E+02 -0.70303881488E+02  0.85498147358E+02  0.11489797340E+03  0.00000000000E+00 0.  1.
         14    1    4    4    0    0 -0.40131039590E+02 -0.15868860440E+03  0.11901975789E+03  0.20238151169E+03  0.00000000000E+00 0. -1.
         -5    1    5    5    0  502 -0.54117443784E+02  0.24770988084E+03 -0.35310433042E+03  0.43473398872E+03  0.47000000000E+01 0.  1.
         13    1    6    6    0    0  0.79915614584E+00  0.78868027530E+01 -0.50745469520E+02  0.51360909114E+02  0.00000000000E+00 0. -1.
        -14    1    6    6    0    0  0.14435037011E+02  0.11188302230E+03 -0.47724563842E+02  0.12249006068E+03  0.00000000000E+00 0.  1.
</event>
<event>
12    1  0.1683022E-002  0.2669367E+03  0.7818608E-02  0.1103116E+00
         21   -1    0    0  503  502  0.00000000000E+00  0.00000000000E+00  0.98762892753E+03  0.98762892753E+03  0.00000000000E+00 0.  1.
         21   -1    0    0  501  503 -0.00000000000E+00 -0.00000000000E+00 -0.10132232868E+03  0.10132232868E+03  0.00000000000E+00 0. -1.
          6    2    1    2  501    0 -0.19788053623E+03  0.47642962853E+02  0.15005189276E+03  0.30579980443E+03  0.17196334302E+03 0.  0.
         24    2    3    3    0    0 -0.21001689931E+03  0.10164057501E+02  0.11502692520E+03  0.25287723828E+03  0.80655427974E+02 0.  0.
         -6    2    1    2    0  502  0.19788053623E+03 -0.47642962853E+02  0.73625470610E+03  0.78315145178E+03  0.17270971497E+03 0.  0.
        -24    2    5    5    0    0  0.21168933995E+03 -0.46400645030E+02  0.54952208725E+03  0.59584585294E+03  0.78053568686E+02 0.  0.
          5    1    3    3  501    0  0.12136363078E+02  0.37478905352E+02  0.35024967560E+02  0.52922566149E+02  0.47000000000E+01 0. -1.
        -13    1    4    4    0    0 -0.89089850719E+02 -0.35459599790E+02  0.45950827223E+02  0.10632903292E+03  0.00000000000E+00 0.  1.
         14    1    4    4    0    0 -0.12092704859E+03  0.45623657291E+02  0.69076097975E+02  0.14654820537E+03  0.00000000000E+00 0. -1.
         -5    1    5    5    0  502 -0.13808803725E+02 -0.12423178232E+01  0.18673261885E+03  0.18730559884E+03  0.47000000000E+01 0.  1.
         11    1    6    6    0    0  0.11919811713E+03  0.11448725911E+02  0.32133446102E+03  0.34292141999E+03  0.00000000000E+00 0. -1.
        -12    1    6    6    0    0  0.92491222823E+02 -0.57849370941E+02  0.22818762623E+03  0.25292443295E+03  0.00000000000E+00 0.  1.
</event>
<event>
12    1  0.1683022E-002  0.2148859E+03  0.7818608E-02  0.1138169E+00
         21   -1    0    0  501  502  0.00000000000E+00  0.00000000000E+00  0.44360245698E+03  0.44360245698E+03  0.00000000000E+00 0.  1.
         21   -1    0    0  502  503 -0.00000000000E+00 -0.00000000000E+00 -0.10476283908E+03  0.10476283908E+03  0.00000000000E+00 0. -1.
          6    2    1    2  501    0  0.34922076761E+02 -0.12121886692E+03  0.13359583975E+03  0.25121049535E+03  0.17130469764E+03 0.  0.
         24    2    3    3    0    0  0.89969570445E+02 -0.81655232973E+02  0.92841625114E+02  0.17197348567E+03  0.78696961460E+02 0.  0.
         -6    2    1    2    0  503 -0.34922076761E+02  0.12121886692E+03  0.20524377816E+03  0.29715480072E+03  0.17396092083E+03 0.  0.
        -24    2    5    5    0    0 -0.45400350213E+02  0.11984249911E+03  0.22673697084E+03  0.27274709836E+03  0.80980919495E+02 0.  0.
          5    1    3    3  501    0 -0.55047493684E+02 -0.39563633944E+02  0.40754214631E+02  0.79237009673E+02  0.47000000000E+01 0. -1.
        -13    1    4    4    0    0  0.61850007295E+02 -0.40580550529E+02  0.90697413160E+01  0.74528281150E+02  0.00000000000E+00 0.  1.
         14    1    4    4    0    0  0.28119563150E+02 -0.41074682443E+02  0.83771883798E+02  0.97445204524E+02  0.00000000000E+00 0. -1.
         -5    1    5    5    0  503  0.10478273452E+02  0.13763678052E+01 -0.21493192684E+02  0.24407702363E+02  0.47000000000E+01 0.  1.
         13    1    6    6    0    0 -0.65875807821E+02  0.77144235526E+02  0.12870747627E+03  0.16387943611E+03  0.00000000000E+00 0. -1.
        -14    1    6    6    0    0  0.20475457608E+02  0.42698263586E+02  0.98029494572E+02  0.10886766225E+03  0.00000000000E+00 0.  1.
</event>
<event>
12    1  0.1683022E-002  0.1887636E+03  0.7818608E-02  0.1160509E+00
         21   -1    0    0  501  502  0.00000000000E+00  0.00000000000E+00  0.55467023856E+02  0.55467023856E+02  0.00000000000E+00 0. -1.
         21   -1    0    0  502  503 -0.00000000000E+00 -0.00000000000E+00 -0.62878310478E+03  0.62878310478E+03  0.00000000000E+00 0.  1.
          6    2    1    2  501    0 -0.18143777605E+01  0.75752532981E+02 -0.28089332254E+03  0.33619444728E+03  0.16847524895E+03 0.  0.
         24    2    3    3    0    0  0.50587209701E+02  0.21372359036E+02 -0.21861427717E+03  0.23819496167E+03  0.76998662749E+02 0.  0.
         -6    2    1    2    0  503  0.18143777605E+01 -0.75752532981E+02 -0.29242275838E+03  0.34805568136E+03  0.17288710041E+03 0.  0.
        -24    2    5    5    0    0 -0.46454806608E+01  0.25869436123E+02 -0.16480611938E+03  0.18472518536E+03  0.79192985191E+02 0.  0.
          5    1    3    3  501    0 -0.52401587462E+02  0.54380173944E+02 -0.62279045376E+02  0.97999485609E+02  0.47000000000E+01 0. -1.
        -13    1    4    4    0    0  0.18335724664E+02  0.90740012216E+01 -0.19569594305E+03  0.19676239077E+03  0.00000000000E+00 0.  1.
         14    1    4    4    0    0  0.32251485037E+02  0.12298357815E+02 -0.22918334121E+02  0.41432570894E+02  0.00000000000E+00 0. -1.
         -5    1    5    5    0  503  0.64598584213E+01 -0.10162196910E+03 -0.12761663899E+03  0.16333049600E+03  0.47000000000E+01 0.  1.
         13    1    6    6    0    0 -0.19780685780E+02 -0.65207169266E+00 -0.29456452907E+01  0.20009436614E+02  0.00000000000E+00 0. -1.
        -14    1    6    6    0    0  0.15135205120E+02  0.26521507816E+02 -0.16186047409E+03  0.16471574874E+03  0.00000000000E+00 0.  1.
</event>
<event>
12    1  0.1683022E-002  0.2104618E+03  0.7818608E-02  0.1141313E+00
         21   -1    0    0  501  502  0.00000000000E+00  0.00000000000E+00  0.63059001281E+03  0.63059001281E+03  0.00000000000E+00 0. -1.
         21   -1    0    0  502  503 -0.00000000000E+00 -0.00000000000E+00 -0.11661131024E+03  0.11661131024E+03  0.00000000000E+00 0. -1.
          6    2    1    2  501    0  0.51254003896E+02  0.10917807210E+03  0.49284794482E+03  0.53568140508E+03  0.17178081003E+03 0.  0.
         24    2    3    3    0    0  0.71122910451E+02  0.11975026699E+03  0.28980893141E+03  0.33134473260E+03  0.80009501081E+02 0.  0.
         -6    2    1    2    0  503 -0.51254003896E+02 -0.10917807210E+03  0.21130757758E+02  0.21151991798E+03  0.17247417904E+03 0.  0.
        -24    2    5    5    0    0 -0.78436764142E+02 -0.57564013736E+02 -0.35329040691E+02  0.13020133267E+03  0.78982936553E+02 0.  0.
          5    1    3    3  501    0 -0.19868906554E+02 -0.10572194896E+02  0.20303901341E+03  0.20433667247E+03  0.47000000000E+01 0. -1.
        -13    1    4    4    0    0  0.20804882606E+02  0.10110798190E+03  0.15478218667E+03  0.18604621054E+03  0.00000000000E+00 0.  1.
         14    1    4    4    0    0  0.50318027845E+02  0.18642285089E+02  0.13502674474E+03  0.14529852207E+03  0.00000000000E+00 0. -1.
         -5    1    5    5    0  503  0.27182760246E+02 -0.51614058362E+02  0.56459798449E+02  0.81318585305E+02  0.47000000000E+01 0.  1.
         11    1    6    6    0    0 -0.69553330180E+02 -0.85600513583E+01 -0.39114334753E+02  0.80255039727E+02  0.00000000000E+00 0. -1.
        -12    1    6    6    0    0 -0.88834339620E+01 -0.49003962377E+02  0.37852940623E+01  0.49946292943E+02  0.00000000000E+00 0.  1.
</event>
<event>
12    1  0.1683022E-002  0.2033525E+03  0.7818608E-02  0.1146950E+00
         21   -1    0    0  503  502  0.00000000000E+00  0.00000000000E+00  0.11510035010E+04  0.11510035010E+04  0.00000000000E+00 0.  1.
         21   -1    0    0  501  503 -0.00000000000E+00 -0.00000000000E+00 -0.36010762133E+02  0.36010762133E+02  0.00000000000E+00 0.  1.
          6    2    1    2  501    0  0.93782718639E+02  0.51980561597E+02  0.58746077692E+03  0.62166100357E+03  0.17278617376E+03 0.  0.
         24    2    3    3    0    0  0.18312031643E+02  0.63097038006E+02  0.18339678263E+03  0.21043211095E+03  0.79565864117E+02 0.  0.
         -6    2    1    2    0  502 -0.93782718639E+02 -0.51980561597E+02  0.52753196193E+03  0.56535325955E+03  0.17273436289E+03 0.  0.
        -24    2    5    5    0    0 -0.94796322423E+02 -0.11651251131E+02  0.20145381983E+03  0.23675544240E+03  0.79670594231E+02 0.  0.
          5    1    3    3  501    0  0.75470686996E+02 -0.11116476409E+02  0.40406399428E+03  0.41122889261E+03  0.47000000000E+01 0. -1.
        -11    1    4    4    0    0 -0.97876222149E+01  0.67900726490E+02  0.15800815647E+03  0.17225818912E+03  0.00000000000E+00 0.  1.
         12    1    4    4    0    0  0.28099653858E+02 -0.48036884849E+01  0.25388626160E+02  0.38173921835E+02  0.00000000000E+00 0. -1.
         -5    1    5    5    0  502  0.10136037845E+01 -0.40329310466E+02  0.32607814211E+03  0.32859781715E+03  0.47000000000E+01 0.  1.
         13    1    6    6    0    0  0.11556518613E+02  0.10560647537E+02  0.28169129323E+02  0.32227011119E+02  0.00000000000E+00 0. -1.
        -14    1    6    6    0    0 -0.10635284104E+03 -0.22211898668E+02  0.17328469050E+03  0.20452843128E+03  0.00000000000E+00 0.  1.
</event>
<event>
12    1  0.1683022E-002  0.3295465E+03  0.7818608E-02  0.1071385E+00
         21   -1    0    0  503  502  0.00000000000E+00  0.00000000000E+00  0.18276807443E+03  0.18276807443E+03  0.00000000000E+00 0.  1.
         21   -1    0    0  501  503 -0.00000000000E+00 -0.00000000000E+00 -0.60182480315E+03  0.60182480315E+03  0.00000000000E+00 0. -1.
          6    2    1    2  501    0  0.23691446124E+03  0.15077679211E+03 -0.16332606573E+03  0.36779926533E+03  0.17244939213E+03 0.  0.
         24    2    3    3    0    0  0.21329095526E+03  0.12665595124E+03 -0.68499750546E+02  0.26703218216E+03  0.71268568849E+02 0.  0.
         -6    2    1    2    0  502 -0.23691446124E+03 -0.15077679211E+03 -0.25573066299E+03  0.41679361224E+03  0.17162936877E+03 0.  0.
        -24    2    5    5    0    0 -0.86101087327E+02 -0.21236422799E+02 -0.15008714416E+03  0.19160918981E+03  0.79520738718E+02 0.  0.
          5    1    3    3  501    0  0.23623505987E+02  0.24120840869E+02 -0.94826315182E+02  0.10076708317E+03  0.47000000000E+01 0. -1.
        -11    1    4    4    0    0  0.13190497404E+03  0.11637976228E+03 -0.42349273039E+02  0.18093267303E+03  0.00000000000E+00 0.  1.
         12    1    4    4    0    0  0.81385981216E+02  0.10276188966E+02 -0.26150477506E+02  0.86099509127E+02  0.00000000000E+00 0. -1.
         -5    1    5    5    0  502 -0.15081337392E+03 -0.12954036931E+03 -0.10564351883E+03  0.22518442243E+03  0.47000000000E+01 0.  1.
         11    1    6    6    0    0 -0.91609402648E+02 -0.33021910009E+02 -0.14971066171E+03  0.17859454477E+03  0.00000000000E+00 0. -1.
        -12    1    6    6    0    0  0.55083153214E+01  0.11785487210E+02 -0.37648245348E+00  0.13014645039E+02  0.00000000000E+00 0.  1.
</event>
<event>
12    1  0.1683022E-002  0.1777064E+03  0.7818608E-02  0.1170213E+00
         21   -1    0    0  503  502  0.00000000000E+00  0.00000000000E+00  0.14693335396E+03  0.14693335396E+03  0.00000000000E+00 0. -1.
         21   -1    0    0  501  503 -0.00000000000E+00 -0.00000000000E+00 -0.21408613268E+03  0.21408613268E+03  0.00000000000E+00 0. -1.
          6    2    1    2  501    0 -0.31729816384E+02 -0.28305819671E+02 -0.34238121751E+02  0.18029053592E+03  0.17182673740E+03 0.  0.
         24    2    3    3    0    0 -0.59538300879E+02  0.16712553733E+02  0.21687868850E+02  0.10315576958E+03  0.79665741809E+02 0.  0.
         -6    2    1    2    0  502  0.31729816384E+02  0.28305819671E+02 -0.32914656972E+02  0.18072895072E+03  0.17254442416E+03 0.  0.
        -24    2    5    5    0    0 -0.73063935371E+00 -0.10394079142E+02 -0.78193920194E+02  0.11273141376E+03  0.80532675212E+02 0.  0.
          5    1    3    3  501    0  0.27808484495E+02 -0.45018373404E+02 -0.55925990601E+02  0.77134766341E+02  0.47000000000E+01 0. -1.
        -13    1    4    4    0    0 -0.46121372446E+02  0.39952206932E+02 -0.97817435212E+01  0.61798400800E+02  0.00000000000E+00 0.  1.
         14    1    4    4    0    0 -0.13416928433E+02 -0.23239653199E+02  0.31469612371E+02  0.41357368777E+02  0.00000000000E+00 0. -1.
         -5    1    5    5    0  502  0.32460455738E+02  0.38699898813E+02  0.45279263223E+02  0.67997536961E+02  0.47000000000E+01 0.  1.
         13    1    6    6    0    0  0.16226491726E+02  0.31111392684E+02 -0.24583737025E+02  0.42843644973E+02  0.00000000000E+00 0. -1.
        -14    1    6    6    0    0 -0.16957131080E+02 -0.41505471826E+02 -0.53610183169E+02  0.69887768782E+02  0.00000000000E+00 0.  1.
</event>
<event>
12    1  0.1683022E-002  0.1958648E+03  0.7818608E-02  0.1153399E+00
         21   -1    0    0  501  502  0.00000000000E+00  0.00000000000E+00  0.33620841642E+02  0.33620841642E+02  0.00000000000E+00 0. -1.
         21   -1    0    0  502  503 -0.00000000000E+00 -0.00000000000E+00 -0.11391554422E+04  0.11391554422E+04  0.00000000000E+00 0.  1.
          6    2    1    2  501    0  0.80094225380E+02  0.42893272399E+02 -0.53135521897E+03  0.56610916347E+03  0.17287654116E+03 0.  0.
         24    2    3    3    0    0  0.38097149882E+02 -0.23103887582E+02 -0.41969210041E+03  0.42969024424E+03  0.80666377156E+02 0.  0.
         -6    2    1    2    0  503 -0.80094225380E+02 -0.42893272399E+02 -0.57417938159E+03  0.60666712037E+03  0.17351690103E+03 0.  0.
        -24    2    5    5    0    0  0.11303036545E+02 -0.56433084302E+02 -0.22049127484E+03  0.24107971243E+03  0.78680199694E+02 0.  0.
          5    1    3    3  501    0  0.41997075498E+02  0.65997159980E+02 -0.11166311857E+03  0.13641891923E+03  0.47000000000E+01 0. -1.
        -13    1    4    4    0    0 -0.20603315222E+02  0.98714443746E+01 -0.71944740358E+02  0.75485016244E+02  0.00000000000E+00 0.  1.
         14    1    4    4    0    0  0.58700465105E+02 -0.32975331956E+02 -0.34774736005E+03  0.35420522800E+03  0.00000000000E+00 0. -1.
         -5    1    5    5    0  503 -0.91397261925E+02  0.13539811903E+02 -0.35368810674E+03  0.36558740794E+03  0.47000000000E+01 0.  1.
         11    1    6    6    0    0 -0.87479935751E+01 -0.68126108722E+02 -0.19430143784E+03  0.20608431000E+03  0.00000000000E+00 0. -1.
        -12    1    6    6    0    0  0.20051030120E+02  0.11693024421E+02 -0.26189837006E+02  0.34995402432E+02  0.00000000000E+00 0.  1.
</event>
<event>
12    1  0.1683022E-002  0.1909675E+03  0.7818608E-02  0.1157718E+00
         21   -1    0    0  501  502  0.00000000000E+00  0.00000000000E+00  0.79015820902E+03  0.79015820902E+03  0.00000000000E+00 0. -1.
         21   -1    0    0  502  503 -0.00000000000E+00 -0.00000000000E+00 -0.11178611748E+03  0.11178611748E+03  0.00000000000E+00 0.  1.
          6    2    1    2  501    0  0.67529305390E+02 -0.45286476154E+02  0.68489171698E+03  0.71086553965E+03  0.17216875286E+03 0.  0.
         24    2    3    3    0    0 -0.22756407319E+02 -0.38302176551E+02  0.44893490696E+03  0.45808500923E+03  0.79463288366E+02 0.  0.
         -6    2    1    2    0  503 -0.67529305390E+02  0.45286476154E+02 -0.65196254452E+01  0.19107878685E+03  0.17279330212E+03 0.  0.
        -24    2    5    5    0    0 -0.28837201566E+02 -0.40899346156E+02  0.17894250197E+02  0.93389472235E+02  0.76792243254E+02 0.  0.
          5    1    3    3  501    0  0.90285712709E+02 -0.69842996030E+01  0.23595681002E+03  0.25278053041E+03  0.47000000000E+01 0. -1.
        -11    1    4    4    0    0 -0.13843123566E+02 -0.11047801406E+02  0.15016814491E+02  0.23220480259E+02  0.00000000000E+00 0.  1.
         12    1    4    4    0    0 -0.89132837523E+01 -0.27254375145E+02  0.43391809247E+03  0.43486452897E+03  0.00000000000E+00 0. -1.
         -5    1    5    5    0  503 -0.38692103824E+02  0.86185822310E+02 -0.24413875643E+02  0.97689314613E+02  0.47000000000E+01 0.  1.
         13    1    6    6    0    0  0.18636709716E+02 -0.21710109950E+01  0.25492599515E+02  0.31653007248E+02  0.00000000000E+00 0. -1.
        -14    1    6    6    0    0 -0.47473911282E+02 -0.38728335161E+02 -0.75983493177E+01  0.61736464987E+02  0.00000000000E+00 0.  1.
</event>
<event>
12    1  0.1683022E-002  0.1885046E+03  0.7818608E-02  0.1160057E+00
         21   -1    0    0  503  502  0.00000000000E+00  0.00000000000E+00  0.55434019519E+02  0.55434019519E+02  0.00000000000E+00 0. -1.
         21   -1    0    0  501  503 -0.00000000000E+00 -0.00000000000E+00 -0.79808932757E+03  0.79808932757E+03  0.00000000000E+00 0. -1.
          6    2    1    2  501    0  0.21288794456E+02  0.74140474554E+02 -0.56196454720E+03  0.59240435793E+03  0.17084714879E+03 0.  0.
         24    2    3    3    0    0  0.54685986574E+02 -0.62822158361E+01 -0.26309725093E+03  0.28107345302E+03  0.82171157862E+02 0.  0.
         -6    2    1    2    0  502 -0.21288794456E+02 -0.74140474554E+02 -0.18069076085E+03  0.26111898915E+03  0.17199986251E+03 0.  0.
        -24    2    5    5    0    0  0.39126404233E+02 -0.63450594915E+02 -0.56254877363E+02  0.12230022652E+03  0.78967592578E+02 0.  0.
          5    1    3    3  501    0 -0.33397192118E+02  0.80422690390E+02 -0.29886729628E+03  0.31133090491E+03  0.47000000000E+01 0. -1.
        -13    1    4    4    0    0  0.42872958565E+01 -0.37785111824E+02 -0.12683966824E+03  0.13241751025E+03  0.00000000000E+00 0.  1.
         14    1    4    4    0    0  0.50398690718E+02  0.31502895988E+02 -0.13625758268E+03  0.14865594277E+03  0.00000000000E+00 0. -1.
         -5    1    5    5    0  502 -0.60415198689E+02 -0.10689879638E+02 -0.12443588349E+03  0.13881876263E+03  0.47000000000E+01 0.  1.
         13    1    6    6    0    0  0.19692001400E+02  0.16523057700E+02 -0.81267355768E+01  0.26959788316E+02  0.00000000000E+00 0. -1.
        -14    1    6    6    0    0  0.19434402832E+02 -0.79973652615E+02 -0.48128141786E+02  0.95340438209E+02  0.00000000000E+00 0.  1.
</event>
<event>
12    1  0.1683022E-002  0.4490294E+03  0.7818608E-02  0.1028014E+00
         21   -1    0    0  503  502  0.00000000000E+00  0.00000000000E+00  0.86466474948E+03  0.86466474948E+03  0.00000000000E+00 0. -1.
         21   -1    0    0  501  503 -0.00000000000E+00 -0.00000000000E+00 -0.23364544640E+03  0.23364544640E+03  0.00000000000E+00 0.  1.
          6    2    1    2  501    0 -0.41446284219E+03  0.13463262208E+02  0.29080793224E+03  0.53497350866E+03  0.17224022332E+03 0.  0.
         24    2    3    3    0    0 -0.22646699802E+03  0.70088919694E+02  0.19411205378E+03  0.31606465681E+03  0.77573320170E+02 0.  0.
         -6    2    1    2    0  502  0.41446284219E+03 -0.13463262208E+02  0.34021137084E+03  0.56333668722E+03  0.17217357326E+03 0.  0.
        -24    2    5    5    0    0  0.13063352069E+03 -0.62949375693E+01  0.18364724706E+03  0.23907616930E+03  0.79538420961E+02 0.  0.
          5    1    3    3  501    0 -0.18799584417E+03 -0.56625657486E+02  0.96695878462E+02  0.21890885186E+03  0.47000000000E+01 0. -1.
        -13    1    4    4    0    0 -0.11911544345E+03  0.15203966961E+02  0.55304358124E+02  0.13220522496E+03  0.00000000000E+00 0.  1.
         14    1    4    4    0    0 -0.10735155458E+03  0.54884952733E+02  0.13880769565E+03  0.18385943185E+03  0.00000000000E+00 0. -1.
         -5    1    5    5    0  502  0.28382932151E+03 -0.71683246384E+01  0.15656412378E+03  0.32426051792E+03  0.47000000000E+01 0.  1.
         13    1    6    6    0    0  0.11229698859E+03  0.17119641815E+01  0.91740786858E+02  0.14501695225E+03  0.00000000000E+00 0. -1.
        -14    1    6    6    0    0  0.18336532100E+02 -0.80069017507E+01  0.91906460202E+02  0.94059217050E+02  0.00000000000E+00 0.  1.
</event>
<event>
12    1  0.1683022E-002  0.2044837E+03  0.7818608E-02  0.1146089E+00
         21   -1    0    0  501  502  0.00000000000E+00  0.00000000000E+00  0.69696339430E+03  0.69696339430E+03  0.00000000000E+00 0.  1.
         21   -1    0    0  502  503 -0.00000000000E+00 -0.00000000000E+00 -0.95115469546E+02  0.95115469546E+02  0.00000000000E+00 0.  1.
          6    2    1    2  501    0 -0.10335244994E+03  0.41091223492E+02  0.54214749627E+03  0.57942860562E+03  0.17159074493E+03 0.  0.
         24    2    3    3    0    0 -0.15120914640E+02 -0.31540914438E+02  0.18190536845E+03  0.20146470266E+03  0.79214847136E+02 0.  0.
         -6    2    1    2    0  503  0.10335244994E+03 -0.41091223492E+02  0.59700428486E+02  0.21265025822E+03  0.17113086689E+03 0.  0.
        -24    2    5    5    0    0  0.80654591962E+01  0.22527950605E+02  0.51155286958E+02  0.97662783418E+02  0.79678075346E+02 0.  0.
          5    1    3    3  501    0 -0.88231535303E+02  0.72632137930E+02  0.36024212782E+03  0.37796390296E+03  0.47000000000E+01 0. -1.
        -13    1    4    4    0    0  0.81284793216E+01 -0.45342295350E+02  0.16050033496E+03  0.16698009895E+03  0.00000000000E+00 0.  1.
         14    1    4    4    0    0 -0.23249393961E+02  0.13801380912E+02  0.21405033487E+02  0.34484603713E+02  0.00000000000E+00 0. -1.
         -5    1    5    5    0  503  0.95286990746E+02 -0.63619174097E+02  0.85451415281E+01  0.11498747481E+03  0.47000000000E+01 0.  1.
         13    1    6    6    0    0 -0.23923278343E+02 -0.19145814021E+02  0.19791994083E+02  0.36477506371E+02  0.00000000000E+00 0. -1.
        -14    1    6    6    0    0  0.31988737539E+02  0.41673764626E+02  0.31363292875E+02  0.61185277048E+02  0.00000000000E+00 0.  1.
</event>
<event>
12    1  0.1683022E-002  0.2321226E+03  0.7818608E-02  0.1126911E+00
         21   -1    0    0  503  502  0.00000000000E+00  0.00000000000E+00  0.28696988888E+03  0.28696988888E+03  0.00000000000E+00 0. -1.
         21   -1    0    0  501  503 -0.00000000000E+00 -0.00000000000E+00 -0.18016860108E+03  0.18016860108E+03  0.00000000000E+00 0. -1.
          6    2    1    2  501    0 -0.13962950913E+03 -0.11274609306E+02  0.44881598504E+02  0.23642173498E+03  0.18508744489E+03 0.  0.
         24    2    3    3    0    0 -0.44908691716E+02  0.46419647609E+02 -0.24409993584E+02  0.10556274498E+03  0.79850304097E+02 0.  0.
         -6    2    1    2    0  502  0.13962950913E+03  0.11274609306E+02  0.61919689295E+02  0.23071675497E+03  0.17254754843E+03 0.  0.
        -24    2    5    5    0    0  0.14425883749E+03 -0.33221143562E+02  0.74848048831E+02  0.18391360140E+03  0.79421192327E+02 0.  0.
          5    1    3    3  501    0 -0.94720817409E+02 -0.57694256915E+02  0.69291592088E+02  0.13085899001E+03  0.47000000000E+01 0. -1.
        -13    1    4    4    0    0 -0.67570576623E+02  0.38745392308E+02 -0.24445034937E+02  0.81636682829E+02  0.00000000000E+00 0.  1.
         14    1    4    4    0    0  0.22661884907E+02  0.76742553014E+01  0.35041353451E-01  0.23926062147E+02  0.00000000000E+00 0. -1.
         -5    1    5    5    0  502 -0.46293283655E+01  0.44495752869E+02 -0.12928359536E+02  0.46803153577E+02  0.47000000000E+01 0.  1.
         13    1    6    6    0    0  0.80604793798E+02  0.59952746049E+01  0.40215973269E+01  0.80927432591E+02  0.00000000000E+00 0. -1.
        -14    1    6    6    0    0  0.63654043693E+02 -0.39216418167E+02  0.70826451504E+02  0.10298616880E+03  0.00000000000E+00 0.  1.
</event>
<event>
12    1  0.1683022E-002  0.1865435E+03  0.7818608E-02  0.1161899E+00
         21   -1    0    0  503  502  0.00000000000E+00  0.00000000000E+00  0.11916009026E+03  0.11916009026E+03  0.00000000000E+00 0.  1.
         21   -1    0    0  501  503 -0.00000000000E+00 -0.00000000000E+00 -0.34527602811E+03  0.34527602811E+03  0.00000000000E+00 0.  1.
          6    2    1    2  501    0  0.23125173373E+02  0.62686705225E+02 -0.20618051191E+03  0.27804475573E+03  0.17416683393E+03 0.  0.
         24    2    3    3    0    0 -0.17563909515E+02  0.54907904574E+02 -0.21407160466E+03  0.23561280373E+03  0.79770749386E+02 0.  0.
         -6    2    1    2    0  502 -0.23125173373E+02 -0.62686705225E+02 -0.19935425934E+02  0.18639136265E+03  0.17285809847E+03 0.  0.
        -24    2    5    5    0    0  0.15139417249E+01 -0.58393310321E+02  0.49731721843E+02  0.11222182232E+03  0.81904960401E+02 0.  0.
          5    1    3    3  501    0  0.40689082888E+02  0.77788006512E+01  0.78910927446E+01  0.42431952000E+02  0.47000000000E+01 0. -1.
        -11    1    4    4    0    0  0.25401097856E+02  0.34194819236E+01 -0.10053572577E+03  0.10375134112E+03  0.00000000000E+00 0.  1.
         12    1    4    4    0    0 -0.42965007371E+02  0.51488422650E+02 -0.11353587889E+03  0.13186146261E+03  0.00000000000E+00 0. -1.
         -5    1    5    5    0  502 -0.24639115098E+02 -0.42933949046E+01 -0.69667147776E+02  0.74169540324E+02  0.47000000000E+01 0.  1.
         13    1    6    6    0    0 -0.23663140607E+02  0.11379193486E+02  0.15887922861E+02  0.30689678406E+02  0.00000000000E+00 0. -1.
        -14    1    6    6    0    0  0.25177082332E+02 -0.69772503807E+02  0.33843798982E+02  0.81532143918E+02  0.00000000000E+00 0.  1.
</event>
<event>
12    1  0.1683022E-002  0.2020933E+03  0.7818608E-02  0.1148186E+00
         21   -1    0    0  501  502  0.00000000000E+00  0.00000000000E+00  0.11636850209E+04  0.11636850209E+04  0.00000000000E+00 0.  1.
         21   -1    0    0  502  503 -0.00000000000E+00 -0.00000000000E+00 -0.34929322006E+02  0.34929322006E+02  0.00000000000E+00 0. -1.
          6    2    1    2  501    0 -0.66128841165E+02 -0.81019526855E+02  0.56675958247E+03  0.60171266543E+03  0.17292923423E+03 0.  0.
         24    2    3    3    0    0 -0.95410783922E+02 -0.14182546389E+02  0.28796911316E+03  0.31349255873E+03  0.77762535539E+02 0.  0.
         -6    2    1    2    0  503  0.66128841165E+02  0.81019526855E+02  0.56199611645E+03  0.59690167750E+03  0.17179869130E+03 0.  0.
        -24    2    5    5    0    0  0.50646684194E+02 -0.19684277878E+02  0.22001260625E+03  0.24003228301E+03  0.79103682375E+02 0.  0.
          5    1    3    3  501    0  0.29281942757E+02 -0.66836980466E+02  0.27879046930E+03  0.28822010669E+03  0.47000000000E+01 0. -1.
        -11    1    4    4    0    0 -0.98316737849E+02 -0.27127839101E+02  0.28004445241E+03  0.29803858126E+03  0.00000000000E+00 0.  1.
         12    1    4    4    0    0  0.29059539261E+01  0.12945292712E+02  0.79246607569E+01  0.15453977473E+02  0.00000000000E+00 0. -1.
         -5    1    5    5    0  503  0.15482156971E+02  0.10070380473E+03  0.34198351020E+03  0.35686939449E+03  0.47000000000E+01 0.  1.
         11    1    6    6    0    0  0.36189378417E+02  0.23567495471E+02  0.61915832210E+02  0.75489523984E+02  0.00000000000E+00 0. -1.
        -12    1    6    6    0    0  0.14457305777E+02 -0.43251773349E+02  0.15809677404E+03  0.16454275903E+03  0.00000000000E+00 0.  1.
</event>
<event>
12    1  0.1683022E-002  0.2544499E+03  0.7818608E-02  0.1110565E+00
         21   -1    0    0  501  502  0.00000000000E+00  0.00000000000E+00  0.54034050158E+03  0.54034050158E+03  0.00000000000E+00 0.  1.
         21   -1    0    0  502  503 -0.00000000000E+00 -0.00000000000E+00 -0.26007760463E+03  0.26007760463E+03  0.00000000000E+00 0. -1.
          6    2    1    2  501    0  0.18092644220E+03  0.49806366603E+02  0.43412545889E+03  0.50306574422E+03  0.17145021817E+03 0.  0.
         24    2    3    3    0    0  0.44910827314E+02  0.69860379402E+02  0.18880665556E+03  0.22180818221E+03  0.81568753150E+02 0.  0.
         -6    2    1    2    0  503 -0.18092644220E+03 -0.49806366603E+02 -0.15386256194E+03  0.29735236200E+03  0.17184204254E+03 0.  0.
        -24    2    5    5    0    0 -0.39884837290E+02  0.13340662471E+02 -0.96568387125E+02  0.13247363668E+03  0.80343248027E+02 0.  0.
          5    1    3    3  501    0  0.13601561488E+03 -0.20054012799E+02  0.24531880332E+03  0.28125756201E+03  0.47000000000E+01 0. -1.
        -11    1    4    4    0    0 -0.15522365629E+02  0.32179589518E+02  0.10967540309E+03  0.11534801194E+03  0.00000000000E+00 0.  1.
         12    1    4    4    0    0  0.60433192943E+02  0.37680789884E+02  0.79131252476E+02  0.10646017027E+03  0.00000000000E+00 0. -1.
         -5    1    5    5    0  503 -0.14104160491E+03 -0.63147029074E+02 -0.57294174811E+02  0.16487872532E+03  0.47000000000E+01 0.  1.
         11    1    6    6    0    0  0.24429132196E+02  0.96163806681E+01 -0.27080621328E+02  0.37717599718E+02  0.00000000000E+00 0. -1.
        -12    1    6    6    0    0 -0.64313969486E+02  0.37242818027E+01 -0.69487765797E+02  0.94756036966E+02  0.00000000000E+00 0.  1.
</event>
<event>
12    1  0.1683022E-002  0.1978478E+03  0.7818608E-02  0.1151693E+00
         21   -1    0    0  503  502  0.00000000000E+00  0.00000000000E+00  0.19847325526E+03  0.19847325526E+03  0.00000000000E+00 0. -1.
         21   -1    0    0  501  503 -0.00000000000E+00 -0.00000000000E+00 -0.22124339091E+03  0.22124339091E+03  0.00000000000E+00 0. -1.
          6    2    1    2  501    0  0.97930820944E+02  0.35043318642E+01 -0.81349191699E+02  0.21337895864E+03  0.17120211146E+03 0.  0.
         24    2    3    3    0    0  0.87729571954E+02 -0.59219792536E+02 -0.46010979401E+02  0.14051428606E+03  0.80148566660E+02 0.  0.
         -6    2    1    2    0  502 -0.97930820944E+02 -0.35043318642E+01  0.58579056048E+02  0.20633768753E+03  0.17187498205E+03 0.  0.
        -24    2    5    5    0    0 -0.75674806976E+02  0.55994498545E+02  0.68981196880E+02  0.14179517819E+03  0.80532023182E+02 0.  0.
          5    1    3    3  501    0  0.10201248990E+02  0.62724124400E+02 -0.35338212298E+02  0.72864672586E+02  0.47000000000E+01 0. -1.
        -11    1    4    4    0    0 -0.20944292724E+01  0.14350227652E+02 -0.13806841155E+02  0.20023599335E+02  0.00000000000E+00 0.  1.
         12    1    4    4    0    0  0.89824001227E+02 -0.73570020188E+02 -0.32204138246E+02  0.12049068672E+03  0.00000000000E+00 0. -1.
         -5    1    5    5    0  502 -0.22256013968E+02 -0.59498830409E+02 -0.10402140832E+02  0.64542509338E+02  0.47000000000E+01 0.  1.
         13    1    6    6    0    0 -0.45701464174E+02  0.39542538756E+01 -0.54081705158E+01  0.46189915129E+02  0.00000000000E+00 0. -1.
        -14    1    6    6    0    0 -0.29973342803E+02  0.52040244669E+02  0.74389367396E+02  0.95605263064E+02  0.00000000000E+00 0.  1.
</event>
<event>
12    1  0.1683022E-002  0.1830945E+03  0.7818608E-02  0.1165225E+00
         21   -1    0    0  501  502  0.00000000000E+00  0.00000000000E+00  0.95433871568E+02  0.95433871568E+02  0.00000000000E+00 0. -1.
         21   -1    0    0  502  503 -0.00000000000E+00 -0.00000000000E+00 -0.39472643805E+03  0.39472643805E+03  0.00000000000E+00 0. -1.
          6    2    1    2  501    0  0.49832662052E+02 -0.32064858226E+02 -0.64910541158E+02  0.19274050650E+03  0.17153447219E+03 0.  0.
         24    2    3    3    0    0  0.77053335865E+02 -0.67498396815E+02 -0.22315661558E+02  0.13082997017E+03  0.78263926583E+02 0.  0.
         -6    2    1    2    0  503 -0.49832662052E+02  0.32064858226E+02 -0.23438202532E+03  0.29741980312E+03  0.17324016899E+03 0.  0.
        -24    2    5    5    0    0 -0.15357596684E+02 -0.48998884373E+02 -0.12940308971E+03  0.16029749487E+03  0.79456785679E+02 0.  0.
          5    1    3    3  501    0 -0.27220673812E+02  0.35433538589E+02 -0.42594879600E+02  0.61910536324E+02  0.47000000000E+01 0. -1.
        -13    1    4    4    0    0  0.47335412376E+02 -0.48214845221E+02 -0.51479496009E+02  0.84943811275E+02  0.00000000000E+00 0.  1.
         14    1    4    4    0    0  0.29717923488E+02 -0.19283551594E+02  0.29163834451E+02  0.45886158898E+02  0.00000000000E+00 0. -1.
         -5    1    5    5    0  503 -0.34475065369E+02  0.81063742599E+02 -0.10497893561E+03  0.13712230824E+03  0.47000000000E+01 0.  1.
         11    1    6    6    0    0 -0.42176716468E+02 -0.41045719146E+02 -0.11416780729E+03  0.12844420849E+03  0.00000000000E+00 0. -1.
        -12    1    6    6    0    0  0.26819119784E+02 -0.79531652269E+01 -0.15235282416E+02  0.31853286384E+02  0.00000000000E+00 0.  1.
</event>
<event>
12    1  0.1683022E-002  0.2376232E+03  0.7818608E-02  0.1122585E+00
         21   -1    0    0  501  502  0.00000000000E+00  0.00000000000E+00  0.97429507655E+02  0.97429507655E+02  0.00000000000E+00 0.  1.
         21   -1    0    0  502  503 -0.00000000000E+00 -0.00000000000E+00 -0.59061114458E+03  0.59061114458E+03  0.00000000000E+00 0.  1.
          6    2    1    2  501    0  0.15632569135E+03  0.20728831041E+02 -0.16819174405E+03  0.28544505086E+03  0.16829440895E+03 0.  0.
         24    2    3    3    0    0  0.55215105423E+02  0.20396039585E+01 -0.15286643717E+03  0.18137972126E+03  0.80483463019E+02 0.  0.
         -6    2    1    2    0  503 -0.15632569135E+03 -0.20728831041E+02 -0.32498989287E+03  0.40259560137E+03  0.17775652326E+03 0.  0.
        -24    2    5    5    0    0 -0.14158168429E+03 -0.44024006095E+02 -0.33139013848E+03  0.37390581105E+03  0.89457505097E+02 0.  0.
          5    1    3    3  501    0  0.10111058593E+03  0.18689227082E+02 -0.15325306884E+02  0.10406532961E+03  0.47000000000E+01 0. -1.
        -13    1    4    4    0    0  0.35637526672E+02  0.39543266330E+02 -0.66277435816E+02  0.85008244998E+02  0.00000000000E+00 0.  1.
         14    1    4    4    0    0  0.19577578750E+02 -0.37503662372E+02 -0.86589001353E+02  0.96371476259E+02  0.00000000000E+00 0. -1.
         -5    1    5    5    0  503 -0.14744007058E+02  0.23295175054E+02  0.64002456023E+01  0.28689790322E+02  0.47000000000E+01 0.  1.
         13    1    6    6    0    0 -0.13141469099E+02  0.21655095314E+02 -0.81718082463E+02  0.85553996777E+02  0.00000000000E+00 0. -1.
        -14    1    6    6    0    0 -0.12844021519E+03 -0.65679101409E+02 -0.24967205601E+03  0.28835181427E+03  0.00000000000E+00 0.  1.
</event>
<event>
12    1  0.1683022E-002  0.2316865E+03  0.7818608E-02  0.1125606E+00
         21   -1    0    0  501  502  0.00000000000E+00  0.00000000000E+00  0.13009657805E+03  0.13009657805E+03  0.00000000000E+00 0.  1.
         21   -1    0    0  502  503 -0.00000000000E+00 -0.00000000000E+00 -0.77743649971E+03  0.77743649971E+03  0.00000000000E+00 0.  1.
          6    2    1    2  501    0 -0.68043925550E+02 -0.13890030575E+03 -0.12495820223E+02  0.23202321270E+03  0.17249740569E+03 0.  0.
         24    2    3    3    0    0 -0.69671739590E+02 -0.72909540339E+02  0.53140355196E+02  0.13881576439E+03  0.79220999248E+02 0.  0.
         -6    2    1    2    0  503  0.68043925550E+02  0.13890030575E+03 -0.63484410143E+03  0.67550986506E+03  0.17135715313E+03 0.  0.
        -24    2    5    5    0    0 -0.12970907295E+02  0.88461057033E+02 -0.46867787636E+03  0.48383090089E+03  0.80248276086E+02 0.  0.
          5    1    3    3  501    0  0.16278140403E+01 -0.65990765411E+02 -0.65636175420E+02  0.93207448317E+02  0.47000000000E+01 0. -1.
        -11    1    4    4    0    0  0.18148469409E+01  0.99995269890E+01  0.23191404891E+02  0.25320455569E+02  0.00000000000E+00 0.  1.
         12    1    4    4    0    0 -0.71486586531E+02 -0.82909067328E+02  0.29948950305E+02  0.11349530882E+03  0.00000000000E+00 0. -1.
         -5    1    5    5    0  503  0.81014832845E+02  0.50439248718E+02 -0.16616622507E+03  0.19167896418E+03  0.47000000000E+01 0.  1.
         13    1    6    6    0    0 -0.22985616823E+02 -0.69165683819E+01 -0.82294503303E+02  0.85723758509E+02  0.00000000000E+00 0. -1.
        -14    1    6    6    0    0  0.10014709528E+02  0.95377625415E+02 -0.38638337306E+03  0.39810714238E+03  0.00000000000E+00 0.  1.
</event>
<event>
12    1  0.1683022E-002  0.1895918E+03  0.7818608E-02  0.1159059E+00
         21   -1    0    0  503  502  0.00000000000E+00  0.00000000000E+00  0.74629832977E+03  0.74629832977E+03  0.00000000000E+00 0. -1.
         21   -1    0    0  501  503 -0.00000000000E+00 -0.00000000000E+00 -0.47994176152E+02  0.47994176152E+02  0.00000000000E+00 0. -1.
          6    2    1    2  501    0  0.26721837757E+02 -0.75575686311E+02  0.36686214091E+03  0.41295626140E+03  0.17181182270E+03 0.  0.
         24    2    3    3    0    0  0.29419170695E+02 -0.84107269545E+02  0.13402415812E+03  0.17989901575E+03  0.80384454433E+02 0.  0.
         -6    2    1    2    0  502 -0.26721837757E+02  0.75575686311E+02  0.33144201271E+03  0.38133624453E+03  0.17069792801E+03 0.  0.
        -24    2    5    5    0    0 -0.58780308440E+02  0.40198405401E+02  0.10437832166E+03  0.14926016360E+03  0.79452664822E+02 0.  0.
          5    1    3    3  501    0 -0.26973329390E+01  0.85315832335E+01  0.23283798279E+03  0.23305724564E+03  0.47000000000E+01 0. -1.
        -13    1    4    4    0    0  0.30080629467E+02 -0.23493652757E+02  0.65223707099E+01  0.38721277208E+02  0.00000000000E+00 0.  1.
         14    1    4    4    0    0 -0.66145877103E+00 -0.60613616788E+02  0.12750178741E+03  0.14117773855E+03  0.00000000000E+00 0. -1.
         -5    1    5    5    0  502  0.32058470683E+02  0.35377280910E+02  0.22706369105E+03  0.23207608093E+03  0.47000000000E+01 0.  1.
         13    1    6    6    0    0 -0.17894741023E+02  0.58865903771E+02  0.55513991080E+02  0.82868688832E+02  0.00000000000E+00 0. -1.
        -14    1    6    6    0    0 -0.40885567417E+02 -0.18667498371E+02  0.48864330581E+02  0.66391474766E+02  0.00000000000E+00 0.  1.
</event>
<event>
12    1  0.1683022E-002  0.1912589E+03  0.7818608E-02  0.1157399E+00
         21   -1    0    0  501  502  0.00000000000E+00  0.00000000000E+00  0.17236829745E+03  0.17236829745E+03  0.00000000000E+00 0.  1.
         21   -1    0    0  502  503 -0.00000000000E+00 -0.00000000000E+00 -0.21380793022E+03  0.21380793022E+03  0.00000000000E+00 0.  1.
          6    2    1    2  501    0 -0.83809539942E+02  0.12606465843E+02 -0.24186205071E+01  0.19127415895E+03  0.17145551082E+03 0.  0.
         24    2    3    3    0    0 -0.67743880318E+02  0.43943386762E+02 -0.57929585828E+02  0.12536766987E+03  0.76426181212E+02 0.  0.
         -6    2    1    2    0  503  0.83809539942E+02 -0.12606465843E+02 -0.39021012257E+02  0.19490206871E+03  0.17111754739E+03 0.  0.
        -24    2    5    5    0    0  0.25615775735E+02 -0.27204402992E+01  0.43123642159E+02  0.93639627785E+02  0.79026341284E+02 0.  0.
          5    1    3    3  501    0 -0.16065659624E+02 -0.31336920920E+02  0.55510965321E+02  0.65906489080E+02  0.47000000000E+01 0. -1.
        -13    1    4    4    0    0 -0.34635698472E+02  0.53514180037E+02 -0.73562112418E+01  0.64167849563E+02  0.00000000000E+00 0.  1.
         14    1    4    4    0    0 -0.33108181846E+02 -0.95707932747E+01 -0.50573374587E+02  0.61199820311E+02  0.00000000000E+00 0. -1.
         -5    1    5    5    0  503  0.58193764207E+02 -0.98860255434E+01 -0.82144654415E+02  0.10126244093E+03  0.47000000000E+01 0.  1.
         13    1    6    6    0    0 -0.23638374409E+02 -0.18735446129E+02  0.84913946458E+01  0.31335179421E+02  0.00000000000E+00 0. -1.
        -14    1    6    6    0    0  0.49254150144E+02  0.16015005829E+02  0.34632247513E+02  0.62304448364E+02  0.00000000000E+00 0.  1.
</event>
<event>
12    1  0.1683022E-002  0.3097554E+03  0.7818608E-02  0.1080514E+00
         21   -1    0    0  503  502  0.00000000000E+00  0.00000000000E+00  0.49060754980E+03  0.49060754980E+03  0.00000000000E+00 0. -1.
         21   -1    0    0  501  503 -0.00000000000E+00 -0.00000000000E+00 -0.19561682462E+03  0.19561682462E+03  0.00000000000E+00 0.  1.
          6    2    1    2  501    0  0.82597065120E+02  0.24309318954E+03  0.13383635130E+03  0.33743233044E+03  0.17329695533E+03 0.  0.
         24    2    3    3    0    0 -0.15498540416E+02  0.12999496288E+03  0.10449692629E+03  0.18479927845E+03  0.78052998552E+02 0.  0.
         -6    2    1    2    0  502 -0.82597065120E+02 -0.24309318954E+03  0.16115437388E+03  0.34879204398E+03  0.17253574631E+03 0.  0.
        -24    2    5    5    0    0 -0.37568341349E+02 -0.61651851165E+02  0.10838805912E+03  0.15448579290E+03  0.83099686064E+02 0.  0.
          5    1    3    3  501    0  0.98095605536E+02  0.11309822666E+03  0.29339425011E+02  0.15263305198E+03  0.47000000000E+01 0. -1.
        -11    1    4    4    0    0 -0.16585064024E+02  0.32797191215E+02 -0.64285429507E+01  0.37310136220E+02  0.00000000000E+00 0.  1.
         12    1    4    4    0    0  0.10865236080E+01  0.97197771669E+02  0.11092546924E+03  0.14748914223E+03  0.00000000000E+00 0. -1.
         -5    1    5    5    0  502 -0.45028723771E+02 -0.18144133838E+03  0.52766314766E+02  0.19430625108E+03  0.47000000000E+01 0.  1.
         13    1    6    6    0    0 -0.18934259496E+02 -0.97551216479E-01 -0.87464203324E+01  0.20857026815E+02  0.00000000000E+00 0. -1.
        -14    1    6    6    0    0 -0.18634081853E+02 -0.61554299948E+02  0.11713447945E+03  0.13362876608E+03  0.00000000000E+00 0.  1.
</event>
<event>
12    1  0.1683022E-002  0.1772633E+03  0.7818608E-02  0.1170587E+00
         21   -1    0    0  503  502  0.00000000000E+00  0.00000000000E+00  0.26685644761E+03  0.26685644761E+03  0.00000000000E+00 0.  1.
         21   -1    0    0  501  503 -0.00000000000E+00 -0.00000000000E+00 -0.12775445089E+03  0.12775445089E+03  0.00000000000E+00 0.  1.
          6    2    1    2  501    0 -0.34459704544E+02 -0.22403325413E+02  0.12564544338E+03  0.21727646048E+03  0.17243231313E+03 0.  0.
         24    2    3    3    0    0 -0.64308524099E+02 -0.64883875716E+02  0.11212776491E+03  0.16342140673E+03  0.76081646378E+02 0.  0.
         -6    2    1    2    0  502  0.34459704544E+02  0.22403325413E+02  0.13456553337E+02  0.17733443801E+03  0.17197977745E+03 0.  0.
        -24    2    5    5    0    0 -0.45286513662E+02  0.34607449287E+02 -0.29129353821E+01  0.94881723571E+02  0.75799158370E+02 0.  0.
          5    1    3    3  501    0  0.29848819555E+02  0.42480550303E+02  0.13517678474E+02  0.53855053748E+02  0.47000000000E+01 0. -1.
        -11    1    4    4    0    0  0.56927046844E+01 -0.25707875062E+02  0.65598652063E+02  0.70685818092E+02  0.00000000000E+00 0.  1.
         12    1    4    4    0    0 -0.70001228784E+02 -0.39176000655E+02  0.46529112845E+02  0.92735588642E+02  0.00000000000E+00 0. -1.
         -5    1    5    5    0  502  0.79746218206E+02 -0.12204123874E+02  0.16369488719E+02  0.82452714441E+02  0.47000000000E+01 0.  1.
         13    1    6    6    0    0 -0.79541276111E+01 -0.23104079801E+02  0.70452769452E+01  0.25430347554E+02  0.00000000000E+00 0. -1.
        -14    1    6    6    0    0 -0.37332386051E+02  0.57711529088E+02 -0.99582123273E+01  0.69451376017E+02  0.00000000000E+00 0.  1.
</event>
<event>
12    1  0.1683022E-002  0.1824036E+03  0.7818608E-02  0.1165546E+00
         21   -1    0    0  503  502  0.00000000000E+00  0.00000000000E+00  0.13102490987E+04  0.13102490987E+04  0.00000000000E+00 0.  1.
         21   -1    0    0  501  503 -0.00000000000E+00 -0.00000000000E+00 -0.42922526750E+02  0.42922526750E+02  0.00000000000E+00 0.  1.
          6    2    1    2  501    0 -0.57403824259E+02 -0.15846769497E+02  0.20113929675E+03  0.27152915901E+03  0.17240866670E+03 0.  0.
         24    2    3    3    0    0 -0.87645063952E+02 -0.26598960204E+02  0.76788078546E+02  0.14301667848E+03  0.78537885111E+02 0.  0.
         -6    2    1    2    0  502  0.57403824259E+02  0.15846769497E+02  0.10661872752E+04  0.10816424664E+04  0.17218826982E+03 0.  0.
        -24    2    5    5    0    0 -0.20154938812E+02 -0.35221264290E+02  0.50955866635E+03  0.51730143126E+03  0.79397590070E+02 0.  0.
          5    1    3    3  501    0  0.30241239693E+02  0.10752190708E+02  0.12435121821E+03  0.12851248053E+03  0.47000000000E+01 0. -1.
        -13    1    4    4    0    0 -0.98424982684E+02 -0.75692484101E+01  0.60991479926E+02  0.11603762908E+03  0.00000000000E+00 0.  1.
         14    1    4    4    0    0  0.10779918732E+02 -0.19029711794E+02  0.15796598620E+02  0.26979049405E+02  0.00000000000E+00 0. -1.
         -5    1    5    5    0  502  0.77558763071E+02  0.51068033787E+02  0.55662860886E+03  0.56434103519E+03  0.47000000000E+01 0.  1.
         13    1    6    6    0    0 -0.22128044343E+02 -0.36353438804E+02  0.11319285528E+03  0.12092909222E+03  0.00000000000E+00 0. -1.
        -14    1    6    6    0    0  0.19731055307E+01  0.11321745136E+01  0.39636581107E+03  0.39637233904E+03  0.00000000000E+00 0.  1.
</event>
<event>
12    1  0.1683022E-002  0.1865926E+03  0.7818608E-02  0.1164837E+00
         21   -1    0    0  503  502  0.00000000000E+00  0.00000000000E+00  0.40788104508E+02  0.40788104508E+02  0.00000000000E+00 0.  1.
         21   -1    0    0  501  503 -0.00000000000E+00 -0.00000000000E+00 -0.16900677373E+04  0.16900677373E+04  0.00000000000E+00 0.  1.
          6    2    1    2  501    0 -0.20853494005E+02  0.14139213102E-01 -0.14697017773E+04  0.14814992762E+04  0.18542363018E+03 0.  0.
         24    2    3    3    0    0  0.41923844811E+02  0.29873722533E+02 -0.11679198547E+04  0.11717784215E+04  0.79861342862E+02 0.  0.
         -6    2    1    2    0  502  0.20853494005E+02 -0.14139213102E-01 -0.17957785542E+03  0.24935656559E+03  0.17174289572E+03 0.  0.
        -24    2    5    5    0    0  0.55522503136E+01 -0.10370904239E+02 -0.14073820601E+02  0.82758047638E+02  0.80699683297E+02 0.  0.
          5    1    3    3  501    0 -0.62777338816E+02 -0.29859583320E+02 -0.30178192268E+03  0.30972085471E+03  0.47000000000E+01 0. -1.
        -13    1    4    4    0    0 -0.12444962153E+01  0.28373346858E+02 -0.89593542660E+03  0.89638545516E+03  0.00000000000E+00 0.  1.
         14    1    4    4    0    0  0.43168341026E+02  0.15003756748E+01 -0.27198442805E+03  0.27539296632E+03  0.00000000000E+00 0. -1.
         -5    1    5    5    0  502  0.15301243692E+02  0.10356765026E+02 -0.16550403482E+03  0.16659851795E+03  0.47000000000E+01 0.  1.
         13    1    6    6    0    0 -0.88803875232E+01 -0.78255997579E+01 -0.46069462432E+02  0.47565708897E+02  0.00000000000E+00 0. -1.
        -14    1    6    6    0    0  0.14432637837E+02 -0.25453044811E+01  0.31995641831E+02  0.35192338740E+02  0.00000000000E+00 0.  1.
</event>
<event>
12    1  0.1683022E-002  0.2102299E+03  0.7818608E-02  0.1141388E+00
         21   -1    0    0  501  502  0.00000000000E+00  0.00000000000E+00  0.67555962062E+02  0.67555962062E+02  0.00000000000E+00 0.  1.
         21   -1    0    0  502  503 -0.00000000000E+00 -0.00000000000E+00 -0.68118638732E+03  0.68118638732E+03  0.00000000000E+00 0. -1.
          6    2    1    2  501    0 -0.11997628702E+03  0.72158877464E+01 -0.23222488684E+03  0.31323482994E+03  0.17245660943E+03 0.  0.
         24    2    3    3    0    0  0.12448861066E+01  0.76321153097E+01 -0.13885299922E+03  0.16014941111E+03  0.79422160398E+02 0.  0.
         -6    2    1    2    0  503  0.11997628702E+03 -0.72158877464E+01 -0.38140553842E+03  0.43550751944E+03  0.17248256802E+03 0.  0.
        -24    2    5    5    0    0  0.21825399296E+02 -0.56771065096E+02 -0.20168525749E+03  0.22476886200E+03  0.78388751426E+02 0.  0.
          5    1    3    3  501    0 -0.12122117313E+03 -0.41622756334E+00 -0.93371887620E+02  0.15308541883E+03  0.47000000000E+01 0. -1.
        -13    1    4    4    0    0 -0.14277900908E+02 -0.32752799586E+02 -0.51657568884E+02  0.62810100764E+02  0.00000000000E+00 0.  1.
         14    1    4    4    0    0  0.15522787014E+02  0.40384914896E+02 -0.87195430336E+02  0.97339310350E+02  0.00000000000E+00 0. -1.
         -5    1    5    5    0  503  0.98150887724E+02  0.49555177350E+02 -0.17972028093E+03  0.21073865745E+03  0.47000000000E+01 0.  1.
         11    1    6    6    0    0 -0.94908517394E+01  0.16564938050E+02 -0.47250360900E+02  0.50961456460E+02  0.00000000000E+00 0. -1.
        -12    1    6    6    0    0  0.31316251035E+02 -0.73336003146E+02 -0.15443489658E+03  0.17380740554E+03  0.00000000000E+00 0.  1.
</event>
<event>
12    1  0.1683022E-002  0.2167781E+03  0.7818608E-02  0.1136333E+00
         21   -1    0    0  503  502  0.00000000000E+00  0.00000000000E+00  0.74614995572E+02  0.74614995572E+02  0.00000000000E+00 0.  1.
         21   -1    0    0  501  503 -0.00000000000E+00 -0.00000000000E+00 -0.80942158569E+03  0.80942158569E+03  0.00000000000E+00 0.  1.
          6    2    1    2  501    0 -0.11632026799E+03  0.62045815635E+02 -0.57576214659E+03  0.61517254961E+03  0.17191605034E+03 0.  0.
         24    2    3    3    0    0 -0.82731432658E+02  0.95005355042E+01 -0.51556122992E+03  0.52836554131E+03  0.80199833650E+02 0.  0.
         -6    2    1    2    0  502  0.11632026799E+03 -0.62045815635E+02 -0.15904444352E+03  0.26886403165E+03  0.17208324879E+03 0.  0.
        -24    2    5    5    0    0  0.14724742565E+02 -0.46396288539E+02 -0.19127324001E+02  0.95181997977E+02  0.79525622171E+02 0.  0.
          5    1    3    3  501    0 -0.33588835331E+02  0.52545280131E+02 -0.60200916671E+02  0.86807008305E+02  0.47000000000E+01 0. -1.
        -11    1    4    4    0    0 -0.69295617095E+02  0.28607403750E+02 -0.23129338225E+03  0.24313966104E+03  0.00000000000E+00 0.  1.
         12    1    4    4    0    0 -0.13435815562E+02 -0.19106868246E+02 -0.28426784767E+03  0.28522588027E+03  0.00000000000E+00 0. -1.
         -5    1    5    5    0  502  0.10159552542E+03 -0.15649527096E+02 -0.13991711952E+03  0.17368203367E+03  0.47000000000E+01 0.  1.
         13    1    6    6    0    0 -0.18662695497E+02 -0.55507587890E+02 -0.13813302512E+02  0.60168063314E+02  0.00000000000E+00 0. -1.
        -14    1    6    6    0    0  0.33387438062E+02  0.91112993516E+01 -0.53140214884E+01  0.35013934664E+02  0.00000000000E+00 0.  1.
</event>
<event>
12    1  0.1683022E-002  0.1729311E+03  0.7818608E-02  0.1175306E+00
         21   -1    0    0  503  502  0.00000000000E+00  0.00000000000E+00  0.21727642811E+02  0.21727642811E+02  0.00000000000E+00 0. -1.
         21   -1    0    0  501  503 -0.00000000000E+00 -0.00000000000E+00 -0.16212685655E+04  0.16212685655E+04  0.00000000000E+00 0. -1.
          6    2    1    2  501    0  0.21419865716E+02  0.61887723917E+00 -0.46728276425E+03  0.49760819461E+03  0.16971016445E+03 0.  0.
         24    2    3    3    0    0  0.52206444767E+02  0.36825892405E+02 -0.19122299340E+03  0.21744779684E+03  0.81459510912E+02 0.  0.
         -6    2    1    2    0  502 -0.21419865716E+02 -0.61887723917E+00 -0.11322581584E+04  0.11453880137E+04  0.17159828358E+03 0.  0.
        -24    2    5    5    0    0 -0.23833407351E+02 -0.15422714774E+02 -0.27513312631E+03  0.28811886723E+03  0.80674364117E+02 0.  0.
          5    1    3    3  501    0 -0.30786579051E+02 -0.36207015166E+02 -0.27605977085E+03  0.28016039777E+03  0.47000000000E+01 0. -1.
        -11    1    4    4    0    0  0.93671949349E+01  0.19899494175E+02 -0.16068289158E+03  0.16218115136E+03  0.00000000000E+00 0.  1.
         12    1    4    4    0    0  0.42839249832E+02  0.16926398229E+02 -0.30540101817E+02  0.55266645476E+02  0.00000000000E+00 0. -1.
         -5    1    5    5    0  502  0.24135416346E+01  0.14803837535E+02 -0.85712503208E+03  0.85726914642E+03  0.47000000000E+01 0.  1.
         13    1    6    6    0    0 -0.28329345567E+02 -0.17023068907E+02 -0.27962123638E+03  0.28156770506E+03  0.00000000000E+00 0. -1.
        -14    1    6    6    0    0  0.44959382166E+01  0.16003541330E+01  0.44881100740E+01  0.65511621744E+01  0.00000000000E+00 0.  1.
</event>
<event>
12    1  0.1683022E-002  0.2530965E+03  0.7818608E-02  0.1111459E+00
         21   -1    0    0  501  502  0.00000000000E+00  0.00000000000E+00  0.77552284484E+03  0.77552284484E+03  0.00000000000E+00 0.  1.
         21   -1    0    0  502  503 -0.00000000000E+00 -0.00000000000E+00 -0.92100074720E+02  0.92100074720E+02  0.00000000000E+00 0. -1.
          6    2    1    2  501    0  0.11859150419E+03  0.14262040890E+03  0.48287237469E+03  0.54518213423E+03  0.17220134534E+03 0.  0.
         24    2    3    3    0    0  0.55332980635E+02  0.76160849817E+02  0.41191425986E+03  0.42909743301E+03  0.74759853861E+02 0.  0.
         -6    2    1    2    0  503 -0.11859150419E+03 -0.14262040890E+03  0.20055039543E+03  0.32244078534E+03  0.17129819918E+03 0.  0.
        -24    2    5    5    0    0 -0.13117648412E+03 -0.15991805424E+03  0.20283740099E+03  0.30042009850E+03  0.79549797522E+02 0.  0.
          5    1    3    3  501    0  0.63258523551E+02  0.66459559082E+02  0.70958114830E+02  0.11608470121E+03  0.47000000000E+01 0. -1.
        -11    1    4    4    0    0  0.42129694470E+02  0.74110522441E+02  0.20863241377E+03  0.22537693930E+03  0.00000000000E+00 0.  1.
         12    1    4    4    0    0  0.13203286165E+02  0.20503273760E+01  0.20328184609E+03  0.20372049371E+03  0.00000000000E+00 0. -1.
         -5    1    5    5    0  503  0.12584979935E+02  0.17297645342E+02 -0.22870055570E+01  0.22020686837E+02  0.47000000000E+01 0.  1.
         11    1    6    6    0    0 -0.86194283673E+02 -0.10569765056E+03  0.78107914973E+02  0.15716963528E+03  0.00000000000E+00 0. -1.
        -12    1    6    6    0    0 -0.44982200448E+02 -0.54220403679E+02  0.12472948601E+03  0.14325046322E+03  0.00000000000E+00 0.  1.
</event>
<event>
12    1  0.1683022E-002  0.1800891E+03  0.7818608E-02  0.1167778E+00
         21   -1    0    0  503  502  0.00000000000E+00  0.00000000000E+00  0.82127886525E+03  0.82127886525E+03  0.00000000000E+00 0. -1.
         21   -1    0    0  501  503 -0.00000000000E+00 -0.00000000000E+00 -0.50673951602E+02  0.50673951602E+02  0.00000000000E+00 0. -1.
          6    2    1    2  501    0 -0.49569346690E+02 -0.53280341592E+01  0.17976019111E+03  0.25427201486E+03  0.17278606181E+03 0.  0.
         24    2    3    3    0    0 -0.22056525687E+02 -0.53746572453E+02  0.17050114828E+03  0.19762283090E+03  0.81295494030E+02 0.  0.
         -6    2    1    2    0  502  0.49569346690E+02  0.53280341592E+01  0.59084472253E+03  0.61768080199E+03  0.17305079865E+03 0.  0.
        -24    2    5    5    0    0  0.74056529508E+02  0.37723523418E+02  0.26520103320E+03  0.28948117942E+03  0.80995873028E+02 0.  0.
          5    1    3    3  501    0 -0.27512821003E+02  0.48418538294E+02  0.92590428270E+01  0.56649183967E+02  0.47000000000E+01 0. -1.
        -11    1    4    4    0    0 -0.63952092783E+01 -0.50348325785E+01  0.13523416070E+03  0.13547887828E+03  0.00000000000E+00 0.  1.
         12    1    4    4    0    0 -0.15661316408E+02 -0.48711739875E+02  0.35266987587E+02  0.62143952616E+02  0.00000000000E+00 0. -1.
         -5    1    5    5    0  502 -0.24487182818E+02 -0.32395489259E+02  0.32564368934E+03  0.32819962256E+03  0.47000000000E+01 0.  1.
         11    1    6    6    0    0  0.54828031994E+02  0.48608218572E+02  0.25467580539E+03  0.26500686379E+03  0.00000000000E+00 0. -1.
        -12    1    6    6    0    0  0.19228497514E+02 -0.10884695154E+02  0.10525227812E+02  0.24474315634E+02  0.00000000000E+00 0.  1.
</event>
<event>
12    1  0.1683022E-002  0.2882156E+03  0.7818608E-02  0.1091347E+00
         21   -1    0    0  501  502  0.00000000000E+00  0.00000000000E+00  0.31080925330E+03  0.31080925330E+03  0.00000000000E+00 0.  1.
         21   -1    0    0  502  503 -0.00000000000E+00 -0.00000000000E+00 -0.65753962721E+03  0.65753962721E+03  0.00000000000E+00 0. -1.
          6    2    1    2  501    0 -0.21042689289E+03 -0.95529992891E+02  0.19980100437E+03  0.35069739555E+03  0.17222881614E+03 0.  0.
         24    2    3    3    0    0 -0.12993177479E+03 -0.70390545377E+02  0.20610696672E+03  0.26600199414E+03  0.80248888943E+02 0.  0.
         -6    2    1    2    0  503  0.21042689289E+03  0.95529992891E+02 -0.54653137829E+03  0.61765148496E+03  0.17143906388E+03 0.  0.
        -24    2    5    5    0    0  0.50959879062E+02  0.93450458306E+02 -0.27289303035E+03  0.30089591922E+03  0.68832047471E+02 0.  0.
          5    1    3    3  501    0 -0.80495118102E+02 -0.25139447515E+02 -0.63059623511E+01  0.84695401414E+02  0.47000000000E+01 0. -1.
        -11    1    4    4    0    0 -0.94167533914E+02 -0.53567992941E+02  0.82337984888E+02  0.13607570711E+03  0.00000000000E+00 0.  1.
         12    1    4    4    0    0 -0.35764240871E+02 -0.16822552435E+02  0.12376898183E+03  0.12992628702E+03  0.00000000000E+00 0. -1.
         -5    1    5    5    0  503  0.15946701383E+03  0.20795345853E+01 -0.27363834793E+03  0.31675556573E+03  0.47000000000E+01 0.  1.
         11    1    6    6    0    0  0.54111707662E+02  0.33333268135E+02 -0.17252153969E+03  0.18385555561E+03  0.00000000000E+00 0. -1.
        -12    1    6    6    0    0 -0.31518286006E+01  0.60117190171E+02 -0.10037149066E+03  0.11704036361E+03  0.00000000000E+00 0.  1.
</event>
<event>
12    1  0.1683022E-002  0.2050753E+03  0.7818608E-02  0.1145532E+00
         21   -1    0    0  501  502  0.00000000000E+00  0.00000000000E+00  0.25809159220E+03  0.25809159220E+03  0.00000000000E+00 0. -1.
         21   -1    0    0  502  503 -0.00000000000E+00 -0.00000000000E+00 -0.17806473187E+03  0.17806473187E+03  0.00000000000E+00 0. -1.
          6    2    1    2  501    0 -0.72375823411E+02  0.84338863622E+02  0.10359534480E+03  0.22973119595E+03  0.17231692661E+03 0.  0.
         24    2    3    3    0    0 -0.31353915416E+02  0.84819279830E+02  0.13243466791E+03  0.17936429916E+03  0.80344460335E+02 0.  0.
         -6    2    1    2    0  503  0.72375823411E+02 -0.84338863622E+02 -0.23568484467E+02  0.20642512812E+03  0.17235009814E+03 0.  0.
        -24    2    5    5    0    0  0.43091726544E+02  0.22241572524E+02 -0.35915399142E+00  0.93386591687E+02  0.79808157919E+02 0.  0.
          5    1    3    3  501    0 -0.41021907995E+02 -0.48041620858E+00 -0.28839323102E+02  0.50366896790E+02  0.47000000000E+01 0. -1.
        -13    1    4    4    0    0  0.26469997156E+02  0.16376652047E+02  0.39213235414E+02  0.50065290505E+02  0.00000000000E+00 0.  1.
         14    1    4    4    0    0 -0.57823912572E+02  0.68442627784E+02  0.93221432492E+02  0.12929900865E+03  0.00000000000E+00 0. -1.
         -5    1    5    5    0  503  0.29284096867E+02 -0.10658043615E+03 -0.23209330475E+02  0.11303853644E+03  0.47000000000E+01 0.  1.
         13    1    6    6    0    0  0.29164730789E+02 -0.27546740428E+02  0.82999006799E+01  0.40966971837E+02  0.00000000000E+00 0. -1.
        -14    1    6    6    0    0  0.13926995754E+02  0.49788312952E+02 -0.86590546713E+01  0.52419619849E+02  0.00000000000E+00 0.  1.
</event>
<event>
12    1  0.1683022E-002  0.1849143E+03  0.7818608E-02  0.1163203E+00
         21   -1    0    0  501  502  0.00000000000E+00  0.00000000000E+00  0.51791766057E+02  0.51791766057E+02  0.00000000000E+00 0. -1.
         21   -1    0    0  502  503 -0.00000000000E+00 -0.00000000000E+00 -0.66384484994E+03  0.66384484994E+03  0.00000000000E+00 0. -1.
          6    2    1    2  501    0 -0.54975147850E+02 -0.38554913308E+02 -0.27551274056E+03  0.33164090483E+03  0.17195834182E+03 0.  0.
         24    2    3    3    0    0 -0.99416649950E+02 -0.22208119776E+02 -0.23982238363E+03  0.27215850117E+03  0.78604091464E+02 0.  0.
         -6    2    1    2    0  503  0.54975147850E+02  0.38554913308E+02 -0.33654034333E+03  0.38399571117E+03  0.17229206392E+03 0.  0.
        -24    2    5    5    0    0  0.95704357498E+02  0.32421453148E+02 -0.30858502780E+03  0.33399493599E+03  0.78213957967E+02 0.  0.
          5    1    3    3  501    0  0.44441502100E+02 -0.16346793532E+02 -0.35690356924E+02  0.59482403658E+02  0.47000000000E+01 0. -1.
        -11    1    4    4    0    0 -0.77197405897E+02  0.98776540238E+01 -0.98443255766E+02  0.12549136278E+03  0.00000000000E+00 0.  1.
         12    1    4    4    0    0 -0.22219244053E+02 -0.32085773800E+02 -0.14137912787E+03  0.14666713839E+03  0.00000000000E+00 0. -1.
         -5    1    5    5    0  503 -0.40729209648E+02  0.61334601599E+01 -0.27955315530E+02  0.50000775179E+02  0.47000000000E+01 0.  1.
         13    1    6    6    0    0  0.54820845615E+02  0.19688847011E+02 -0.27046066831E+03  0.27666215663E+03  0.00000000000E+00 0. -1.
        -14    1    6    6    0    0  0.40883511884E+02  0.12732606137E+02 -0.38124359489E+02  0.57332779363E+02  0.00000000000E+00 0.  1.
</event>
<event>
12    1  0.1683022E-002  0.1892957E+03  0.7818608E-02  0.1159718E+00
         21   -1    0    0  503  502  0.00000000000E+00  0.00000000000E+00  0.43101304937E+03  0.43101304937E+03  0.00000000000E+00 0. -1.
         21   -1    0    0  501  503 -0.00000000000E+00 -0.00000000000E+00 -0.12704915569E+03  0.12704915569E+03  0.00000000000E+00 0. -1.
          6    2    1    2  501    0 -0.44465513578E+02 -0.64581342583E+02 -0.14970462904E+02  0.18718218722E+03  0.16930778111E+03 0.  0.
         24    2    3    3    0    0 -0.64090492686E+02 -0.10047322673E+03  0.11708842598E+01  0.14295549572E+03  0.78945818409E+02 0.  0.
         -6    2    1    2    0  502  0.44465513578E+02  0.64581342583E+02  0.31893435659E+03  0.37088001784E+03  0.17229315748E+03 0.  0.
        -24    2    5    5    0    0 -0.26201469445E+01  0.80569100892E+01  0.26828343229E+03  0.28143910423E+03  0.84617908133E+02 0.  0.
          5    1    3    3  501    0  0.19624979108E+02  0.35891884145E+02 -0.16141347164E+02  0.44226691497E+02  0.47000000000E+01 0. -1.
        -13    1    4    4    0    0 -0.19118106089E+02  0.97548263922E+01  0.97987593004E+01  0.23593946304E+02  0.00000000000E+00 0.  1.
         14    1    4    4    0    0 -0.44972386597E+02 -0.11022805312E+03 -0.86278750406E+01  0.11936154941E+03  0.00000000000E+00 0. -1.
         -5    1    5    5    0  502  0.47085660522E+02  0.56524432494E+02  0.50650924300E+02  0.89440913614E+02  0.47000000000E+01 0.  1.
         11    1    6    6    0    0  0.32819307102E+02 -0.11890143433E+02  0.19044223521E+03  0.19361489452E+03  0.00000000000E+00 0. -1.
        -12    1    6    6    0    0 -0.35439454047E+02  0.19947053522E+02  0.77841197083E+02  0.87824209707E+02  0.00000000000E+00 0.  1.
</event>
<event>
12    1  0.1683022E-002  0.2191121E+03  0.7818608E-02  0.1134580E+00
         21   -1    0    0  503  502  0.00000000000E+00  0.00000000000E+00  0.13722405015E+03  0.13722405015E+03  0.00000000000E+00 0.  1.
         21   -1    0    0  501  503 -0.00000000000E+00 -0.00000000000E+00 -0.37918228484E+03  0.37918228484E+03  0.00000000000E+00 0. -1.
          6    2    1    2  501    0 -0.11217150935E+03  0.76683687123E+02 -0.48799144991E+02  0.22430953021E+03  0.17166995488E+03 0.  0.
         24    2    3    3    0    0 -0.11764000210E+03  0.11299393040E+03 -0.33000011854E+02  0.18405979993E+03  0.78627035850E+02 0.  0.
         -6    2    1    2    0  502  0.11217150935E+03 -0.76683687123E+02 -0.19315908970E+03  0.29209680478E+03  0.17189320536E+03 0.  0.
        -24    2    5    5    0    0  0.13182978612E+03 -0.47952869087E+02 -0.19611231108E+03  0.25684458121E+03  0.88490282947E+02 0.  0.
          5    1    3    3  501    0  0.54684927501E+01 -0.36310243275E+02 -0.15799133137E+02  0.40249730279E+02  0.47000000000E+01 0. -1.
        -13    1    4    4    0    0 -0.39803493375E+02  0.87623261100E+02 -0.34336578364E+02  0.10218196800E+03  0.00000000000E+00 0.  1.
         14    1    4    4    0    0 -0.77836508727E+02  0.25370669297E+02  0.13365665105E+01  0.81877831929E+02  0.00000000000E+00 0. -1.
         -5    1    5    5    0  502 -0.19658276772E+02 -0.28730818036E+02  0.29532213717E+01  0.35252223577E+02  0.47000000000E+01 0.  1.
         11    1    6    6    0    0  0.25916404326E+02 -0.51946721946E+02 -0.51877429105E+02  0.77854926528E+02  0.00000000000E+00 0. -1.
        -12    1    6    6    0    0  0.10591338180E+03  0.39938528591E+01 -0.14423488197E+03  0.17898965468E+03  0.00000000000E+00 0.  1.
</event>
<event>
12    1  0.1683022E-002  0.3361670E+03  0.7818608E-02  0.1068481E+00
         21   -1    0    0  503  502  0.00000000000E+00  0.00000000000E+00  0.40341121770E+03  0.40341121770E+03  0.00000000000E+00 0.  1.
         21   -1    0    0  501  503 -0.00000000000E+00 -0.00000000000E+00 -0.39496202336E+03  0.39496202336E+03  0.00000000000E+00 0. -1.
          6    2    1    2  501    0 -0.28768672612E+03  0.26120214886E+02 -0.21131567608E+03  0.39674552712E+03  0.17119223208E+03 0.  0.
         24    2    3    3    0    0 -0.80906513446E+02  0.45190971729E+02 -0.11787938544E+03  0.16898648663E+03  0.77928141948E+02 0.  0.
         -6    2    1    2    0  502  0.28768672612E+03 -0.26120214886E+02  0.21976487042E+03  0.40162771394E+03  0.17193691960E+03 0.  0.
        -24    2    5    5    0    0  0.63029536047E+02  0.25982336788E+02  0.78244014534E+02  0.13100662904E+03  0.79955029873E+02 0.  0.
          5    1    3    3  501    0 -0.20678021267E+03 -0.19070756843E+02 -0.93436290640E+02  0.22775904049E+03  0.47000000000E+01 0. -1.
        -13    1    4    4    0    0 -0.52195495790E-01  0.90267795065E+01  0.99721597100E+01  0.13451001521E+02  0.00000000000E+00 0.  1.
         14    1    4    4    0    0 -0.80854317950E+02  0.36164192222E+02 -0.12785154515E+03  0.15553548511E+03  0.00000000000E+00 0. -1.
         -5    1    5    5    0  502  0.22465719007E+03 -0.52102551674E+02  0.14152085589E+03  0.27062108490E+03  0.47000000000E+01 0.  1.
         11    1    6    6    0    0  0.18115517700E+02  0.15628366319E+02 -0.14119706171E+02  0.27780999220E+02  0.00000000000E+00 0. -1.
        -12    1    6    6    0    0  0.44914018347E+02  0.10353970469E+02  0.92363720705E+02  0.10322562982E+03  0.00000000000E+00 0.  1.
</event>
<event>
12    1  0.1683022E-002  0.2351797E+03  0.7818608E-02  0.1123102E+00
         21   -1    0    0  503  502  0.00000000000E+00  0.00000000000E+00  0.13864288868E+04  0.13864288868E+04  0.00000000000E+00 0. -1.
         21   -1    0    0  501  503 -0.00000000000E+00 -0.00000000000E+00 -0.40713652329E+02  0.40713652329E+02  0.00000000000E+00 0.  1.
          6    2    1    2  501    0 -0.37823914358E+01  0.15996258488E+03  0.56778699940E+03  0.61444219935E+03  0.17191510872E+03 0.  0.
         24    2    3    3    0    0  0.21332299650E+02  0.77839888829E+02  0.17052209377E+03  0.20797402081E+03  0.87528815645E+02 0.  0.
         -6    2    1    2    0  502  0.37823914358E+01 -0.15996258488E+03  0.77792823507E+03  0.81270033979E+03  0.17235767554E+03 0.  0.
        -24    2    5    5    0    0 -0.23046340557E+02 -0.18082775686E+03  0.69671450869E+03  0.72453631302E+03  0.79447786665E+02 0.  0.
          5    1    3    3  501    0 -0.25114691086E+02  0.82122696048E+02  0.39726490563E+03  0.40646817854E+03  0.47000000000E+01 0. -1.
        -11    1    4    4    0    0  0.20624112612E+02  0.95596518924E+02  0.15940199591E+03  0.18701081453E+03  0.00000000000E+00 0.  1.
         12    1    4    4    0    0  0.70818703838E+00 -0.17756630095E+02  0.11120097859E+02  0.20963206281E+02  0.00000000000E+00 0. -1.
         -5    1    5    5    0  502  0.26828731993E+02  0.20865171980E+02  0.81213726389E+02  0.88164026768E+02  0.47000000000E+01 0.  1.
         13    1    6    6    0    0  0.20320566956E+02 -0.62225330846E+02  0.33701564924E+03  0.34331394535E+03  0.00000000000E+00 0. -1.
        -14    1    6    6    0    0 -0.43366907513E+02 -0.11860242601E+03  0.35969885945E+03  0.38122236767E+03  0.00000000000E+00 0.  1.
</event>
<event>
12    1  0.1683022E-002  0.2697334E+03  0.7818608E-02  0.1101478E+00
         21   -1    0    0  503  502  0.00000000000E+00  0.00000000000E+00  0.38933254239E+03  0.38933254239E+03  0.00000000000E+00 0.  1.
         21   -1    0    0  501  503 -0.00000000000E+00 -0.00000000000E+00 -0.21690030282E+03  0.21690030282E+03  0.00000000000E+00 0. -1.
          6    2    1    2  501    0  0.19539156483E+03  0.69951281767E+02 -0.26929738224E+02  0.27107434474E+03  0.17229348260E+03 0.  0.
         24    2    3    3    0    0  0.66248203699E+02  0.26105101767E+02  0.48049885665E+02  0.11536779631E+03  0.77010623168E+02 0.  0.
         -6    2    1    2    0  502 -0.19539156483E+03 -0.69951281767E+02  0.19936197780E+03  0.33515850047E+03  0.17179923404E+03 0.  0.
        -24    2    5    5    0    0 -0.51400785837E+02  0.96790289795E+01  0.11536035667E+03  0.15035402764E+03  0.81009859583E+02 0.  0.
          5    1    3    3  501    0  0.12914336113E+03  0.43846180000E+02 -0.74979623889E+02  0.15570654843E+03  0.47000000000E+01 0. -1.
        -11    1    4    4    0    0  0.11055714965E+01 -0.39276988317E+01  0.43285494133E+02  0.43477386177E+02  0.00000000000E+00 0.  1.
         12    1    4    4    0    0  0.65142632203E+02  0.30032800599E+02  0.47643915321E+01  0.71890410131E+02  0.00000000000E+00 0. -1.
         -5    1    5    5    0  502 -0.14399077900E+03 -0.79630310746E+02  0.84001621130E+02  0.18480447283E+03  0.47000000000E+01 0.  1.
         11    1    6    6    0    0  0.21491812515E+01 -0.88869496763E+01 -0.95288499922E+01  0.13205901589E+02  0.00000000000E+00 0. -1.
        -12    1    6    6    0    0 -0.53549967088E+02  0.18565978656E+02  0.12488920666E+03  0.13714812605E+03  0.00000000000E+00 0.  1.
</event>
<event>
12    1  0.1683022E-002  0.3490841E+03  0.7818608E-02  0.1063664E+00
         21   -1    0    0  503  502  0.00000000000E+00  0.00000000000E+00  0.39747422318E+03  0.39747422318E+03  0.00000000000E+00 0. -1.
         21   -1    0    0  501  503 -0.00000000000E+00 -0.00000000000E+00 -0.33456189904E+03  0.33456189904E+03  0.00000000000E+00 0.  1.
          6    2    1    2  501    0  0.24307234580E+03  0.18336417645E+03 -0.84854864907E+02  0.35296507882E+03  0.15709045889E+03 0.  0.
         24    2    3    3    0    0  0.25602909033E+03  0.18785834623E+03 -0.78316600698E+02  0.33706181847E+03  0.81458739124E+02 0.  0.
         -6    2    1    2    0  502 -0.24307234580E+03 -0.18336417645E+03  0.14776718904E+03  0.37907104339E+03  0.17074286892E+03 0.  0.
        -24    2    5    5    0    0 -0.13720547884E+03 -0.14390247457E+03  0.31174854874E+02  0.21664911808E+03  0.80197900093E+02 0.  0.
          5    1    3    3  501    0 -0.12956744537E+02 -0.44941697803E+01 -0.65382642088E+01  0.15903260354E+02  0.47000000000E+01 0. -1.
        -11    1    4    4    0    0  0.10982275622E+03  0.12436007587E+03 -0.60807470494E+02  0.17670318255E+03  0.00000000000E+00 0.  1.
         12    1    4    4    0    0  0.14620633412E+03  0.63498270354E+02 -0.17509130203E+02  0.16035863592E+03  0.00000000000E+00 0. -1.
         -5    1    5    5    0  502 -0.10586686696E+03 -0.39461701881E+02  0.11659233417E+03  0.16242192531E+03  0.47000000000E+01 0.  1.
         11    1    6    6    0    0 -0.60105087861E+02 -0.61092126653E+02  0.53901131975E+02  0.10124327906E+03  0.00000000000E+00 0. -1.
        -12    1    6    6    0    0 -0.77100390976E+02 -0.82810347912E+02 -0.22726277100E+02  0.11540583902E+03  0.00000000000E+00 0.  1.
</event>
<event>
12    1  0.1683022E-002  0.1745467E+03  0.7818608E-02  0.1173247E+00
         21   -1    0    0  503  502  0.00000000000E+00  0.00000000000E+00  0.24853851970E+03  0.24853851970E+03  0.00000000000E+00 0. -1.
         21   -1    0    0  501  503 -0.00000000000E+00 -0.00000000000E+00 -0.17171454815E+03  0.17171454815E+03  0.00000000000E+00 0. -1.
          6    2    1    2  501    0  0.16873509145E+02  0.19071397806E+02 -0.74191664830E+02  0.18944523523E+03  0.17244320948E+03 0.  0.
         24    2    3    3    0    0  0.82437045262E+01 -0.18559812473E+02  0.22132417985E+02  0.85565494928E+02  0.80119814609E+02 0.  0.
         -6    2    1    2    0  502 -0.16873509145E+02 -0.19071397806E+02  0.15101563638E+03  0.23080783262E+03  0.17267918126E+03 0.  0.
        -24    2    5    5    0    0 -0.37131017127E+01  0.16405827172E+02  0.16979917708E+03  0.18830205399E+03  0.79642731693E+02 0.  0.
          5    1    3    3  501    0  0.86298046185E+01  0.37631210279E+02 -0.96324082814E+02  0.10387974030E+03  0.47000000000E+01 0. -1.
        -13    1    4    4    0    0  0.33080764915E+02  0.18419572218E+02  0.13450398882E+02  0.40181225444E+02  0.00000000000E+00 0.  1.
         14    1    4    4    0    0 -0.24837060389E+02 -0.36979384691E+02  0.86820191026E+01  0.45384269484E+02  0.00000000000E+00 0. -1.
         -5    1    5    5    0  502 -0.13160407432E+02 -0.35477224979E+02 -0.18783540693E+02  0.42505778630E+02  0.47000000000E+01 0.  1.
         13    1    6    6    0    0 -0.24707681315E+02 -0.19492380841E+02  0.11662677431E+03  0.12079829019E+03  0.00000000000E+00 0. -1.
        -14    1    6    6    0    0  0.20994579603E+02  0.35898208013E+02  0.53172402765E+02  0.67503763799E+02  0.00000000000E+00 0.  1.
</event>
<event>
12    1  0.1683022E-002  0.1986047E+03  0.7818608E-02  0.1151550E+00
         21   -1    0    0  503  502  0.00000000000E+00  0.00000000000E+00  0.59246383849E+02  0.59246383849E+02  0.00000000000E+00 0.  1.
         21   -1    0    0  501  503 -0.00000000000E+00 -0.00000000000E+00 -0.84793404935E+03  0.84793404935E+03  0.00000000000E+00 0.  1.
          6    2    1    2  501    0 -0.87281918157E+02 -0.37026025213E+02 -0.61242617009E+03  0.64382421695E+03  0.17451288988E+03 0.  0.
         24    2    3    3    0    0  0.10625931729E+02 -0.32427591100E+02 -0.18860363282E+03  0.20879005074E+03  0.82809998710E+02 0.  0.
         -6    2    1    2    0  502  0.87281918157E+02  0.37026025213E+02 -0.17626149541E+03  0.26335621626E+03  0.17117044749E+03 0.  0.
        -24    2    5    5    0    0  0.11095290531E+03 -0.46298453517E+01 -0.91473290140E+02  0.16585412941E+03  0.82512100748E+02 0.  0.
          5    1    3    3  501    0 -0.97907849886E+02 -0.45984341127E+01 -0.42382253727E+03  0.43503416621E+03  0.47000000000E+01 0. -1.
        -13    1    4    4    0    0 -0.40767407455E+01  0.23995592487E+02 -0.24073094289E+02  0.34233348398E+02  0.00000000000E+00 0.  1.
         14    1    4    4    0    0  0.14702672475E+02 -0.56423183587E+02 -0.16453053853E+03  0.17455670234E+03  0.00000000000E+00 0. -1.
         -5    1    5    5    0  502 -0.23670987153E+02  0.41655870564E+02 -0.84788205272E+02  0.97502086842E+02  0.47000000000E+01 0.  1.
         11    1    6    6    0    0 -0.47634942577E+01  0.19295265689E+02 -0.94124728886E+01  0.21990743540E+02  0.00000000000E+00 0. -1.
        -12    1    6    6    0    0  0.11571639957E+03 -0.23925111040E+02 -0.82060817251E+02  0.14386338587E+03  0.00000000000E+00 0.  1.
</event>
<event>
12    1  0.1683022E-002  0.2000472E+03  0.7818608E-02  0.1150241E+00
         21   -1    0    0  503  502  0.00000000000E+00  0.00000000000E+00  0.36839740637E+03  0.36839740637E+03  0.00000000000E+00 0. -1.
         21   -1    0    0  501  503 -0.00000000000E+00 -0.00000000000E+00 -0.17760981496E+03  0.17760981496E+03  0.00000000000E+00 0.  1.
          6    2    1    2  501    0 -0.70270518122E+02 -0.73602670039E+02 -0.76803404109E+02  0.21190571846E+03  0.16926302573E+03 0.  0.
         24    2    3    3    0    0 -0.84544132469E+02  0.26124158514E+01 -0.64167406036E+02  0.13320226344E+03  0.80441605764E+02 0.  0.
         -6    2    1    2    0  502  0.70270518122E+02  0.73602670039E+02  0.26759099551E+03  0.33410150287E+03  0.17223116612E+03 0.  0.
        -24    2    5    5    0    0  0.78268868791E+02  0.57477023667E+02  0.88429388310E+02  0.15397659737E+03  0.80370465652E+02 0.  0.
          5    1    3    3  501    0  0.14273614346E+02 -0.76215085891E+02 -0.12635998072E+02  0.78703455014E+02  0.47000000000E+01 0. -1.
        -11    1    4    4    0    0  0.35223571043E+00  0.18780343594E+02 -0.38842588159E+02  0.43145938748E+02  0.00000000000E+00 0.  1.
         12    1    4    4    0    0 -0.84896368179E+02 -0.16167927743E+02 -0.25324817877E+02  0.90056324697E+02  0.00000000000E+00 0. -1.
         -5    1    5    5    0  502 -0.79983506693E+01  0.16125646373E+02  0.17916160720E+03  0.18012490550E+03  0.47000000000E+01 0.  1.
         11    1    6    6    0    0  0.46153888434E+02  0.11210408988E+02  0.85223891869E+02  0.97565190681E+02  0.00000000000E+00 0. -1.
        -12    1    6    6    0    0  0.32114980357E+02  0.46266614678E+02  0.32054964409E+01  0.56411406688E+02  0.00000000000E+00 0.  1.
</event>
<event>
12    1  0.1683022E-002  0.3315175E+03  0.7818608E-02  0.1070476E+00
         21   -1    0    0  503  502  0.00000000000E+00  0.00000000000E+00  0.12474360680E+03  0.12474360680E+03  0.00000000000E+00 0. -1.
         21   -1    0    0  501  503 -0.00000000000E+00 -0.00000000000E+00 -0.93479308849E+03  0.93479308849E+03  0.00000000000E+00 0.  1.
          6    2    1    2  501    0 -0.12089173330E+02 -0.28312175549E+03 -0.53236257961E+03  0.62714731856E+03  0.17204582663E+03 0.  0.
         24    2    3    3    0    0 -0.41044014541E+02 -0.97298910978E+02 -0.30072921627E+03  0.32874387122E+03  0.80515726020E+02 0.  0.
         -6    2    1    2    0  502  0.12089173330E+02  0.28312175549E+03 -0.27768690208E+03  0.43238937673E+03  0.17189089846E+03 0.  0.
        -24    2    5    5    0    0 -0.48452894634E+02  0.96575293141E+02 -0.11316843613E+03  0.17635551129E+03  0.81361546102E+02 0.  0.
          5    1    3    3  501    0  0.28954841211E+02 -0.18582284452E+03 -0.23163336334E+03  0.29840344734E+03  0.47000000000E+01 0. -1.
        -11    1    4    4    0    0  0.12055454425E+02 -0.27267885282E+02 -0.16053448577E+03  0.16327949249E+03  0.00000000000E+00 0.  1.
         12    1    4    4    0    0 -0.53099468966E+02 -0.70031025696E+02 -0.14019473050E+03  0.16546437872E+03  0.00000000000E+00 0. -1.
         -5    1    5    5    0  502  0.60542067964E+02  0.18654646235E+03 -0.16451846595E+03  0.25603386543E+03  0.47000000000E+01 0.  1.
         11    1    6    6    0    0  0.22194970745E+02  0.28051314461E+02 -0.40368810277E+02  0.53936386721E+02  0.00000000000E+00 0. -1.
        -12    1    6    6    0    0 -0.70647865380E+02  0.68523978681E+02 -0.72799625853E+02  0.12241912457E+03  0.00000000000E+00 0.  1.
</event>
<event>
12    1  0.1683022E-002  0.1868733E+03  0.7818608E-02  0.1161456E+00
         21   -1    0    0  501  502  0.00000000000E+00  0.00000000000E+00  0.30416168960E+03  0.30416168960E+03  0.00000000000E+00 0.  1.
         21   -1    0    0  502  503 -0.00000000000E+00 -0.00000000000E+00 -0.16065267261E+03  0.16065267261E+03  0.00000000000E+00 0.  1.
          6    2    1    2  501    0 -0.19489849940E+02 -0.69010506825E+02  0.19650195099E+03  0.27117269846E+03  0.17256683153E+03 0.  0.
         24    2    3    3    0    0  0.91762975813E+01 -0.82003592571E+02  0.57269192886E+02  0.12834966384E+03  0.79906708861E+02 0.  0.
         -6    2    1    2    0  503  0.19489849940E+02  0.69010506825E+02 -0.52992934005E+02  0.19364166374E+03  0.17189106603E+03 0.  0.
        -24    2    5    5    0    0  0.46510419616E+02  0.55782694634E+02  0.23911146485E+02  0.11092882437E+03  0.80364998580E+02 0.  0.
          5    1    3    3  501    0 -0.28666147522E+02  0.12993085746E+02  0.13923275810E+03  0.14282303463E+03  0.47000000000E+01 0. -1.
        -11    1    4    4    0    0 -0.40482682675E+01 -0.58804506009E+02  0.75671378662E+02  0.95919320012E+02  0.00000000000E+00 0.  1.
         12    1    4    4    0    0  0.13224565849E+02 -0.23199086562E+02 -0.18402185776E+02  0.32430343824E+02  0.00000000000E+00 0. -1.
         -5    1    5    5    0  503 -0.27020569676E+02  0.13227812191E+02 -0.76904080491E+02  0.82712839373E+02  0.47000000000E+01 0.  1.
         13    1    6    6    0    0 -0.17716597538E+02  0.28157263207E+02  0.23985897240E+02  0.41012590336E+02  0.00000000000E+00 0. -1.
        -14    1    6    6    0    0  0.64227017155E+02  0.27625431427E+02 -0.74750754991E-01  0.69916234036E+02  0.00000000000E+00 0.  1.
</event>
<event>
12    1  0.1683022E-002  0.2702978E+03  0.7818608E-02  0.1101319E+00
         21   -1    0    0  503  502  0.00000000000E+00  0.00000000000E+00  0.23461382278E+03  0.23461382278E+03  0.00000000000E+00 0. -1.
         21   -1    0    0  501  503 -0.00000000000E+00 -0.00000000000E+00 -0.32271245430E+03  0.32271245430E+03  0.00000000000E+00 0.  1.
          6    2    1    2  501    0 -0.96127977950E+02  0.18287138225E+03 -0.99843880573E+02  0.28677346175E+03  0.17201071851E+03 0.  0.
         24    2    3    3    0    0 -0.26087559436E+02  0.25123320439E+02 -0.62526621707E+02  0.11012471694E+03  0.83103145986E+02 0.  0.
         -6    2    1    2    0  502  0.96127977950E+02 -0.18287138225E+03  0.11745249050E+02  0.27055281534E+03  0.17429384505E+03 0.  0.
        -24    2    5    5    0    0  0.10849495235E+03 -0.20459612574E+03  0.79584135282E+01  0.24483634865E+03  0.79061823409E+02 0.  0.
          5    1    3    3  501    0 -0.70040418514E+02  0.15774806181E+03 -0.37317258866E+02  0.17664874480E+03  0.47000000000E+01 0. -1.
        -11    1    4    4    0    0 -0.39269173746E+02  0.99024805693E+01 -0.75847175193E+02  0.85982097630E+02  0.00000000000E+00 0.  1.
         12    1    4    4    0    0  0.13181614311E+02  0.15220839869E+02  0.13320553486E+02  0.24142619314E+02  0.00000000000E+00 0. -1.
         -5    1    5    5    0  502 -0.12366974400E+02  0.21724743492E+02  0.37868355218E+01  0.25716466687E+02  0.47000000000E+01 0.  1.
         11    1    6    6    0    0  0.30547284752E+02 -0.13454901794E+03  0.19743921249E+02  0.13937861120E+03  0.00000000000E+00 0. -1.
        -12    1    6    6    0    0  0.77947667599E+02 -0.70047107800E+02 -0.11785507721E+02  0.10545773745E+03  0.00000000000E+00 0.  1.
</event>
<event>
12    1  0.1683022E-002  0.1748514E+03  0.7818608E-02  0.1175175E+00
         21   -1    0    0  501  502  0.00000000000E+00  0.00000000000E+00  0.34976923126E+03  0.34976923126E+03  0.00000000000E+00 0.  1.
         21   -1    0    0  502  503 -0.00000000000E+00 -0.00000000000E+00 -0.11722504988E+03  0.11722504988E+03  0.00000000000E+00 0.  1.
          6    2    1    2  501    0  0.30688732247E+02  0.11971966508E+01  0.24021317006E+03  0.29197479525E+03  0.16310635311E+03 0.  0.
         24    2    3    3    0    0 -0.43146208741E+02  0.59714536555E+01  0.13486632884E+03  0.16315539068E+03  0.80830076482E+02 0.  0.
         -6    2    1    2    0  503 -0.30688732247E+02 -0.11971966508E+01 -0.76689886817E+01  0.17501948588E+03  0.17213301683E+03 0.  0.
        -24    2    5    5    0    0 -0.14648301305E+02 -0.27334748481E+02  0.57930828741E+02  0.10245301231E+03  0.78605836974E+02 0.  0.
          5    1    3    3  501    0  0.73834940988E+02 -0.47742570046E+01  0.10534684122E+03  0.12881940457E+03  0.47000000000E+01 0. -1.
        -11    1    4    4    0    0 -0.52526641624E+02  0.25193326215E+02  0.53741762416E+02  0.79258619680E+02  0.00000000000E+00 0.  1.
         12    1    4    4    0    0  0.93804328828E+01 -0.19221872560E+02  0.81124566429E+02  0.83896770999E+02  0.00000000000E+00 0. -1.
         -5    1    5    5    0  503 -0.16040430942E+02  0.26137551831E+02 -0.65599817423E+02  0.72566473570E+02  0.47000000000E+01 0.  1.
         11    1    6    6    0    0  0.17544011677E+02 -0.44156071681E+02  0.39135579103E+02  0.61556027842E+02  0.00000000000E+00 0. -1.
        -12    1    6    6    0    0 -0.32192312982E+02  0.16821323199E+02  0.18795249638E+02  0.40896984464E+02  0.00000000000E+00 0.  1.
</event>
<event>
12    1  0.1683022E-002  0.1782301E+03  0.7818608E-02  0.1169637E+00
         21   -1    0    0  501  502  0.00000000000E+00  0.00000000000E+00  0.46791053213E+03  0.46791053213E+03  0.00000000000E+00 0. -1.
         21   -1    0    0  502  503 -0.00000000000E+00 -0.00000000000E+00 -0.74169089143E+02  0.74169089143E+02  0.00000000000E+00 0.  1.
          6    2    1    2  501    0  0.19142859548E+02  0.45856265669E+02  0.27702974807E+03  0.32941075323E+03  0.17116283724E+03 0.  0.
         24    2    3    3    0    0  0.13694798382E+01 -0.31441208110E+02  0.82678229893E+02  0.11944552968E+03  0.80256587396E+02 0.  0.
         -6    2    1    2    0  503 -0.19142859548E+02 -0.45856265669E+02  0.11671169491E+03  0.21266886804E+03  0.17069616731E+03 0.  0.
        -24    2    5    5    0    0  0.35335350657E+01  0.48486797758E+02  0.20595431299E+02  0.76011418117E+02  0.54681884266E+02 0.  0.
          5    1    3    3  501    0  0.17773379710E+02  0.77297473779E+02  0.19435151818E+03  0.20996522354E+03  0.47000000000E+01 0. -1.
        -13    1    4    4    0    0  0.29205219732E+02 -0.44377132602E+02  0.65272388803E+02  0.84159131992E+02  0.00000000000E+00 0.  1.
         14    1    4    4    0    0 -0.27835739894E+02  0.12935924492E+02  0.17405841090E+02  0.35286397690E+02  0.00000000000E+00 0. -1.
         -5    1    5    5    0  503 -0.22676394614E+02 -0.94343063427E+02  0.96116263610E+02  0.13665744992E+03  0.47000000000E+01 0.  1.
         11    1    6    6    0    0  0.21771671312E+02  0.30495416837E+02 -0.72598772269E+01  0.38166502815E+02  0.00000000000E+00 0. -1.
        -12    1    6    6    0    0 -0.18238136246E+02  0.17991380921E+02  0.27855308526E+02  0.37844915302E+02  0.00000000000E+00 0.  1.
</event>
<event>
12    1  0.1683022E-002  0.2086077E+03  0.7818608E-02  0.1142800E+00
         21   -1    0    0  503  502  0.00000000000E+00  0.00000000000E+00  0.29462235622E+03  0.29462235622E+03  0.00000000000E+00 0.  1.
         21   -1    0    0  501  503 -0.00000000000E+00 -0.00000000000E+00 -0.15670183033E+03  0.15670183033E+03  0.00000000000E+00 0. -1.
          6    2    1    2  501    0  0.89771223721E+02 -0.76063986493E+02  0.12426480288E+03  0.24227004513E+03  0.17148886518E+03 0.  0.
         24    2    3    3    0    0  0.92843418163E+02 -0.91131985135E+02  0.14876387781E+03  0.21296513710E+03  0.79363211060E+02 0.  0.
         -6    2    1    2    0  502 -0.89771223721E+02  0.76063986493E+02  0.13655723010E+02  0.20905414143E+03  0.17225722809E+03 0.  0.
        -24    2    5    5    0    0 -0.27591601280E+02  0.80734527010E+02 -0.43493523090E+02  0.12434141673E+03  0.79307887700E+02 0.  0.
          5    1    3    3  501    0 -0.30721944419E+01  0.15067998641E+02 -0.24499074932E+02  0.29304908024E+02  0.47000000000E+01 0. -1.
        -11    1    4    4    0    0  0.35014819004E+02 -0.51996974308E+02  0.12387922492E+03  0.13883726176E+03  0.00000000000E+00 0.  1.
         12    1    4    4    0    0  0.57828599159E+02 -0.39135010827E+02  0.24884652890E+02  0.74127875341E+02  0.00000000000E+00 0. -1.
         -5    1    5    5    0  502 -0.62179622442E+02 -0.46705405168E+01  0.57149246100E+02  0.84712724697E+02  0.47000000000E+01 0.  1.
         11    1    6    6    0    0 -0.36388034844E+02  0.76542434620E+02 -0.52919380468E+01  0.84916653170E+02  0.00000000000E+00 0. -1.
        -12    1    6    6    0    0  0.87964335639E+01  0.41920923899E+01 -0.38201585043E+02  0.39424763561E+02  0.00000000000E+00 0.  1.
</event>
<event>
12    1  0.1683022E-002  0.1800404E+03  0.7818608E-02  0.1168178E+00
         21   -1    0    0  501  502  0.00000000000E+00  0.00000000000E+00  0.17694791995E+03  0.17694791995E+03  0.00000000000E+00 0. -1.
         21   -1    0    0  502  503 -0.00000000000E+00 -0.00000000000E+00 -0.20376873643E+03  0.20376873643E+03  0.00000000000E+00 0. -1.
          6    2    1    2  501    0  0.50064208127E+02  0.12874367305E+02  0.49517429797E+02  0.18672579164E+03  0.17245976674E+03 0.  0.
         24    2    3    3    0    0  0.66651193143E+02  0.45273332484E+02 -0.14531257827E+02  0.11290746463E+03  0.77748838795E+02 0.  0.
         -6    2    1    2    0  503 -0.50064208127E+02 -0.12874367305E+02 -0.76338246275E+02  0.19399086474E+03  0.17068319627E+03 0.  0.
        -24    2    5    5    0    0  0.15327897541E+02  0.16428344098E+02 -0.87386013614E+02  0.12133469127E+03  0.81123097811E+02 0.  0.
          5    1    3    3  501    0 -0.16586985016E+02 -0.32398965179E+02  0.64048687623E+02  0.73818327012E+02  0.47000000000E+01 0. -1.
        -11    1    4    4    0    0  0.12551987512E+02  0.53065565569E+02 -0.19761688511E+02  0.58000267003E+02  0.00000000000E+00 0.  1.
         12    1    4    4    0    0  0.54099205631E+02 -0.77922330847E+01  0.52304306839E+01  0.54907197629E+02  0.00000000000E+00 0. -1.
         -5    1    5    5    0  503 -0.65392105667E+02 -0.29302711404E+02  0.11047767338E+02  0.72656173463E+02  0.47000000000E+01 0.  1.
         11    1    6    6    0    0 -0.15901808186E+02  0.41213232300E+02 -0.42520624682E+02  0.61313958798E+02  0.00000000000E+00 0. -1.
        -12    1    6    6    0    0  0.31229705727E+02 -0.24784888201E+02 -0.44865388932E+02  0.60020732476E+02  0.00000000000E+00 0.  1.
</event>
<event>
12    1  0.1683022E-002  0.2657932E+03  0.7818608E-02  0.1103727E+00
         21   -1    0    0  501  502  0.00000000000E+00  0.00000000000E+00  0.52209670622E+03  0.52209670622E+03  0.00000000000E+00 0.  1.
         21   -1    0    0  502  503 -0.00000000000E+00 -0.00000000000E+00 -0.13646429122E+03  0.13646429122E+03  0.00000000000E+00 0.  1.
          6    2    1    2  501    0 -0.11021907208E+03  0.16979950571E+03  0.16191272209E+03  0.31122622266E+03  0.17223796360E+03 0.  0.
         24    2    3    3    0    0 -0.50706598985E+02  0.94835552319E+01  0.62214517356E+02  0.11322430232E+03  0.79296907032E+02 0.  0.
         -6    2    1    2    0  503  0.11021907208E+03 -0.16979950571E+03  0.22371969292E+03  0.34733477478E+03  0.17207797298E+03 0.  0.
        -24    2    5    5    0    0  0.85280127286E+02 -0.41631412677E+02  0.16226378554E+03  0.20294665343E+03  0.76497930729E+02 0.  0.
          5    1    3    3  501    0 -0.59512473099E+02  0.16031595047E+03  0.99698204734E+02  0.19800192034E+03  0.47000000000E+01 0. -1.
        -13    1    4    4    0    0 -0.18713790331E+02  0.27350024843E+02  0.68453557079E+02  0.76053397585E+02  0.00000000000E+00 0.  1.
         14    1    4    4    0    0 -0.31992808654E+02 -0.17866469611E+02 -0.62390397229E+01  0.37170904732E+02  0.00000000000E+00 0. -1.
         -5    1    5    5    0  503  0.24938944798E+02 -0.12816809303E+03  0.61455907373E+02  0.14438812136E+03  0.47000000000E+01 0.  1.
         11    1    6    6    0    0  0.86459172586E+02 -0.58771912462E+02  0.13548412654E+03  0.17112940941E+03  0.00000000000E+00 0. -1.
        -12    1    6    6    0    0 -0.11790453004E+01  0.17140499785E+02  0.26779659003E+02  0.31817244020E+02  0.00000000000E+00 0.  1.
</event>
<event>
12    1  0.1683022E-002  0.1846013E+03  0.7818608E-02  0.1163592E+00
         21   -1    0    0  501  502  0.00000000000E+00  0.00000000000E+00  0.83705954170E+02  0.83705954170E+02  0.00000000000E+00 0.  1.
         21   -1    0    0  502  503 -0.00000000000E+00 -0.00000000000E+00 -0.44250145317E+03  0.44250145317E+03  0.00000000000E+00 0. -1.
          6    2    1    2  501    0  0.68474075621E+02  0.51107082478E+01 -0.10365710647E+03  0.21171308179E+03  0.17135581375E+03 0.  0.
         24    2    3    3    0    0  0.14060567693E+02 -0.35546892693E+01  0.13256920938E+02  0.82380569386E+02  0.80002980444E+02 0.  0.
         -6    2    1    2    0  503 -0.68474075621E+02 -0.51107082478E+01 -0.25513839252E+03  0.31449432555E+03  0.17057626767E+03 0.  0.
        -24    2    5    5    0    0 -0.14980337794E+02  0.33084357795E+02 -0.58347326562E+02  0.10696298647E+03  0.81961483067E+02 0.  0.
          5    1    3    3  501    0  0.54413507928E+02  0.86653975172E+01 -0.11691402741E+03  0.12933251240E+03  0.47000000000E+01 0. -1.
        -13    1    4    4    0    0  0.25762537152E+02  0.27979708313E+02  0.26367883704E+02  0.46279992317E+02  0.00000000000E+00 0.  1.
         14    1    4    4    0    0 -0.11701969459E+02 -0.31534397582E+02 -0.13110962766E+02  0.36100577070E+02  0.00000000000E+00 0. -1.
         -5    1    5    5    0  503 -0.53493737827E+02 -0.38195066043E+02 -0.19679106596E+03  0.20753133908E+03  0.47000000000E+01 0.  1.
         11    1    6    6    0    0 -0.24671533187E+02  0.33496747311E+02 -0.76102334510E+02  0.86731089859E+02  0.00000000000E+00 0. -1.
        -12    1    6    6    0    0  0.96911953934E+01 -0.41238951642E+00  0.17755007948E+02  0.20231896611E+02  0.00000000000E+00 0.  1.
</event>
<event>
12    1  0.1683022E-002  0.2057580E+03  0.7818608E-02  0.1145323E+00
         21   -1    0    0  501  502  0.00000000000E+00  0.00000000000E+00  0.70927017212E+03  0.70927017212E+03  0.00000000000E+00 0. -1.
         21   -1    0    0  502  503 -0.00000000000E+00 -0.00000000000E+00 -0.59708811452E+02  0.59708811452E+02  0.00000000000E+00 0. -1.
          6    2    1    2  501    0 -0.10847599118E+03  0.26308820276E+02  0.36200961627E+03  0.41639801684E+03  0.17285008379E+03 0.  0.
         24    2    3    3    0    0 -0.37997085566E+02  0.37041132516E+02  0.31971316733E+03  0.33337068245E+03  0.78126042673E+02 0.  0.
         -6    2    1    2    0  503  0.10847599118E+03 -0.26308820276E+02  0.28755174439E+03  0.35258096673E+03  0.17078681949E+03 0.  0.
        -24    2    5    5    0    0  0.28256625251E+01 -0.31750076715E+02  0.71630848435E+02  0.11209079536E+03  0.80108153246E+02 0.  0.
          5    1    3    3  501    0 -0.70478905610E+02 -0.10732312240E+02  0.42296448938E+02  0.83027334383E+02  0.47000000000E+01 0. -1.
        -13    1    4    4    0    0 -0.43797412883E+02 -0.65805538787E+01  0.21946430993E+03  0.22388858925E+03  0.00000000000E+00 0.  1.
         14    1    4    4    0    0  0.58003273171E+01  0.43621686395E+02  0.10024885740E+03  0.10948209320E+03  0.00000000000E+00 0. -1.
         -5    1    5    5    0  503  0.10565032865E+03  0.54412564385E+01  0.21592089596E+03  0.24049017137E+03  0.47000000000E+01 0.  1.
         13    1    6    6    0    0  0.34707632614E+02 -0.31866407366E+02  0.63708123736E+02  0.79238959547E+02  0.00000000000E+00 0. -1.
        -14    1    6    6    0    0 -0.31881970088E+02  0.11633065133E+00  0.79227246982E+01  0.32851835811E+02  0.00000000000E+00 0.  1.
</event>
<event>
12    1  0.1683022E-002  0.2171455E+03  0.7818608E-02  0.1136054E+00
         21   -1    0    0  503  502  0.00000000000E+00  0.00000000000E+00  0.16019734515E+03  0.16019734515E+03  0.00000000000E+00 0. -1.
         21   -1    0    0  501  503 -0.00000000000E+00 -0.00000000000E+00 -0.33841502568E+03  0.33841502568E+03  0.00000000000E+00 0.  1.
          6    2    1    2  501    0  0.12774282035E+03  0.40569055310E+02 -0.17928488044E+03  0.28159410368E+03  0.17084523544E+03 0.  0.
         24    2    3    3    0    0  0.11537745670E+03 -0.70515995562E+01 -0.18433628979E+03  0.23191276186E+03  0.80261938741E+02 0.  0.
         -6    2    1    2    0  502 -0.12774282035E+03 -0.40569055310E+02  0.10671999100E+01  0.21701826715E+03  0.17068014811E+03 0.  0.
        -24    2    5    5    0    0 -0.14967356029E+03 -0.44258363768E+02  0.31808060057E+02  0.17878662012E+03  0.81190673332E+02 0.  0.
          5    1    3    3  501    0  0.12365363655E+02  0.47620654866E+02  0.50514093561E+01  0.49681341816E+02  0.47000000000E+01 0. -1.
        -13    1    4    4    0    0  0.12006740823E+02 -0.30918846519E+02 -0.59187689904E+02  0.67847767328E+02  0.00000000000E+00 0.  1.
         14    1    4    4    0    0  0.10337071587E+03  0.23867246962E+02 -0.12514859989E+03  0.16406499454E+03  0.00000000000E+00 0. -1.
         -5    1    5    5    0  502  0.21930739945E+02  0.36893084584E+01 -0.30740860147E+02  0.38231647022E+02  0.47000000000E+01 0.  1.
         13    1    6    6    0    0  0.69132070024E+01 -0.12558593399E+02  0.10143086340E+02  0.17561118977E+02  0.00000000000E+00 0. -1.
        -14    1    6    6    0    0 -0.15658676730E+03 -0.31699770370E+02  0.21664973716E+02  0.16122550115E+03  0.00000000000E+00 0.  1.
</event>
<event>
12    1  0.1683022E-002  0.2233682E+03  0.7818608E-02  0.1132733E+00
         21   -1    0    0  501  502  0.00000000000E+00  0.00000000000E+00  0.94478042929E+03  0.94478042929E+03  0.00000000000E+00 0.  1.
         21   -1    0    0  502  503 -0.00000000000E+00 -0.00000000000E+00 -0.51131915857E+02  0.51131915857E+02  0.00000000000E+00 0. -1.
          6    2    1    2  501    0  0.53745243681E+02 -0.12969659155E+03  0.44814390765E+03  0.50072577662E+03  0.17373423475E+03 0.  0.
         24    2    3    3    0    0 -0.31561900130E+02 -0.32413141844E+02  0.21572784876E+03  0.23467936562E+03  0.80555165041E+02 0.  0.
         -6    2    1    2    0  503 -0.53745243681E+02  0.12969659155E+03  0.44550460578E+03  0.49518656853E+03  0.16439472862E+03 0.  0.
        -24    2    5    5    0    0  0.32839536601E+02  0.73718514316E+02  0.22621836941E+03  0.25282524165E+03  0.78949335881E+02 0.  0.
          5    1    3    3  501    0  0.85307143810E+02 -0.97283449711E+02  0.23241605889E+03  0.26604641100E+03  0.47000000000E+01 0. -1.
        -13    1    4    4    0    0  0.70871611082E+01  0.89497602000E+01  0.13826760697E+03  0.13873808849E+03  0.00000000000E+00 0.  1.
         14    1    4    4    0    0 -0.38649061238E+02 -0.41362902044E+02  0.77460241785E+02  0.95941277131E+02  0.00000000000E+00 0. -1.
         -5    1    5    5    0  503 -0.86584780282E+02  0.55978077238E+02  0.21928623637E+03  0.24236132688E+03  0.47000000000E+01 0.  1.
         13    1    6    6    0    0  0.15103843850E+01 -0.30951056904E+01 -0.56203085005E+01  0.65915709710E+01  0.00000000000E+00 0. -1.
        -14    1    6    6    0    0  0.31329152216E+02  0.76813620007E+02  0.23183867791E+03  0.24623367067E+03  0.00000000000E+00 0.  1.
</event>
<event>
12    1  0.1683022E-002  0.2532492E+03  0.7818608E-02  0.1112360E+00
         21   -1    0    0  501  502  0.00000000000E+00  0.00000000000E+00  0.13489703747E+03  0.13489703747E+03  0.00000000000E+00 0.  1.
         21   -1    0    0  502  503 -0.00000000000E+00 -0.00000000000E+00 -0.46774698590E+03  0.46774698590E+03  0.00000000000E+00 0.  1.
          6    2    1    2  501    0  0.57704256988E+02  0.17275638374E+03 -0.13233936284E+03  0.27962751251E+03  0.16584115712E+03 0.  0.
         24    2    3    3    0    0 -0.23234744156E+02  0.63583680624E+02 -0.90915052518E+02  0.13747314396E+03  0.77785479092E+02 0.  0.
         -6    2    1    2    0  503 -0.57704256988E+02 -0.17275638374E+03 -0.20051058558E+03  0.32301651086E+03  0.17595630697E+03 0.  0.
        -24    2    5    5    0    0  0.18060574237E+02 -0.71294213923E+02 -0.15398521588E+03  0.18802917227E+03  0.78958683092E+02 0.  0.
          5    1    3    3  501    0  0.80939001144E+02  0.10917270312E+03 -0.41424310325E+02  0.14215436855E+03  0.47000000000E+01 0. -1.
        -11    1    4    4    0    0 -0.40465502313E+02  0.55720773521E+02 -0.32659761746E+02  0.76216281178E+02  0.00000000000E+00 0.  1.
         12    1    4    4    0    0  0.17230758156E+02  0.78629071022E+01 -0.58255290772E+02  0.61256862780E+02  0.00000000000E+00 0. -1.
         -5    1    5    5    0  503 -0.75764831225E+02 -0.10146216982E+03 -0.46525369705E+02  0.13498733859E+03  0.47000000000E+01 0.  1.
         13    1    6    6    0    0  0.27968149885E+02 -0.14466079607E+02 -0.10191350979E+02  0.33096049643E+02  0.00000000000E+00 0. -1.
        -14    1    6    6    0    0 -0.99075756475E+01 -0.56828134316E+02 -0.14379386490E+03  0.15493312263E+03  0.00000000000E+00 0.  1.
</event>
<event>
12    1  0.1683022E-002  0.2172847E+03  0.7818608E-02  0.1135993E+00
         21   -1    0    0  501  502  0.00000000000E+00  0.00000000000E+00  0.63016682981E+03  0.63016682981E+03  0.00000000000E+00 0.  1.
         21   -1    0    0  502  503 -0.00000000000E+00 -0.00000000000E+00 -0.95559521721E+02  0.95559521721E+02  0.00000000000E+00 0. -1.
          6    2    1    2  501    0  0.88885772798E+02  0.97471073371E+02  0.43627756889E+03  0.48722821499E+03  0.17219734497E+03 0.  0.
         24    2    3    3    0    0  0.10486548927E+03  0.11954007800E+03  0.30241309429E+03  0.35053812806E+03  0.78337082774E+02 0.  0.
         -6    2    1    2    0  503 -0.88885772798E+02 -0.97471073371E+02  0.98329739198E+02  0.23849813654E+03  0.17265958639E+03 0.  0.
        -24    2    5    5    0    0 -0.12407258212E+03 -0.88881258356E+02  0.54105724893E+02  0.18114179501E+03  0.81185200076E+02 0.  0.
          5    1    3    3  501    0 -0.15979716476E+02 -0.22069004630E+02  0.13386447460E+03  0.13669008693E+03  0.47000000000E+01 0. -1.
        -13    1    4    4    0    0  0.27820360526E+02  0.28697660630E+02  0.15980772459E+03  0.16473019463E+03  0.00000000000E+00 0.  1.
         14    1    4    4    0    0  0.77045128748E+02  0.90842417371E+02  0.14260536970E+03  0.18580793343E+03  0.00000000000E+00 0. -1.
         -5    1    5    5    0  503  0.35186809326E+02 -0.85898150145E+01  0.44224014306E+02  0.57356341531E+02  0.47000000000E+01 0.  1.
         13    1    6    6    0    0 -0.11442500664E+03 -0.85750393670E+02  0.72361702608E+02  0.16025738100E+03  0.00000000000E+00 0. -1.
        -14    1    6    6    0    0 -0.96475754839E+01 -0.31308646867E+01 -0.18255977715E+02  0.20884414015E+02  0.00000000000E+00 0.  1.
</event>
<event>
12    1  0.1683022E-002  0.2173178E+03  0.7818608E-02  0.1136061E+00
         21   -1    0    0  503  502  0.00000000000E+00  0.00000000000E+00  0.34600105727E+02  0.34600105727E+02  0.00000000000E+00 0.  1.
         21   -1    0    0  501  503 -0.00000000000E+00 -0.00000000000E+00 -0.13850271457E+04  0.13850271457E+04  0.00000000000E+00 0.  1.
          6    2    1    2  501    0 -0.18532551888E+02  0.13030835759E+03 -0.58029484153E+03  0.61965240960E+03  0.17292565478E+03 0.  0.
         24    2    3    3    0    0  0.16589378184E+02  0.65545467486E+01 -0.31233593514E+03  0.32237708068E+03  0.77814370262E+02 0.  0.
         -6    2    1    2    0  502  0.18532551888E+02 -0.13030835759E+03 -0.77013219841E+03  0.79997484179E+03  0.17184999546E+03 0.  0.
        -24    2    5    5    0    0  0.67547044649E+02 -0.60537898888E+02 -0.32580784840E+03  0.34751870534E+03  0.79944080679E+02 0.  0.
          5    1    3    3  501    0 -0.35121930071E+02  0.12375381084E+03 -0.26795890639E+03  0.29727532891E+03  0.47000000000E+01 0. -1.
        -13    1    4    4    0    0 -0.21817486546E+02  0.28254549510E+02 -0.14344929847E+03  0.14782429949E+03  0.00000000000E+00 0.  1.
         14    1    4    4    0    0  0.38406864730E+02 -0.21700002761E+02 -0.16888663667E+03  0.17455278120E+03  0.00000000000E+00 0. -1.
         -5    1    5    5    0  502 -0.49014492762E+02 -0.69770458698E+02 -0.44432435001E+03  0.45245613646E+03  0.47000000000E+01 0.  1.
         11    1    6    6    0    0 -0.88939494581E+01  0.69809729235E+01 -0.88540614534E+02  0.89259603080E+02  0.00000000000E+00 0. -1.
        -12    1    6    6    0    0  0.76440994108E+02 -0.67518871812E+02 -0.23726723387E+03  0.25825910226E+03  0.00000000000E+00 0.  1.
</event>
<event>
12    1  0.1683022E-002  0.2023955E+03  0.7818608E-02  0.1147871E+00
         21   -1    0    0  501  502  0.00000000000E+00  0.00000000000E+00  0.30477139833E+02  0.30477139833E+02  0.00000000000E+00 0. -1.
         21   -1    0    0  502  503 -0.00000000000E+00 -0.00000000000E+00 -0.13722906083E+04  0.13722906083E+04  0.00000000000E+00 0. -1.
          6    2    1    2  501    0  0.10346878250E+03 -0.21162917858E+02 -0.77793961768E+03  0.80367037857E+03  0.17187894167E+03 0.  0.
         24    2    3    3    0    0  0.92728386760E+02  0.43096699391E+02 -0.60715980925E+03  0.62082484956E+03  0.79527232189E+02 0.  0.
         -6    2    1    2    0  503 -0.10346878250E+03  0.21162917858E+02 -0.56387385077E+03  0.59909736954E+03  0.17265653932E+03 0.  0.
        -24    2    5    5    0    0 -0.20209509879E+02 -0.38083000633E+02 -0.35629514437E+03  0.36768173765E+03  0.79905513408E+02 0.  0.
          5    1    3    3  501    0  0.10740395737E+02 -0.64259617249E+02 -0.17077980843E+03  0.18284552900E+03  0.47000000000E+01 0. -1.
        -11    1    4    4    0    0  0.38759116336E+02 -0.88473710667E+01 -0.36968407625E+03  0.37181562811E+03  0.00000000000E+00 0.  1.
         12    1    4    4    0    0  0.53969270425E+02  0.51944070458E+02 -0.23747573300E+03  0.24900922145E+03  0.00000000000E+00 0. -1.
         -5    1    5    5    0  503 -0.83259272618E+02  0.59245918491E+02 -0.20757870639E+03  0.23141563189E+03  0.47000000000E+01 0.  1.
         11    1    6    6    0    0 -0.87174818800E+01 -0.69969818248E+01 -0.31279524173E+03  0.31299491289E+03  0.00000000000E+00 0. -1.
        -12    1    6    6    0    0 -0.11492027999E+02 -0.31086018808E+02 -0.43499902642E+02  0.54686824764E+02  0.00000000000E+00 0.  1.
</event>
<event>
12    1  0.1683022E-002  0.1834440E+03  0.7818608E-02  0.1165237E+00
         21   -1    0    0  501  502  0.00000000000E+00  0.00000000000E+00  0.50150686850E+03  0.50150686850E+03  0.00000000000E+00 0. -1.
         21   -1    0    0  502  503 -0.00000000000E+00 -0.00000000000E+00 -0.76196312331E+02  0.76196312331E+02  0.00000000000E+00 0. -1.
          6    2    1    2  501    0  0.24474352562E+02  0.56459486004E+02  0.31990432296E+03  0.36876885266E+03  0.17281499748E+03 0.  0.
         24    2    3    3    0    0 -0.43553854538E+02  0.27454262164E+02  0.11584620946E+03  0.15167222980E+03  0.83267318267E+02 0.  0.
         -6    2    1    2    0  503 -0.24474352562E+02 -0.56459486004E+02  0.10540623321E+03  0.20893432817E+03  0.16957715647E+03 0.  0.
        -24    2    5    5    0    0 -0.36211309869E+01 -0.92831134109E+02  0.37936309436E+02  0.12936024790E+03  0.81634417464E+02 0.  0.
          5    1    3    3  501    0  0.68028207100E+02  0.29005223839E+02  0.20405811350E+03  0.21709662286E+03  0.47000000000E+01 0. -1.
        -13    1    4    4    0    0 -0.35999295334E+02 -0.16242760886E+02  0.94573399079E+02  0.10248855721E+03  0.00000000000E+00 0.  1.
         14    1    4    4    0    0 -0.75545592042E+01  0.43697023051E+02  0.21272810380E+02  0.49183672593E+02  0.00000000000E+00 0. -1.
         -5    1    5    5    0  503 -0.20853221575E+02  0.36371648105E+02  0.67469923776E+02  0.79574080266E+02  0.47000000000E+01 0.  1.
         13    1    6    6    0    0 -0.10828288484E+02 -0.27723374823E+02 -0.24737901925E+02  0.38701435823E+02  0.00000000000E+00 0. -1.
        -14    1    6    6    0    0  0.72071574974E+01 -0.65107759285E+02  0.62674211361E+02  0.90658812082E+02  0.00000000000E+00 0.  1.
</event>
<event>
12    1  0.1683022E-002  0.1963367E+03  0.7818608E-02  0.1153812E+00
         21   -1    0    0  501  502  0.00000000000E+00  0.00000000000E+00  0.75851074310E+03  0.75851074310E+03  0.00000000000E+00 0. -1.
         21   -1    0    0  502  503 -0.00000000000E+00 -0.00000000000E+00 -0.50170788971E+02  0.50170788971E+02  0.00000000000E+00 0. -1.
          6    2    1    2  501    0 -0.60122854686E+02 -0.62020622849E+02  0.31926315753E+03  0.37480269279E+03  0.17631443349E+03 0.  0.
         24    2    3    3    0    0 -0.11720193474E+02 -0.53862365773E+02  0.30562372279E+03  0.32364119408E+03  0.91100193131E+02 0.  0.
         -6    2    1    2    0  503  0.60122854686E+02  0.62020622849E+02  0.38907679660E+03  0.43387883928E+03  0.17148987785E+03 0.  0.
        -24    2    5    5    0    0  0.15436863818E+02  0.10145844195E+03  0.29641949444E+03  0.32360805893E+03  0.79533306919E+02 0.  0.
          5    1    3    3  501    0 -0.48402661212E+02 -0.81582570760E+01  0.13639434734E+02  0.51161498715E+02  0.47000000000E+01 0. -1.
        -13    1    4    4    0    0 -0.32717234385E+02  0.11533148154E+02  0.14221138018E+03  0.14638137718E+03  0.00000000000E+00 0.  1.
         14    1    4    4    0    0  0.20997040911E+02 -0.65395513926E+02  0.16341234261E+03  0.17725981690E+03  0.00000000000E+00 0. -1.
         -5    1    5    5    0  503  0.44685990868E+02 -0.39437819104E+02  0.92657302159E+02  0.11027078035E+03  0.47000000000E+01 0.  1.
         11    1    6    6    0    0  0.49194275811E+00 -0.44917102673E+01  0.98613606858E+02  0.98717075151E+02  0.00000000000E+00 0. -1.
        -12    1    6    6    0    0  0.14944921060E+02  0.10595015222E+03  0.19780588758E+03  0.22489098377E+03  0.00000000000E+00 0.  1.
</event>
<event>
12    1  0.1683022E-002  0.1760134E+03  0.7818608E-02  0.1171802E+00
         21   -1    0    0  501  502  0.00000000000E+00  0.00000000000E+00  0.18468076668E+04  0.18468076668E+04  0.00000000000E+00 0.  1.
         21   -1    0    0  502  503 -0.00000000000E+00 -0.00000000000E+00 -0.39747723883E+02  0.39747723883E+02  0.00000000000E+00 0.  1.
          6    2    1    2  501    0 -0.74476068693E+01  0.38718361292E+02  0.16207781360E+04  0.16302711192E+04  0.17119456050E+03 0.  0.
         24    2    3    3    0    0 -0.60931346720E+02  0.60125300281E+02  0.10017727243E+04  0.10085729953E+04  0.79644303258E+02 0.  0.
         -6    2    1    2    0  503  0.74476068693E+01 -0.38718361292E+02  0.18628180692E+03  0.25628427151E+03  0.17154048468E+03 0.  0.
        -24    2    5    5    0    0  0.21368189673E+02 -0.71720553374E+02  0.61561718185E+02  0.12643775503E+03  0.81217137626E+02 0.  0.
          5    1    3    3  501    0  0.53483739850E+02 -0.21406938988E+02  0.61900541172E+03  0.62169812386E+03  0.47000000000E+01 0. -1.
        -13    1    4    4    0    0 -0.14015976663E+02  0.19900897977E+02  0.70569222679E+03  0.70611189786E+03  0.00000000000E+00 0.  1.
         14    1    4    4    0    0 -0.46915370057E+02  0.40224402304E+02  0.29608049747E+03  0.30246109745E+03  0.00000000000E+00 0. -1.
         -5    1    5    5    0  503 -0.13920582804E+02  0.33002192082E+02  0.12472008874E+03  0.12984651648E+03  0.47000000000E+01 0.  1.
         11    1    6    6    0    0 -0.21522523070E+02 -0.32935869155E+01  0.35377766379E+02  0.41540980586E+02  0.00000000000E+00 0. -1.
        -12    1    6    6    0    0  0.42890712743E+02 -0.68426966459E+02  0.26183951806E+02  0.84896774441E+02  0.00000000000E+00 0.  1.
</event>
<event>
12    1  0.1683022E-002  0.2016381E+03  0.7818608E-02  0.1149296E+00
         21   -1    0    0  503  502  0.00000000000E+00  0.00000000000E+00  0.24353318165E+02  0.24353318165E+02  0.00000000000E+00 0. -1.
         21   -1    0    0  501  503 -0.00000000000E+00 -0.00000000000E+00 -0.16702522490E+04  0.16702522490E+04  0.00000000000E+00 0.  1.
          6    2    1    2  501    0 -0.60439799664E+02 -0.55759565942E+02 -0.68782504984E+03  0.71554300627E+03  0.17926627140E+03 0.  0.
         24    2    3    3    0    0  0.16836148421E+02  0.11140465155E+02 -0.43170107504E+03  0.43973733777E+03  0.81212943405E+02 0.  0.
         -6    2    1    2    0  502  0.60439799664E+02  0.55759565942E+02 -0.95807388099E+03  0.97906256089E+03  0.18410822393E+03 0.  0.
        -24    2    5    5    0    0 -0.21823090644E+02 -0.21233977088E+02 -0.47924604889E+03  0.48713434297E+03  0.81828868108E+02 0.  0.
          5    1    3    3  501    0 -0.77275948085E+02 -0.66900031097E+02 -0.25612397479E+03  0.27580566850E+03  0.47000000000E+01 0. -1.
        -11    1    4    4    0    0  0.75694555399E+01  0.44441008880E+02 -0.17472753456E+03  0.18044947010E+03  0.00000000000E+00 0.  1.
         12    1    4    4    0    0  0.92666928809E+01 -0.33300543725E+02 -0.25697354048E+03  0.25928786766E+03  0.00000000000E+00 0. -1.
         -5    1    5    5    0  502  0.82262890309E+02  0.76993543030E+02 -0.47882783210E+03  0.49192821792E+03  0.47000000000E+01 0.  1.
         13    1    6    6    0    0 -0.13182322821E+01  0.25914020027E+02 -0.69689868432E+02  0.74363646578E+02  0.00000000000E+00 0. -1.
        -14    1    6    6    0    0 -0.20504858362E+02 -0.47147997115E+02 -0.40955618046E+03  0.41277069639E+03  0.00000000000E+00 0.  1.
</event>
<event>
12    1  0.1683022E-002  0.1792572E+03  0.7818608E-02  0.1168579E+00
         21   -1    0    0  501  502  0.00000000000E+00  0.00000000000E+00  0.71687670571E+03  0.71687670571E+03  0.00000000000E+00 0. -1.
         21   -1    0    0  502  503 -0.00000000000E+00 -0.00000000000E+00 -0.46695889019E+02  0.46695889019E+02  0.00000000000E+00 0. -1.
          6    2    1    2  501    0  0.10592918154E+02 -0.48559507794E+02  0.41289171240E+03  0.45012521251E+03  0.17222922242E+03 0.  0.
         24    2    3    3    0    0  0.64778177839E+02 -0.32916779592E+01  0.24607648389E+03  0.26892193095E+03  0.86938607960E+02 0.  0.
         -6    2    1    2    0  503 -0.10592918154E+02  0.48559507794E+02  0.25728910429E+03  0.31344738222E+03  0.17199227460E+03 0.  0.
        -24    2    5    5    0    0  0.20929709981E+02 -0.31934024771E+02  0.99507271281E+02  0.13347493517E+03  0.80349403126E+02 0.  0.
          5    1    3    3  501    0 -0.54185259685E+02 -0.45267829835E+02  0.16681522851E+03  0.18120328156E+03  0.47000000000E+01 0. -1.
        -13    1    4    4    0    0  0.15940723357E+02 -0.42782224490E+02  0.10210667485E+03  0.11184899840E+03  0.00000000000E+00 0.  1.
         14    1    4    4    0    0  0.48837454481E+02  0.39490546531E+02  0.14396980903E+03  0.15707293255E+03  0.00000000000E+00 0. -1.
         -5    1    5    5    0  503 -0.31522628135E+02  0.80493532565E+02  0.15778183300E+03  0.17997244705E+03  0.47000000000E+01 0.  1.
         13    1    6    6    0    0  0.46373582648E+02  0.13165906744E+00  0.65517329782E+02  0.80268592883E+02  0.00000000000E+00 0. -1.
        -14    1    6    6    0    0 -0.25443872667E+02 -0.32065683839E+02  0.33989941500E+02  0.53206342286E+02  0.00000000000E+00 0.  1.
</event>
<event>
12    1  0.1683022E-002  0.2146550E+03  0.7818608E-02  0.1138785E+00
         21   -1    0    0  503  502  0.00000000000E+00  0.00000000000E+00  0.35767397634E+03  0.35767397634E+03  0.00000000000E+00 0. -1.
         21   -1    0    0  501  503 -0.00000000000E+00 -0.00000000000E+00 -0.13561293002E+03  0.13561293002E+03  0.00000000000E+00 0. -1.
          6    2    1    2  501    0  0.63407510699E+02 -0.10343860669E+03  0.17705888594E+03  0.27825638726E+03  0.17707826007E+03 0.  0.
         24    2    3    3    0    0 -0.48488175060E+00 -0.11275411860E+03  0.75174842552E+02  0.15754406447E+03  0.80343941434E+02 0.  0.
         -6    2    1    2    0  502 -0.63407510699E+02  0.10343860669E+03  0.45002160378E+02  0.21503051909E+03  0.17173488852E+03 0.  0.
        -24    2    5    5    0    0  0.45357568910E+01  0.20055326837E+02 -0.22263719877E+02  0.88082310691E+02  0.82704479981E+02 0.  0.
          5    1    3    3  501    0  0.63892392449E+02  0.93155119081E+01  0.10188404339E+03  0.12071232279E+03  0.47000000000E+01 0. -1.
        -11    1    4    4    0    0 -0.18470246071E+02 -0.33157211378E+02 -0.10343346864E+02  0.39338727491E+02  0.00000000000E+00 0.  1.
         12    1    4    4    0    0  0.17985364320E+02 -0.79596907222E+02  0.85518189416E+02  0.11820533698E+03  0.00000000000E+00 0. -1.
         -5    1    5    5    0  502 -0.67943267590E+02  0.83383279855E+02  0.67265880255E+02  0.12694820840E+03  0.47000000000E+01 0.  1.
         13    1    6    6    0    0 -0.30123471835E+02  0.27385059083E+02 -0.31497507978E+02  0.51472886312E+02  0.00000000000E+00 0. -1.
        -14    1    6    6    0    0  0.34659228726E+02 -0.73297322465E+01  0.92337881013E+01  0.36609424380E+02  0.00000000000E+00 0.  1.
</event>
<event>
12    1  0.1683022E-002  0.1910120E+03  0.7818608E-02  0.1157778E+00
         21   -1    0    0  503  502  0.00000000000E+00  0.00000000000E+00  0.24122158578E+03  0.24122158578E+03  0.00000000000E+00 0. -1.
         21   -1    0    0  501  503 -0.00000000000E+00 -0.00000000000E+00 -0.17221694881E+03  0.17221694881E+03  0.00000000000E+00 0. -1.
          6    2    1    2  501    0 -0.22279995319E+01  0.81206119106E+02 -0.38896340430E+02  0.19493201962E+03  0.17287616727E+03 0.  0.
         24    2    3    3    0    0  0.22682693032E+02  0.10478223935E+02 -0.76371662738E+02  0.11097091230E+03  0.76535055812E+02 0.  0.
         -6    2    1    2    0  502  0.22279995319E+01 -0.81206119106E+02  0.10790097741E+03  0.21850651497E+03  0.17176460170E+03 0.  0.
        -24    2    5    5    0    0  0.38118111575E+02 -0.10841897106E+03  0.10333139836E+03  0.17299156680E+03  0.77724131279E+02 0.  0.
          5    1    3    3  501    0 -0.24910692563E+02  0.70727895171E+02  0.37475322308E+02  0.83961107314E+02  0.47000000000E+01 0. -1.
        -13    1    4    4    0    0 -0.97598567320E+01  0.34906877512E+02 -0.52709540389E+02  0.63969059310E+02  0.00000000000E+00 0.  1.
         14    1    4    4    0    0  0.32442549764E+02 -0.24428653576E+02 -0.23662122349E+02  0.47001852993E+02  0.00000000000E+00 0. -1.
         -5    1    5    5    0  502 -0.35890112043E+02  0.27212851952E+02  0.45695790451E+01  0.45514948165E+02  0.47000000000E+01 0.  1.
         11    1    6    6    0    0  0.49225785435E+02 -0.26957878820E+02  0.48430255071E+02  0.74130930039E+02  0.00000000000E+00 0. -1.
        -12    1    6    6    0    0 -0.11107673860E+02 -0.81461092238E+02  0.54901143289E+02  0.98860636766E+02  0.00000000000E+00 0.  1.
</event>
<event>
12    1  0.1683022E-002  0.2120887E+03  0.7818608E-02  0.1140056E+00
         21   -1    0    0  501  502  0.00000000000E+00  0.00000000000E+00  0.28124354471E+03  0.28124354471E+03  0.00000000000E+00 0.  1.
         21   -1    0    0  502  503 -0.00000000000E+00 -0.00000000000E+00 -0.16714985719E+03  0.16714985719E+03  0.00000000000E+00 0. -1.
          6    2    1    2  501    0 -0.22543412437E+02 -0.12083537231E+03  0.89361409585E+01  0.21227683906E+03  0.17283578664E+03 0.  0.
         24    2    3    3    0    0 -0.16703510384E+02 -0.15515564452E+03 -0.37791233446E+01  0.17491705470E+03  0.78926630273E+02 0.  0.
         -6    2    1    2    0  503  0.22543412437E+02  0.12083537231E+03  0.10515754656E+03  0.23611656283E+03  0.17199863081E+03 0.  0.
        -24    2    5    5    0    0  0.22712714638E+02  0.14674036908E+03  0.50881841194E+02  0.17579210913E+03  0.79153651495E+02 0.  0.
          5    1    3    3  501    0 -0.58399020530E+01  0.34320272216E+02  0.12715264303E+02  0.37359784358E+02  0.47000000000E+01 0. -1.
        -13    1    4    4    0    0 -0.38443835785E+02 -0.14587308340E+03  0.70971209363E+00  0.15085552248E+03  0.00000000000E+00 0.  1.
         14    1    4    4    0    0  0.21740325401E+02 -0.92825611246E+01 -0.44888354382E+01  0.24061532228E+02  0.00000000000E+00 0. -1.
         -5    1    5    5    0  503 -0.16930220050E+00 -0.25904996773E+02  0.54275705367E+02  0.60324453699E+02  0.47000000000E+01 0.  1.
         11    1    6    6    0    0  0.18539756784E+02  0.22317097561E+01 -0.71705547098E+01  0.20002998897E+02  0.00000000000E+00 0. -1.
        -12    1    6    6    0    0  0.41729578539E+01  0.14450865933E+03  0.58052395903E+02  0.15578911023E+03  0.00000000000E+00 0.  1.
</event>
<event>
12    1  0.1683022E-002  0.1777027E+03  0.7818608E-02  0.1170102E+00
         21   -1    0    0  501  502  0.00000000000E+00  0.00000000000E+00  0.55276671564E+02  0.55276671564E+02  0.00000000000E+00 0. -1.
         21   -1    0    0  502  503 -0.00000000000E+00 -0.00000000000E+00 -0.62685331310E+03  0.62685331310E+03  0.00000000000E+00 0. -1.
          6    2    1    2  501    0  0.43441856299E+02 -0.16591045827E+01 -0.38784992273E+03  0.42652532412E+03  0.17206493556E+03 0.  0.
         24    2    3    3    0    0  0.59282530448E+02 -0.60773739254E+02 -0.29046504552E+03  0.31141072340E+03  0.73476732241E+02 0.  0.
         -6    2    1    2    0  503 -0.43441856299E+02  0.16591045827E+01 -0.18372671881E+03  0.25560466054E+03  0.17230289545E+03 0.  0.
        -24    2    5    5    0    0 -0.79318296244E+02 -0.19960916310E+02 -0.69958756905E+02  0.13427954607E+03  0.80292829856E+02 0.  0.
          5    1    3    3  501    0 -0.15840674149E+02  0.59114634672E+02 -0.97384877206E+02  0.11511460072E+03  0.47000000000E+01 0. -1.
        -13    1    4    4    0    0  0.25348425711E+01 -0.29253403053E+02 -0.26406955987E+02  0.39490686770E+02  0.00000000000E+00 0.  1.
         14    1    4    4    0    0  0.56747687877E+02 -0.31520336201E+02 -0.26405808953E+03  0.27192003663E+03  0.00000000000E+00 0. -1.
         -5    1    5    5    0  503  0.35876439945E+02  0.21620020892E+02 -0.11376796190E+03  0.12132511447E+03  0.47000000000E+01 0.  1.
         11    1    6    6    0    0 -0.20584733432E+02 -0.41739354612E+02 -0.10070876366E+02  0.47616462748E+02  0.00000000000E+00 0. -1.
        -12    1    6    6    0    0 -0.58733562813E+02  0.21778438302E+02 -0.59887880539E+02  0.86663083323E+02  0.00000000000E+00 0.  1.
</event>
<event>
12    1  0.1683022E-002  0.1766323E+03  0.7818608E-02  0.1171134E+00
         21   -1    0    0  503  502  0.00000000000E+00  0.00000000000E+00  0.10535592511E+03  0.10535592511E+03  0.00000000000E+00 0. -1.
         21   -1    0    0  501  503 -0.00000000000E+00 -0.00000000000E+00 -0.30478360425E+03  0.30478360425E+03  0.00000000000E+00 0. -1.
          6    2    1    2  501    0  0.34310578730E+02  0.16854363146E+02 -0.64769834620E+02  0.18813315603E+03  0.17244612942E+03 0.  0.
         24    2    3    3    0    0 -0.24823222452E+02 -0.11131039446E+02  0.15326221010E+02  0.84608002914E+02  0.78635416286E+02 0.  0.
         -6    2    1    2    0  502 -0.34310578730E+02 -0.16854363146E+02 -0.13465784452E+03  0.22200637332E+03  0.17231601590E+03 0.  0.
        -24    2    5    5    0    0 -0.67093051620E+02  0.23657155983E+02 -0.13195006999E+03  0.16961080334E+03  0.79346487223E+02 0.  0.
          5    1    3    3  501    0  0.59133801182E+02  0.27985402592E+02 -0.80096055630E+02  0.10352515312E+03  0.47000000000E+01 0. -1.
        -13    1    4    4    0    0 -0.45134713414E+01  0.19589483471E+02 -0.23613754683E+02  0.31011750941E+02  0.00000000000E+00 0.  1.
         14    1    4    4    0    0 -0.20309751111E+02 -0.30720522917E+02  0.38939975693E+02  0.53596251972E+02  0.00000000000E+00 0. -1.
         -5    1    5    5    0  502  0.32782472891E+02 -0.40511519128E+02 -0.27077745275E+01  0.52395569983E+02  0.47000000000E+01 0.  1.
         13    1    6    6    0    0 -0.14844023590E+02 -0.28880669464E+02 -0.40600552440E+02  0.51988873458E+02  0.00000000000E+00 0. -1.
        -14    1    6    6    0    0 -0.52249028031E+02  0.52537825446E+02 -0.91349517550E+02  0.11762192988E+03  0.00000000000E+00 0.  1.
</event>
<event>
12    1  0.1683022E-002  0.2442654E+03  0.7818608E-02  0.1117071E+00
         21   -1    0    0  501  502  0.00000000000E+00  0.00000000000E+00  0.11217997600E+03  0.11217997600E+03  0.00000000000E+00 0.  1.
         21   -1    0    0  502  503 -0.00000000000E+00 -0.00000000000E+00 -0.70988536625E+03  0.70988536625E+03  0.00000000000E+00 0. -1.
          6    2    1    2  501    0 -0.16781326453E+03 -0.44489562442E+02 -0.92596253996E+02  0.26122717145E+03  0.17182827453E+03 0.  0.
         24    2    3    3    0    0 -0.10311564051E+03 -0.23028248048E+02  0.15615382688E+02  0.13324975593E+03  0.79677611359E+02 0.  0.
         -6    2    1    2    0  503  0.16781326453E+03  0.44489562442E+02 -0.50510913625E+03  0.56083817081E+03  0.17106607316E+03 0.  0.
        -24    2    5    5    0    0  0.36356484319E+02 -0.23920160568E+02 -0.25602164617E+03  0.27096329611E+03  0.77330824997E+02 0.  0.
          5    1    3    3  501    0 -0.64697624023E+02 -0.21461314394E+02 -0.10821163668E+03  0.12797741552E+03  0.47000000000E+01 0. -1.
        -11    1    4    4    0    0 -0.84054871162E+02 -0.31317476103E+02 -0.20102324469E+02  0.91924475112E+02  0.00000000000E+00 0.  1.
         12    1    4    4    0    0 -0.19060769350E+02  0.82892280551E+01  0.35717707157E+02  0.41325280816E+02  0.00000000000E+00 0. -1.
         -5    1    5    5    0  503  0.13145678022E+03  0.68409723011E+02 -0.24908749008E+03  0.28987487470E+03  0.47000000000E+01 0.  1.
         11    1    6    6    0    0  0.31244662584E+02  0.74677384398E+01 -0.34384384068E+02  0.47056157144E+02  0.00000000000E+00 0. -1.
        -12    1    6    6    0    0  0.51118217344E+01 -0.31387899008E+02 -0.22163726210E+03  0.22390713896E+03  0.00000000000E+00 0.  1.
</event>
<event>
12    1  0.1683022E-002  0.2002324E+03  0.7818608E-02  0.1150062E+00
         21   -1    0    0  503  502  0.00000000000E+00  0.00000000000E+00  0.34600930162E+02  0.34600930162E+02  0.00000000000E+00 0.  1.
         21   -1    0    0  501  503 -0.00000000000E+00 -0.00000000000E+00 -0.11750605106E+04  0.11750605106E+04  0.00000000000E+00 0.  1.
          6    2    1    2  501    0  0.47223779048E+02 -0.88646490827E+02 -0.66416960600E+03  0.69299407163E+03  0.17038553969E+03 0.  0.
         24    2    3    3    0    0  0.18147904712E+02  0.15909809272E+02 -0.37583482564E+03  0.38487646110E+03  0.79344852773E+02 0.  0.
         -6    2    1    2    0  502 -0.47223779048E+02  0.88646490827E+02 -0.47628997444E+03  0.51666736914E+03  0.17321877766E+03 0.  0.
        -24    2    5    5    0    0 -0.26174877372E+02 -0.18581312407E+02 -0.15873256895E+03  0.18080183975E+03  0.80392085649E+02 0.  0.
          5    1    3    3  501    0  0.29075874336E+02 -0.10455630010E+03 -0.28833478035E+03  0.30811761053E+03  0.47000000000E+01 0. -1.
        -11    1    4    4    0    0  0.44554184171E+01 -0.24292327877E+02 -0.26556193767E+03  0.26670791268E+03  0.00000000000E+00 0.  1.
         12    1    4    4    0    0  0.13692486295E+02  0.40202137150E+02 -0.11027288797E+03  0.11816854841E+03  0.00000000000E+00 0. -1.
         -5    1    5    5    0  502 -0.21048901677E+02  0.10722780323E+03 -0.31755740549E+03  0.33586552938E+03  0.47000000000E+01 0.  1.
         13    1    6    6    0    0 -0.50034836747E+02 -0.13131661600E+02 -0.14206777951E+03  0.15119252428E+03  0.00000000000E+00 0. -1.
        -14    1    6    6    0    0  0.23859959375E+02 -0.54496508072E+01 -0.16664789446E+02  0.29609315470E+02  0.00000000000E+00 0.  1.
</event>
<event>
12    1  0.1683022E-002  0.2574676E+03  0.7818608E-02  0.1108733E+00
         21   -1    0    0  501  502  0.00000000000E+00  0.00000000000E+00  0.34434808632E+03  0.34434808632E+03  0.00000000000E+00 0. -1.
         21   -1    0    0  502  503 -0.00000000000E+00 -0.00000000000E+00 -0.20843372431E+03  0.20843372431E+03  0.00000000000E+00 0.  1.
          6    2    1    2  501    0  0.17825863021E+03  0.69029065539E+02  0.14508724463E+03  0.29553324160E+03  0.17247735272E+03 0.  0.
         24    2    3    3    0    0  0.13896003967E+03 -0.12818011245E+02  0.12226998371E+03  0.20179935983E+03  0.79365223315E+02 0.  0.
         -6    2    1    2    0  503 -0.17825863021E+03 -0.69029065539E+02 -0.91728826207E+01  0.25724856903E+03  0.17190559432E+03 0.  0.
        -24    2    5    5    0    0 -0.11054218754E+03 -0.59148295715E+02 -0.71914701801E+02  0.16428743686E+03  0.78105963034E+02 0.  0.
          5    1    3    3  501    0  0.39298590538E+02  0.81847076783E+02  0.22817260928E+02  0.93733881775E+02  0.47000000000E+01 0. -1.
        -11    1    4    4    0    0  0.29725516804E+02 -0.38030414053E+02  0.32664210673E+02  0.58282668103E+02  0.00000000000E+00 0.  1.
         12    1    4    4    0    0  0.10923452287E+03  0.25212402808E+02  0.89605773034E+02  0.14351669172E+03  0.00000000000E+00 0. -1.
         -5    1    5    5    0  503 -0.67716442672E+02 -0.98807698234E+01  0.62741819181E+02  0.92961132171E+02  0.47000000000E+01 0.  1.
         11    1    6    6    0    0 -0.80585893314E+02 -0.44417918890E+02 -0.82297819469E+01  0.92383802859E+02  0.00000000000E+00 0. -1.
        -12    1    6    6    0    0 -0.29956294225E+02 -0.14730376825E+02 -0.63684919854E+02  0.71903633997E+02  0.00000000000E+00 0.  1.
</event>
<event>
12    1  0.1683022E-002  0.1783170E+03  0.7818608E-02  0.1169794E+00
         21   -1    0    0  501  502  0.00000000000E+00  0.00000000000E+00  0.19898204089E+03  0.19898204089E+03  0.00000000000E+00 0.  1.
         21   -1    0    0  502  503 -0.00000000000E+00 -0.00000000000E+00 -0.18599679543E+03  0.18599679543E+03  0.00000000000E+00 0.  1.
          6    2    1    2  501    0  0.61214251032E+00 -0.44356491783E+02  0.80502249267E+02  0.19564652872E+03  0.17271096948E+03 0.  0.
         24    2    3    3    0    0 -0.67879869114E+02 -0.33277149546E+02  0.47284822423E+02  0.11857905875E+03  0.78167086613E+02 0.  0.
         -6    2    1    2    0  503 -0.61214251032E+00  0.44356491783E+02 -0.67517003799E+02  0.18933230761E+03  0.17123172551E+03 0.  0.
        -24    2    5    5    0    0 -0.20153101286E+01  0.28584990295E+02 -0.11211144421E+03  0.14177746291E+03  0.81918922853E+02 0.  0.
          5    1    3    3  501    0  0.68492011624E+02 -0.11079342237E+02  0.33217426844E+02  0.77067469965E+02  0.47000000000E+01 0. -1.
        -13    1    4    4    0    0 -0.50829477029E+02 -0.58965345646E+02  0.32051784782E+02  0.84189456762E+02  0.00000000000E+00 0.  1.
         14    1    4    4    0    0 -0.17050392084E+02  0.25688196100E+02  0.15233037641E+02  0.34389601988E+02  0.00000000000E+00 0. -1.
         -5    1    5    5    0  503  0.14031676183E+01  0.15771501489E+02  0.44594440410E+02  0.47554844696E+02  0.47000000000E+01 0.  1.
         11    1    6    6    0    0  0.85008635185E+01 -0.27984768585E+02 -0.37741133538E+02  0.47747304783E+02  0.00000000000E+00 0. -1.
        -12    1    6    6    0    0 -0.10516173647E+02  0.56569758880E+02 -0.74370310672E+02  0.94030158127E+02  0.00000000000E+00 0.  1.
</event>
<event>
12    1  0.1683022E-002  0.1834542E+03  0.7818608E-02  0.1164703E+00
         21   -1    0    0  501  502  0.00000000000E+00  0.00000000000E+00  0.40328539359E+02  0.40328539359E+02  0.00000000000E+00 0. -1.
         21   -1    0    0  502  503 -0.00000000000E+00 -0.00000000000E+00 -0.87209714169E+03  0.87209714169E+03  0.00000000000E+00 0. -1.
          6    2    1    2  501    0  0.61813143202E+02  0.27979679750E+01 -0.31735846140E+03  0.36656764883E+03  0.17270424098E+03 0.  0.
         24    2    3    3    0    0  0.21824628552E+02 -0.36066017536E+02 -0.74410717811E+02  0.11725822906E+03  0.80221352048E+02 0.  0.
         -6    2    1    2    0  503 -0.61813143202E+02 -0.27979679750E+01 -0.51441014093E+03  0.54585803222E+03  0.17179786071E+03 0.  0.
        -24    2    5    5    0    0 -0.10776425053E+03 -0.15994873646E+02 -0.37280336385E+03  0.39632465166E+03  0.78879095739E+02 0.  0.
          5    1    3    3  501    0  0.39988514650E+02  0.38863985511E+02 -0.24294774359E+03  0.24930941977E+03  0.47000000000E+01 0. -1.
        -13    1    4    4    0    0 -0.30018815039E+02 -0.66549659025E+01 -0.21102923153E+02  0.37292776688E+02  0.00000000000E+00 0.  1.
         14    1    4    4    0    0  0.51843443590E+02 -0.29411051633E+02 -0.53307794658E+02  0.79965452370E+02  0.00000000000E+00 0. -1.
         -5    1    5    5    0  503  0.45951107326E+02  0.13196905671E+02 -0.14160677708E+03  0.14953338055E+03  0.47000000000E+01 0.  1.
         11    1    6    6    0    0 -0.34765964069E+02 -0.42266927853E+02 -0.12013198855E+03  0.13201083334E+03  0.00000000000E+00 0. -1.
        -12    1    6    6    0    0 -0.72998286458E+02  0.26272054207E+02 -0.25267137530E+03  0.26431381832E+03  0.00000000000E+00 0.  1.
</event>
<event>
12    1  0.1683022E-002  0.2001287E+03  0.7818608E-02  0.1149739E+00
         21   -1    0    0  503  502  0.00000000000E+00  0.00000000000E+00  0.20777088371E+02  0.20777088371E+02  0.00000000000E+00 0.  1.
         21   -1    0    0  501  503 -0.00000000000E+00 -0.00000000000E+00 -0.30272506654E+04  0.30272506654E+04  0.00000000000E+00 0.  1.
          6    2    1    2  501    0  0.10070737756E+03  0.25524944891E+02 -0.24250303145E+04  0.24332742398E+04  0.17104970421E+03 0.  0.
         24    2    3    3    0    0  0.74298870931E+02  0.11646768187E+02 -0.74686013588E+03  0.75483232800E+03  0.79472079336E+02 0.  0.
         -6    2    1    2    0  502 -0.10070737756E+03 -0.25524944891E+02 -0.58144326250E+03  0.61475351390E+03  0.17044681471E+03 0.  0.
        -24    2    5    5    0    0 -0.85475960262E+01 -0.54998091622E+02 -0.22054617291E+03  0.24108134343E+03  0.79885845342E+02 0.  0.
          5    1    3    3  501    0  0.26408506629E+02  0.13878176705E+02 -0.16781701786E+04  0.16784419118E+04  0.47000000000E+01 0. -1.
        -13    1    4    4    0    0  0.18623573290E+02  0.33097893259E+02 -0.14044922021E+03  0.14549326953E+03  0.00000000000E+00 0.  1.
         14    1    4    4    0    0  0.55675297641E+02 -0.21451125073E+02 -0.60641091567E+03  0.60933905847E+03  0.00000000000E+00 0. -1.
         -5    1    5    5    0  502 -0.92159781534E+02  0.29473146731E+02 -0.36089708959E+03  0.37367217047E+03  0.47000000000E+01 0.  1.
         13    1    6    6    0    0  0.29861416536E+02 -0.61858431296E+01 -0.41016769402E+02  0.51111096887E+02  0.00000000000E+00 0. -1.
        -14    1    6    6    0    0 -0.38409012562E+02 -0.48812248493E+02 -0.17952940350E+03  0.18997024654E+03  0.00000000000E+00 0.  1.
</event>
<event>
12    1  0.1683022E-002  0.2461821E+03  0.7818608E-02  0.1116729E+00
         21   -1    0    0  501  502  0.00000000000E+00  0.00000000000E+00  0.12519403792E+03  0.12519403792E+03  0.00000000000E+00 0. -1.
         21   -1    0    0  502  503 -0.00000000000E+00 -0.00000000000E+00 -0.59801713360E+03  0.59801713360E+03  0.00000000000E+00 0.  1.
          6    2    1    2  501    0  0.16753987630E+03  0.50605481605E+02 -0.72933595423E+02  0.25675853514E+03  0.17313321780E+03 0.  0.
         24    2    3    3    0    0  0.87954810502E+02  0.77261168950E+02 -0.94726989379E+02  0.16991758636E+03  0.78698454356E+02 0.  0.
         -6    2    1    2    0  503 -0.16753987630E+03 -0.50605481605E+02 -0.39988950026E+03  0.46645263638E+03  0.16442604614E+03 0.  0.
        -24    2    5    5    0    0 -0.12164585369E+03 -0.87488761596E+02 -0.34518880461E+03  0.38594863798E+03  0.85726560659E+02 0.  0.
          5    1    3    3  501    0  0.79585065793E+02 -0.26655687346E+02  0.21793393956E+02  0.86840948782E+02  0.47000000000E+01 0. -1.
        -11    1    4    4    0    0  0.92585705598E+02  0.50384467930E+02 -0.48017865207E+02  0.11582928330E+03  0.00000000000E+00 0.  1.
         12    1    4    4    0    0 -0.46308950952E+01  0.26876701020E+02 -0.46709124171E+02  0.54088303060E+02  0.00000000000E+00 0. -1.
         -5    1    5    5    0  503 -0.45894022610E+02  0.36883279991E+02 -0.54700695644E+02  0.80503998399E+02  0.47000000000E+01 0.  1.
         13    1    6    6    0    0 -0.11110170012E+03 -0.88534664802E+02 -0.23043700631E+03  0.27070867832E+03  0.00000000000E+00 0. -1.
        -14    1    6    6    0    0 -0.10544153567E+02  0.10459032060E+01 -0.11475179831E+03  0.11523995966E+03  0.00000000000E+00 0.  1.
</event>
<event>
12    1  0.1683022E-002  0.1913219E+03  0.7818608E-02  0.1157321E+00
         21   -1    0    0  501  502  0.00000000000E+00  0.00000000000E+00  0.31592184729E+03  0.31592184729E+03  0.00000000000E+00 0. -1.
         21   -1    0    0  502  503 -0.00000000000E+00 -0.00000000000E+00 -0.13619260446E+03  0.13619260446E+03  0.00000000000E+00 0.  1.
          6    2    1    2  501    0  0.26226884107E+02 -0.79571513772E+02  0.22993809339E+01  0.19133569174E+03  0.17200169920E+03 0.  0.
         24    2    3    3    0    0 -0.41876051698E+02 -0.43240906332E+01 -0.21063770162E+01  0.89641614932E+02  0.79113088916E+02 0.  0.
         -6    2    1    2    0  503 -0.26226884107E+02  0.79571513772E+02  0.17742986190E+03  0.26077876001E+03  0.17176941091E+03 0.  0.
        -24    2    5    5    0    0 -0.97548133849E+01  0.56087463387E+02  0.19175030318E+02  0.99876580240E+02  0.79791538144E+02 0.  0.
          5    1    3    3  501    0  0.68102935805E+02 -0.75247423139E+02  0.44057579501E+01  0.10169407681E+03  0.47000000000E+01 0. -1.
        -13    1    4    4    0    0  0.22641356560E+01 -0.35453835569E+02 -0.26618345568E+01  0.35625638661E+02  0.00000000000E+00 0.  1.
         14    1    4    4    0    0 -0.44140187354E+02  0.31129744936E+02  0.55545754058E+00  0.54015976271E+02  0.00000000000E+00 0. -1.
         -5    1    5    5    0  503 -0.16472070722E+02  0.23484050386E+02  0.15825483158E+03  0.16090217977E+03  0.47000000000E+01 0.  1.
         13    1    6    6    0    0 -0.95437230697E+01  0.35270413172E+02  0.50458801994E+02  0.62299080202E+02  0.00000000000E+00 0. -1.
        -14    1    6    6    0    0 -0.21109031523E+00  0.20817050215E+02 -0.31283771676E+02  0.37577500037E+02  0.00000000000E+00 0.  1.
</event>
<event>
12    1  0.1683022E-002  0.3211897E+03  0.7818608E-02  0.1075309E+00
         21   -1    0    0  503  502  0.00000000000E+00  0.00000000000E+00  0.54134490880E+03  0.54134490880E+03  0.00000000000E+00 0. -1.
         21   -1    0    0  501  503 -0.00000000000E+00 -0.00000000000E+00 -0.19136032834E+03  0.19136032834E+03  0.00000000000E+00 0. -1.
          6    2    1    2  501    0 -0.36944978391E+02  0.27049599881E+03  0.21156699213E+03  0.38460813281E+03  0.16920344815E+03 0.  0.
         24    2    3    3    0    0 -0.81065615690E+02  0.23490666459E+03  0.15368171542E+03  0.30345379463E+03  0.81935100552E+02 0.  0.
         -6    2    1    2    0  502  0.36944978391E+02 -0.27049599881E+03  0.13841758833E+03  0.34809710433E+03  0.16576835791E+03 0.  0.
        -24    2    5    5    0    0  0.40737502668E+02 -0.24764576974E+03  0.65093235580E+02  0.27105771885E+03  0.79039143677E+02 0.  0.
          5    1    3    3  501    0  0.44120637299E+02  0.35589334213E+02  0.57885276717E+02  0.81154338183E+02  0.47000000000E+01 0. -1.
        -11    1    4    4    0    0 -0.73738957949E+02  0.13932243435E+03  0.57874972714E+02  0.16792166953E+03  0.00000000000E+00 0.  1.
         12    1    4    4    0    0 -0.73266577414E+01  0.95584230242E+02  0.95806742702E+02  0.13553212509E+03  0.00000000000E+00 0. -1.
         -5    1    5    5    0  502 -0.37925242767E+01 -0.22850229061E+02  0.73324352749E+02  0.77039385477E+02  0.47000000000E+01 0.  1.
         11    1    6    6    0    0 -0.22664699066E+02 -0.82930364459E+02  0.12386341182E+02  0.86859400072E+02  0.00000000000E+00 0. -1.
        -12    1    6    6    0    0  0.63402201733E+02 -0.16471540529E+03  0.52706894398E+02  0.18419831878E+03  0.00000000000E+00 0.  1.
</event>
<event>
12    1  0.1683022E-002  0.1921494E+03  0.7818608E-02  0.1156813E+00
         21   -1    0    0  501  502  0.00000000000E+00  0.00000000000E+00  0.12510394308E+04  0.12510394308E+04  0.00000000000E+00 0. -1.
         21   -1    0    0  502  503 -0.00000000000E+00 -0.00000000000E+00 -0.30061503366E+02  0.30061503366E+02  0.00000000000E+00 0. -1.
          6    2    1    2  501    0  0.55829181019E+02  0.62183391310E+02  0.71284618310E+03  0.73828929195E+03  0.17302521851E+03 0.  0.
         24    2    3    3    0    0 -0.31834430330E+02  0.56312446262E+02  0.43663683940E+03  0.44840471441E+03  0.78933743244E+02 0.  0.
         -6    2    1    2    0  503 -0.55829181019E+02 -0.62183391310E+02  0.50813174437E+03  0.54281164225E+03  0.17164771399E+03 0.  0.
        -24    2    5    5    0    0 -0.94123231673E+02 -0.30697678814E+02  0.44370298364E+03  0.46138106067E+03  0.78731284958E+02 0.  0.
          5    1    3    3  501    0  0.87663611349E+02  0.58709450478E+01  0.27620934369E+03  0.28988457754E+03  0.47000000000E+01 0. -1.
        -11    1    4    4    0    0 -0.12540856018E+02 -0.14192884616E+02  0.31730516882E+02  0.36953169621E+02  0.00000000000E+00 0.  1.
         12    1    4    4    0    0 -0.19293574312E+02  0.70505330878E+02  0.40490632252E+03  0.41145154479E+03  0.00000000000E+00 0. -1.
         -5    1    5    5    0  503  0.38294050654E+02 -0.31485712496E+02  0.64428760726E+02  0.81430581574E+02  0.47000000000E+01 0.  1.
         13    1    6    6    0    0 -0.42187503749E+02  0.25331269349E+02  0.20111778695E+03  0.20705029077E+03  0.00000000000E+00 0. -1.
        -14    1    6    6    0    0 -0.51935727923E+02 -0.56028948163E+02  0.24258519669E+03  0.25433076991E+03  0.00000000000E+00 0.  1.
</event>
<event>
12    1  0.1683022E-002  0.1887599E+03  0.7818608E-02  0.1159680E+00
         21   -1    0    0  503  502  0.00000000000E+00  0.00000000000E+00  0.96957474667E+02  0.96957474667E+02  0.00000000000E+00 0.  1.
         21   -1    0    0  501  503 -0.00000000000E+00 -0.00000000000E+00 -0.37381683684E+03  0.37381683684E+03  0.00000000000E+00 0.  1.
          6    2    1    2  501    0 -0.78664583741E+02  0.17557345453E+02 -0.17082534786E+03  0.25427139253E+03  0.17022415948E+03 0.  0.
         24    2    3    3    0    0 -0.11624883600E+03  0.25346877908E+01 -0.10093554655E+03  0.17337064724E+03  0.79681743541E+02 0.  0.
         -6    2    1    2    0  502  0.78664583741E+02 -0.17557345453E+02 -0.10603401431E+03  0.21650291898E+03  0.17068662696E+03 0.  0.
        -24    2    5    5    0    0  0.74042622116E+01 -0.82218920366E+01 -0.11675911937E+03  0.14368601165E+03  0.83009369225E+02 0.  0.
          5    1    3    3  501    0  0.37584252257E+02  0.15022657662E+02 -0.69889801310E+02  0.80900745288E+02  0.47000000000E+01 0. -1.
        -13    1    4    4    0    0 -0.56283134766E+02  0.36481053384E+02 -0.72668432302E+02  0.98890644493E+02  0.00000000000E+00 0.  1.
         14    1    4    4    0    0 -0.59965701233E+02 -0.33946365593E+02 -0.28267114251E+02  0.74480002748E+02  0.00000000000E+00 0. -1.
         -5    1    5    5    0  502  0.71260321530E+02 -0.93354534165E+01  0.10725105059E+02  0.72816907333E+02  0.47000000000E+01 0.  1.
         13    1    6    6    0    0  0.17895129197E+02 -0.28936605428E+02 -0.11552789667E+03  0.12043362359E+03  0.00000000000E+00 0. -1.
        -14    1    6    6    0    0 -0.10490866985E+02  0.20714713391E+02 -0.12312227033E+01  0.23252388056E+02  0.00000000000E+00 0.  1.
</event>
<event>
12    1  0.1683022E-002  0.2403786E+03  0.7818608E-02  0.1119559E+00
         21   -1    0    0  503  502  0.00000000000E+00  0.00000000000E+00  0.14427210784E+03  0.14427210784E+03  0.00000000000E+00 0. -1.
         21   -1    0    0  501  503 -0.00000000000E+00 -0.00000000000E+00 -0.54825876126E+03  0.54825876126E+03  0.00000000000E+00 0. -1.
          6    2    1    2  501    0 -0.54128414105E+02 -0.15942526982E+03 -0.38182474705E+03  0.45113281074E+03  0.17141870841E+03 0.  0.
         24    2    3    3    0    0  0.43828631727E+01 -0.10994776119E+03 -0.19710336851E+03  0.25109363678E+03  0.10995706831E+03 0.  0.
         -6    2    1    2    0  502  0.54128414105E+02  0.15942526982E+03 -0.22161906369E+02  0.24139805836E+03  0.17156797666E+03 0.  0.
        -24    2    5    5    0    0 -0.24291912483E+02  0.78094218876E+02 -0.47877836890E+02  0.12543303539E+03  0.82172714861E+02 0.  0.
          5    1    3    3  501    0 -0.58511277277E+02 -0.49477508633E+02 -0.18472137854E+03  0.20003917396E+03  0.47000000000E+01 0. -1.
        -13    1    4    4    0    0 -0.88412801686E+01 -0.26309314360E+01  0.12327492376E+02  0.15396658843E+02  0.00000000000E+00 0.  1.
         14    1    4    4    0    0  0.13224143341E+02 -0.10731682975E+03 -0.20943086089E+03  0.23569697793E+03  0.00000000000E+00 0. -1.
         -5    1    5    5    0  502  0.78420326588E+02  0.81331050944E+02  0.25715930522E+02  0.11596502297E+03  0.47000000000E+01 0.  1.
         13    1    6    6    0    0  0.21155185344E+02  0.76265467706E+01  0.88803315280E+01  0.24177807399E+02  0.00000000000E+00 0. -1.
        -14    1    6    6    0    0 -0.45447097828E+02  0.70467672106E+02 -0.56758168418E+02  0.10125522799E+03  0.00000000000E+00 0.  1.
</event>
<event>
12    1  0.1683022E-002  0.2051304E+03  0.7818608E-02  0.1145532E+00
         21   -1    0    0  503  502  0.00000000000E+00  0.00000000000E+00  0.31687348353E+02  0.31687348353E+02  0.00000000000E+00 0. -1.
         21   -1    0    0  501  503 -0.00000000000E+00 -0.00000000000E+00 -0.14605174686E+04  0.14605174686E+04  0.00000000000E+00 0.  1.
          6    2    1    2  501    0 -0.21916887514E+02  0.10865300104E+03 -0.94019140191E+03  0.96225550486E+03  0.17230774738E+03 0.  0.
         24    2    3    3    0    0 -0.70454755272E+02  0.31912253309E+02 -0.59872320709E+03  0.60888928542E+03  0.79337372869E+02 0.  0.
         -6    2    1    2    0  502  0.21916887514E+02 -0.10865300104E+03 -0.48863871830E+03  0.52994931206E+03  0.17260548004E+03 0.  0.
        -24    2    5    5    0    0  0.13318272737E+02 -0.92662693121E+02 -0.49512535708E+03  0.51010510368E+03  0.79336917565E+02 0.  0.
          5    1    3    3  501    0  0.48537867758E+02  0.76740747730E+02 -0.34146819481E+03  0.35336621944E+03  0.47000000000E+01 0. -1.
        -11    1    4    4    0    0 -0.74862327183E+02  0.51366062400E+02 -0.48274980740E+03  0.49121300568E+03  0.00000000000E+00 0.  1.
         12    1    4    4    0    0  0.44075719111E+01 -0.19453809091E+02 -0.11597339969E+03  0.11767627974E+03  0.00000000000E+00 0. -1.
         -5    1    5    5    0  502  0.85986147765E+01 -0.15990307918E+02  0.64866387863E+01  0.19844208377E+02  0.47000000000E+01 0.  1.
         11    1    6    6    0    0  0.26288812775E+02 -0.64077507912E+02 -0.17144939362E+03  0.18491058182E+03  0.00000000000E+00 0. -1.
        -12    1    6    6    0    0 -0.12970540038E+02 -0.28585185209E+02 -0.32367596346E+03  0.32519452186E+03  0.00000000000E+00 0.  1.
</event>
<event>
12    1  0.1683022E-002  0.2073862E+03  0.7818608E-02  0.1143989E+00
         21   -1    0    0  503  502  0.00000000000E+00  0.00000000000E+00  0.92437517301E+02  0.92437517301E+02  0.00000000000E+00 0. -1.
         21   -1    0    0  501  503 -0.00000000000E+00 -0.00000000000E+00 -0.11831124275E+04  0.11831124275E+04  0.00000000000E+00 0. -1.
          6    2    1    2  501    0 -0.61626449382E+02 -0.94548587135E+02 -0.10425497736E+04  0.10626530661E+04  0.17200073806E+03 0.  0.
         24    2    3    3    0    0 -0.32183074756E+02  0.11807076820E+02 -0.32254435053E+03  0.33422438819E+03  0.80597309139E+02 0.  0.
         -6    2    1    2    0  502  0.61626449382E+02  0.94548587135E+02 -0.48125136544E+02  0.21289687863E+03  0.17398792364E+03 0.  0.
        -24    2    5    5    0    0  0.25793154984E+02  0.53767507615E+01 -0.73211958435E+02  0.11346308145E+03  0.82581376238E+02 0.  0.
          5    1    3    3  501    0 -0.29443374626E+02 -0.10635566396E+03 -0.72000542311E+03  0.72842867796E+03  0.47000000000E+01 0. -1.
        -13    1    4    4    0    0 -0.46699539586E+02  0.22317370139E+02 -0.11745385917E+03  0.12835233166E+03  0.00000000000E+00 0.  1.
         14    1    4    4    0    0  0.14516464830E+02 -0.10510293319E+02 -0.20509049136E+03  0.20587205654E+03  0.00000000000E+00 0. -1.
         -5    1    5    5    0  502  0.35833294398E+02  0.89171836374E+02  0.25086821892E+02  0.99433797183E+02  0.47000000000E+01 0.  1.
         11    1    6    6    0    0  0.27870089104E+02 -0.27714801733E+02 -0.77190428360E+01  0.40055408176E+02  0.00000000000E+00 0. -1.
        -12    1    6    6    0    0 -0.20769341207E+01  0.33091552495E+02 -0.65492915599E+02  0.73407673274E+02  0.00000000000E+00 0.  1.
</event>
<event>
12    1  0.1683022E-002  0.1888558E+03  0.7818608E-02  0.1159797E+00
         21   -1    0    0  501  502  0.00000000000E+00  0.00000000000E+00  0.69923384691E+03  0.69923384691E+03  0.00000000000E+00 0.  1.
         21   -1    0    0  502  503 -0.00000000000E+00 -0.00000000000E+00 -0.50672177201E+02  0.50672177201E+02  0.00000000000E+00 0.  1.
          6    2    1    2  501    0 -0.14043126951E+02  0.73338438442E+02  0.31609504337E+03  0.36754417858E+03  0.17203752729E+03 0.  0.
         24    2    3    3    0    0 -0.13730626823E+02  0.96951478925E+02  0.31736998710E+03  0.34343217288E+03  0.87371787651E+02 0.  0.
         -6    2    1    2    0  503  0.14043126951E+02 -0.73338438442E+02  0.33246662633E+03  0.38236184553E+03  0.17346696321E+03 0.  0.
        -24    2    5    5    0    0 -0.28499647039E+01 -0.68296151011E+02  0.34477913711E+03  0.36035073175E+03  0.79419833444E+02 0.  0.
          5    1    3    3  501    0 -0.31250012805E+00 -0.23613040483E+02 -0.12749437322E+01  0.24112005696E+02  0.47000000000E+01 0. -1.
        -11    1    4    4    0    0  0.14610321234E+02  0.68915931553E+02  0.28022361045E+03  0.28894314140E+03  0.00000000000E+00 0.  1.
         12    1    4    4    0    0 -0.28340948057E+02  0.28035547372E+02  0.37146376650E+02  0.54489031478E+02  0.00000000000E+00 0. -1.
         -5    1    5    5    0  503  0.16893091655E+02 -0.50422874308E+01 -0.12312510777E+02  0.22011113780E+02  0.47000000000E+01 0.  1.
         11    1    6    6    0    0 -0.33973480191E+02 -0.57387795684E+02  0.17248805981E+03  0.18493157445E+03  0.00000000000E+00 0. -1.
        -12    1    6    6    0    0  0.31123515487E+02 -0.10908355328E+02  0.17229107730E+03  0.17541915730E+03  0.00000000000E+00 0.  1.
</event>
<event>
12    1  0.1683022E-002  0.2006592E+03  0.7818608E-02  0.1150403E+00
         21   -1    0    0  503  502  0.00000000000E+00  0.00000000000E+00  0.84666753131E+02  0.84666753131E+02  0.00000000000E+00 0. -1.
         21   -1    0    0  501  503 -0.00000000000E+00 -0.00000000000E+00 -0.48822595848E+03  0.48822595848E+03  0.00000000000E+00 0. -1.
          6    2    1    2  501    0  0.84921739567E+02 -0.34013012183E+02 -0.26526099309E+03  0.32919100662E+03  0.17214742965E+03 0.  0.
         24    2    3    3    0    0  0.33211269491E+02 -0.13136105998E+02 -0.25843406629E+03  0.27281268759E+03  0.79768729379E+02 0.  0.
         -6    2    1    2    0  502 -0.84921739567E+02  0.34013012183E+02 -0.13829821226E+03  0.24370170499E+03  0.17859322119E+03 0.  0.
        -24    2    5    5    0    0 -0.56549630690E+02  0.64272550165E+02 -0.15883073223E+03  0.19717976848E+03  0.79522563857E+02 0.  0.
          5    1    3    3  501    0  0.51710470076E+02 -0.20876906185E+02 -0.68269267984E+01  0.56378319032E+02  0.47000000000E+01 0. -1.
        -11    1    4    4    0    0 -0.26465100508E+02 -0.60904323874E+01 -0.73176712482E+02  0.78053354580E+02  0.00000000000E+00 0.  1.
         12    1    4    4    0    0  0.59676369999E+02 -0.70456736108E+01 -0.18525735381E+03  0.19475933301E+03  0.00000000000E+00 0. -1.
         -5    1    5    5    0  502 -0.28372108878E+02 -0.30259537982E+02  0.20532519965E+02  0.46521936515E+02  0.47000000000E+01 0.  1.
         13    1    6    6    0    0 -0.21789900385E+02  0.42958418508E+02 -0.14704939130E+03  0.15473767789E+03  0.00000000000E+00 0. -1.
        -14    1    6    6    0    0 -0.34759730305E+02  0.21314131656E+02 -0.11781340930E+02  0.42442090585E+02  0.00000000000E+00 0.  1.
</event>
<event>
12    1  0.1683022E-002  0.1794329E+03  0.7818608E-02  0.1168596E+00
         21   -1    0    0  501  502  0.00000000000E+00  0.00000000000E+00  0.37107500315E+03  0.37107500315E+03  0.00000000000E+00 0.  1.
         21   -1    0    0  502  503 -0.00000000000E+00 -0.00000000000E+00 -0.86863759179E+02  0.86863759179E+02  0.00000000000E+00 0.  1.
          6    2    1    2  501    0  0.45976343614E+02  0.22884129419E+02  0.16123165758E+03  0.24122981812E+03  0.17192635107E+03 0.  0.
         24    2    3    3    0    0  0.95301994426E+02  0.10795856520E+02  0.86700023914E+02  0.15091813235E+03  0.77848364571E+02 0.  0.
         -6    2    1    2    0  503 -0.45976343614E+02 -0.22884129419E+02  0.12297958639E+03  0.21670894421E+03  0.17088382100E+03 0.  0.
        -24    2    5    5    0    0 -0.94137142632E+01 -0.76385954848E+02  0.79465218422E+02  0.13851136490E+03  0.83350135897E+02 0.  0.
          5    1    3    3  501    0 -0.49325650812E+02  0.12088272899E+02  0.74531633661E+02  0.90311685766E+02  0.47000000000E+01 0. -1.
        -11    1    4    4    0    0  0.37299706767E+02 -0.31843836933E+02  0.50290706739E+02  0.70245663637E+02  0.00000000000E+00 0.  1.
         12    1    4    4    0    0  0.58002287659E+02  0.42639693453E+02  0.36409317175E+02  0.80672468715E+02  0.00000000000E+00 0. -1.
         -5    1    5    5    0  503 -0.36562629351E+02  0.53501825428E+02  0.43514367970E+02  0.78197579304E+02  0.47000000000E+01 0.  1.
         11    1    6    6    0    0  0.28785381074E+01 -0.41217615451E+02 -0.92066054328E+01  0.42331305067E+02  0.00000000000E+00 0. -1.
        -12    1    6    6    0    0 -0.12292252371E+02 -0.35168339397E+02  0.88671823854E+02  0.96180059836E+02  0.00000000000E+00 0.  1.
</event>
<event>
12    1  0.1683022E-002  0.2622825E+03  0.7818608E-02  0.1107067E+00
         21   -1    0    0  503  502  0.00000000000E+00  0.00000000000E+00  0.69007238431E+02  0.69007238431E+02  0.00000000000E+00 0. -1.
         21   -1    0    0  501  503 -0.00000000000E+00 -0.00000000000E+00 -0.11136903627E+04  0.11136903627E+04  0.00000000000E+00 0.  1.
          6    2    1    2  501    0 -0.17875028133E+03  0.60564326190E+02 -0.73108083637E+03  0.77387186887E+03  0.16964309428E+03 0.  0.
         24    2    3    3    0    0 -0.22428560557E+02  0.52240075312E+02 -0.29359039140E+03  0.30919375126E+03  0.78570936753E+02 0.  0.
         -6    2    1    2    0  502  0.17875028133E+03 -0.60564326190E+02 -0.31360228795E+03  0.40882573231E+03  0.18213287378E+03 0.  0.
        -24    2    5    5    0    0  0.19796895719E+03 -0.65074314868E+02 -0.22429937213E+03  0.31724626805E+03  0.83118059351E+02 0.  0.
          5    1    3    3  501    0 -0.15632172077E+03  0.83242508783E+01 -0.43749044497E+03  0.46467811760E+03  0.47000000000E+01 0. -1.
        -11    1    4    4    0    0 -0.27464401048E+02  0.67706254797E+01 -0.22484909436E+03  0.22662138012E+03  0.00000000000E+00 0.  1.
         12    1    4    4    0    0  0.50358404906E+01  0.45469449832E+02 -0.68741297041E+02  0.82572371144E+02  0.00000000000E+00 0. -1.
         -5    1    5    5    0  502 -0.19218675861E+02  0.45099886778E+01 -0.89302915820E+02  0.91579464258E+02  0.47000000000E+01 0.  1.
         13    1    6    6    0    0  0.15886229322E+03 -0.20063181621E+02 -0.18993775476E+03  0.24842727335E+03  0.00000000000E+00 0. -1.
        -14    1    6    6    0    0  0.39106663976E+02 -0.45011133247E+02 -0.34361617367E+02  0.68818994701E+02  0.00000000000E+00 0.  1.
</event>
<event>
12    1  0.1683022E-002  0.1874960E+03  0.7818608E-02  0.1160812E+00
         21   -1    0    0  501  502  0.00000000000E+00  0.00000000000E+00  0.10253758882E+04  0.10253758882E+04  0.00000000000E+00 0.  1.
         21   -1    0    0  502  503 -0.00000000000E+00 -0.00000000000E+00 -0.39326021381E+02  0.39326021381E+02  0.00000000000E+00 0.  1.
          6    2    1    2  501    0  0.66722444270E+02  0.30470018640E+02  0.68435202513E+03  0.70948882802E+03  0.17221032541E+03 0.  0.
         24    2    3    3    0    0  0.94632993932E+02  0.64477967944E+02  0.56775230606E+03  0.58477666388E+03  0.80673748428E+02 0.  0.
         -6    2    1    2    0  503 -0.66722444270E+02 -0.30470018640E+02  0.30169784166E+03  0.35521308153E+03  0.17255271375E+03 0.  0.
        -24    2    5    5    0    0 -0.24861920838E+02 -0.79440517572E+02  0.23827668217E+03  0.26468824152E+03  0.79719363987E+02 0.  0.
          5    1    3    3  501    0 -0.27910549662E+02 -0.34007949303E+02  0.11659971906E+03  0.12471216414E+03  0.47000000000E+01 0. -1.
        -13    1    4    4    0    0 -0.34352596890E+01  0.37214502934E+02  0.18381553680E+03  0.18757630929E+03  0.00000000000E+00 0.  1.
         14    1    4    4    0    0  0.98068253621E+02  0.27263465010E+02  0.38393676926E+03  0.39720035459E+03  0.00000000000E+00 0. -1.
         -5    1    5    5    0  503 -0.41860523432E+02  0.48970498932E+02  0.63421159487E+02  0.90524840008E+02  0.47000000000E+01 0.  1.
         11    1    6    6    0    0 -0.46489238028E+02 -0.30753988057E+02  0.16450154721E+03  0.17368884843E+03  0.00000000000E+00 0. -1.
        -12    1    6    6    0    0  0.21627317190E+02 -0.48686529516E+02  0.73775134958E+02  0.90999393092E+02  0.00000000000E+00 0.  1.
</event>
<event>
12    1  0.1683022E-002  0.1712771E+03  0.7818608E-02  0.1178717E+00
         21   -1    0    0  503  502  0.00000000000E+00  0.00000000000E+00  0.13068563392E+03  0.13068563392E+03  0.00000000000E+00 0. -1.
         21   -1    0    0  501  503 -0.00000000000E+00 -0.00000000000E+00 -0.25555955110E+03  0.25555955110E+03  0.00000000000E+00 0. -1.
          6    2    1    2  501    0 -0.32169290776E+01  0.69215468643E+01 -0.14181256659E+03  0.22236604756E+03  0.17110698004E+03 0.  0.
         24    2    3    3    0    0 -0.24421871992E+02  0.18026194840E+02 -0.13223057109E+02  0.91483219193E+02  0.85281642941E+02 0.  0.
         -6    2    1    2    0  502  0.32169290776E+01 -0.69215468643E+01  0.16938649410E+02  0.16387913746E+03  0.16282259490E+03 0.  0.
        -24    2    5    5    0    0  0.32489112286E+02 -0.17162521351E+02 -0.39700464557E+02  0.99134890621E+02  0.83075297749E+02 0.  0.
          5    1    3    3  501    0  0.21204942915E+02 -0.11104647975E+02 -0.12858950949E+03  0.13088282836E+03  0.47000000000E+01 0. -1.
        -13    1    4    4    0    0  0.82532066660E+01 -0.23670758842E+02 -0.26901720772E+02  0.36771222782E+02  0.00000000000E+00 0.  1.
         14    1    4    4    0    0 -0.32675078658E+02  0.41696953682E+02  0.13678663663E+02  0.54711996411E+02  0.00000000000E+00 0. -1.
         -5    1    5    5    0  502 -0.29272183209E+02  0.10240974487E+02  0.56639113967E+02  0.64744246843E+02  0.47000000000E+01 0.  1.
         11    1    6    6    0    0  0.58633041836E+02 -0.21499466102E+02 -0.18313541353E+02  0.65080307579E+02  0.00000000000E+00 0. -1.
        -12    1    6    6    0    0 -0.26143929550E+02  0.43369447504E+01 -0.21386923204E+02  0.34054583043E+02  0.00000000000E+00 0.  1.
</event>
<event>
12    1  0.1683022E-002  0.1893643E+03  0.7818608E-02  0.1159114E+00
         21   -1    0    0  503  502  0.00000000000E+00  0.00000000000E+00  0.80568141555E+03  0.80568141555E+03  0.00000000000E+00 0.  1.
         21   -1    0    0  501  503 -0.00000000000E+00 -0.00000000000E+00 -0.44885402729E+02  0.44885402729E+02  0.00000000000E+00 0.  1.
          6    2    1    2  501    0 -0.76199205793E+02 -0.28892008958E+00  0.33772674214E+03  0.38719268764E+03  0.17335634562E+03 0.  0.
         24    2    3    3    0    0 -0.68395344654E+02 -0.16649913009E+02  0.88376084385E+02  0.13713984750E+03  0.77729419842E+02 0.  0.
         -6    2    1    2    0  502  0.76199205793E+02  0.28892008958E+00  0.42306927068E+03  0.46337413064E+03  0.17297853829E+03 0.  0.
        -24    2    5    5    0    0  0.37870025025E+02  0.45563013146E+02  0.12462324831E+03  0.15905359589E+03  0.79100982188E+02 0.  0.
          5    1    3    3  501    0 -0.78038611396E+01  0.16360992919E+02  0.24935065775E+03  0.25005284013E+03  0.47000000000E+01 0. -1.
        -13    1    4    4    0    0 -0.82287675873E+02 -0.25658557012E+02  0.83181893654E+02  0.11978668783E+03  0.00000000000E+00 0.  1.
         14    1    4    4    0    0  0.13892331219E+02  0.90086440037E+01  0.51941907313E+01  0.17353159679E+02  0.00000000000E+00 0. -1.
         -5    1    5    5    0  502  0.38329180769E+02 -0.45274093056E+02  0.29844602237E+03  0.30432053475E+03  0.47000000000E+01 0.  1.
         13    1    6    6    0    0  0.14074697445E+02  0.43925686421E+01 -0.89639596531E+01  0.17255269922E+02  0.00000000000E+00 0. -1.
        -14    1    6    6    0    0  0.23795327580E+02  0.41170444504E+02  0.13358720796E+03  0.14179832596E+03  0.00000000000E+00 0.  1.
</event>
<event>
12    1  0.1683022E-002  0.2171475E+03  0.7818608E-02  0.1136433E+00
         21   -1    0    0  503  502  0.00000000000E+00  0.00000000000E+00  0.33109987439E+03  0.33109987439E+03  0.00000000000E+00 0. -1.
         21   -1    0    0  501  503 -0.00000000000E+00 -0.00000000000E+00 -0.14966910440E+03  0.14966910440E+03  0.00000000000E+00 0. -1.
          6    2    1    2  501    0  0.12481339313E+03 -0.32323437886E+02  0.32517056980E+02  0.21746622906E+03  0.17207851128E+03 0.  0.
         24    2    3    3    0    0  0.15916999469E+03 -0.26248882335E+02  0.28039912925E+02  0.18197804631E+03  0.79408321908E+02 0.  0.
         -6    2    1    2    0  502 -0.12481339313E+03  0.32323437886E+02  0.14891371301E+03  0.26330274973E+03  0.17472794955E+03 0.  0.
        -24    2    5    5    0    0 -0.32995271188E+02  0.63505944534E+02  0.11803384269E+03  0.16142746996E+03  0.83696756957E+02 0.  0.
          5    1    3    3  501    0 -0.34356601561E+02 -0.60745555506E+01  0.44771440549E+01  0.35488182749E+02  0.47000000000E+01 0. -1.
        -11    1    4    4    0    0  0.12356999712E+03 -0.43641316184E+02  0.45439864553E+02  0.13870432566E+03  0.00000000000E+00 0.  1.
         12    1    4    4    0    0  0.35599997576E+02  0.17392433849E+02 -0.17399951627E+02  0.43273720654E+02  0.00000000000E+00 0. -1.
         -5    1    5    5    0  502 -0.91818121943E+02 -0.31182506648E+02  0.30879870321E+02  0.10187527977E+03  0.47000000000E+01 0.  1.
         11    1    6    6    0    0 -0.46166809938E+02  0.95698165880E+01  0.83936838344E+02  0.96272262675E+02  0.00000000000E+00 0. -1.
        -12    1    6    6    0    0  0.13171538750E+02  0.53936127946E+02  0.34097004348E+02  0.65155207285E+02  0.00000000000E+00 0.  1.
</event>
<event>
12    1  0.1683022E-002  0.3385660E+03  0.7818608E-02  0.1067476E+00
         21   -1    0    0  501  502  0.00000000000E+00  0.00000000000E+00  0.25830200692E+03  0.25830200692E+03  0.00000000000E+00 0. -1.
         21   -1    0    0  502  503 -0.00000000000E+00 -0.00000000000E+00 -0.65559633894E+03  0.65559633894E+03  0.00000000000E+00 0.  1.
          6    2    1    2  501    0  0.28643430706E+03  0.55402707056E+02  0.61722227014E+02  0.34352729670E+03  0.17054998699E+03 0.  0.
         24    2    3    3    0    0  0.89075982500E+02  0.41633034551E+02  0.90801448717E+02  0.14350828938E+03  0.51786927004E+02 0.  0.
         -6    2    1    2    0  503 -0.28643430706E+03 -0.55402707056E+02 -0.45901655904E+03  0.57037104916E+03  0.17179307331E+03 0.  0.
        -24    2    5    5    0    0 -0.46164827740E+02 -0.49101084193E+02 -0.12687809366E+03  0.16036228910E+03  0.71245388093E+02 0.  0.
          5    1    3    3  501    0  0.19735832456E+03  0.13769672506E+02 -0.29079221704E+02  0.20001900732E+03  0.47000000000E+01 0. -1.
        -11    1    4    4    0    0  0.72839055710E+02  0.54037787754E+02  0.73873137604E+02  0.11697371928E+03  0.00000000000E+00 0.  1.
         12    1    4    4    0    0  0.16236926790E+02 -0.12404753203E+02  0.16928311114E+02  0.26534570107E+02  0.00000000000E+00 0. -1.
         -5    1    5    5    0  503 -0.24026947932E+03 -0.63016228631E+01 -0.33213846538E+03  0.41000876006E+03  0.47000000000E+01 0.  1.
         11    1    6    6    0    0 -0.26423990332E+01 -0.45691108710E+02 -0.31770103668E+02  0.55713545704E+02  0.00000000000E+00 0. -1.
        -12    1    6    6    0    0 -0.43522428707E+02 -0.34099754825E+01 -0.95107989996E+02  0.10464874340E+03  0.00000000000E+00 0.  1.
</event>
<event>
12    1  0.1683022E-002  0.2071479E+03  0.7818608E-02  0.1144217E+00
         21   -1    0    0  501  502  0.00000000000E+00  0.00000000000E+00  0.35992038708E+03  0.35992038708E+03  0.00000000000E+00 0.  1.
         21   -1    0    0  502  503 -0.00000000000E+00 -0.00000000000E+00 -0.12942922594E+03  0.12942922594E+03  0.00000000000E+00 0. -1.
          6    2    1    2  501    0 -0.11073245173E+03  0.23640914734E+02  0.18789614867E+03  0.27966986676E+03  0.17346383765E+03 0.  0.
         24    2    3    3    0    0 -0.81860086508E+02  0.82574720763E+02  0.13795637149E+03  0.19706915059E+03  0.79275667186E+02 0.  0.
         -6    2    1    2    0  503  0.11073245173E+03 -0.23640914734E+02  0.42595012473E+02  0.20967974626E+03  0.17126205707E+03 0.  0.
        -24    2    5    5    0    0  0.92111121866E+00  0.15555745224E+02  0.11817500854E+01  0.85857062729E+02  0.84422799242E+02 0.  0.
          5    1    3    3  501    0 -0.28872365217E+02 -0.58933806029E+02  0.49939777184E+02  0.82600716168E+02  0.47000000000E+01 0. -1.
        -13    1    4    4    0    0 -0.89619204015E+02  0.57112426644E+02  0.13257827111E+03  0.16991300414E+03  0.00000000000E+00 0.  1.
         14    1    4    4    0    0  0.77591175065E+01  0.25462294119E+02  0.53781003775E+01  0.27156146449E+02  0.00000000000E+00 0. -1.
         -5    1    5    5    0  503  0.10981134051E+03 -0.39196659958E+02  0.41413262388E+02  0.12382268353E+03  0.47000000000E+01 0.  1.
         11    1    6    6    0    0  0.35343729985E+02 -0.44944493780E+01 -0.19876114049E+02  0.40797539560E+02  0.00000000000E+00 0. -1.
        -12    1    6    6    0    0 -0.34422618767E+02  0.20050194602E+02  0.21057864134E+02  0.45059523169E+02  0.00000000000E+00 0.  1.
</event>
<event>
12    1  0.1683022E-002  0.1939578E+03  0.7818608E-02  0.1155000E+00
         21   -1    0    0  501  502  0.00000000000E+00  0.00000000000E+00  0.23956827728E+03  0.23956827728E+03  0.00000000000E+00 0.  1.
         21   -1    0    0  502  503 -0.00000000000E+00 -0.00000000000E+00 -0.15805213639E+03  0.15805213639E+03  0.00000000000E+00 0. -1.
          6    2    1    2  501    0 -0.72532036564E+01  0.87363212299E+02  0.58428249908E+02  0.20256723352E+03  0.17301642662E+03 0.  0.
         24    2    3    3    0    0 -0.25122392729E+02  0.71697694010E+02  0.10385887803E+03  0.15108181468E+03  0.79166623252E+02 0.  0.
         -6    2    1    2    0  503  0.72532036564E+01 -0.87363212299E+02  0.23087890982E+02  0.19505318014E+03  0.17270712941E+03 0.  0.
        -24    2    5    5    0    0  0.60037480099E+02 -0.97529096515E+02  0.17558482787E+02  0.14081122778E+03  0.80019234356E+02 0.  0.
          5    1    3    3  501    0  0.17869189073E+02  0.15665518289E+02 -0.45430628125E+02  0.51485418841E+02  0.47000000000E+01 0. -1.
        -11    1    4    4    0    0 -0.19123693534E+02 -0.10630772564E+02  0.43922117478E+02  0.49070167958E+02  0.00000000000E+00 0.  1.
         12    1    4    4    0    0 -0.59986991950E+01  0.82328466574E+02  0.59936760555E+02  0.10201164672E+03  0.00000000000E+00 0. -1.
         -5    1    5    5    0  503 -0.52784276442E+02  0.10165884216E+02  0.55294081947E+01  0.54241952365E+02  0.47000000000E+01 0.  1.
         11    1    6    6    0    0  0.22722137077E+02 -0.99593398587E+02  0.96156644965E+01  0.10260410108E+03  0.00000000000E+00 0. -1.
        -12    1    6    6    0    0  0.37315343021E+02  0.20643020720E+01  0.79428182904E+01  0.38207126694E+02  0.00000000000E+00 0.  1.
</event>
<event>
12    1  0.1683022E-002  0.3452303E+03  0.7818608E-02  0.1064659E+00
         21   -1    0    0  501  502  0.00000000000E+00  0.00000000000E+00  0.23721936885E+03  0.23721936885E+03  0.00000000000E+00 0. -1.
         21   -1    0    0  502  503 -0.00000000000E+00 -0.00000000000E+00 -0.59435898762E+03  0.59435898762E+03  0.00000000000E+00 0.  1.
          6    2    1    2  501    0 -0.24634240867E+03  0.16929405249E+03 -0.14042541880E+02  0.34485507370E+03  0.17141403195E+03 0.  0.
         24    2    3    3    0    0 -0.17270974585E+03  0.13758468599E+03  0.52894632391E+02  0.24030877650E+03  0.78690938457E+02 0.  0.
         -6    2    1    2    0  503  0.24634240867E+03 -0.16929405249E+03 -0.34309707689E+03  0.48672328278E+03  0.17273937394E+03 0.  0.
        -24    2    5    5    0    0  0.13190710426E+03 -0.13051277278E+03 -0.12504999760E+03  0.23739208670E+03  0.79274415254E+02 0.  0.
          5    1    3    3  501    0 -0.73632662824E+02  0.31709366500E+02 -0.66937174271E+02  0.10454629720E+03  0.47000000000E+01 0. -1.
        -11    1    4    4    0    0 -0.30594243522E+01  0.13781915262E+02  0.24638750981E+02  0.28396642681E+02  0.00000000000E+00 0.  1.
         12    1    4    4    0    0 -0.16965032150E+03  0.12380277073E+03  0.28255881410E+02  0.21191213382E+03  0.00000000000E+00 0. -1.
         -5    1    5    5    0  503  0.11443530441E+03 -0.38781279709E+02 -0.21804707929E+03  0.24933119608E+03  0.47000000000E+01 0.  1.
         13    1    6    6    0    0  0.41199022188E+02  0.72260019286E+00 -0.16265625172E+02  0.44299572713E+02  0.00000000000E+00 0. -1.
        -14    1    6    6    0    0  0.90708082076E+02 -0.13123537297E+03 -0.10878437243E+03  0.19309251399E+03  0.00000000000E+00 0.  1.
</event>
<event>
12    1  0.1683022E-002  0.2748251E+03  0.7818608E-02  0.1098606E+00
         21   -1    0    0  503  502  0.00000000000E+00  0.00000000000E+00  0.13520307311E+03  0.13520307311E+03  0.00000000000E+00 0.  1.
         21   -1    0    0  501  503 -0.00000000000E+00 -0.00000000000E+00 -0.89018592732E+03  0.89018592732E+03  0.00000000000E+00 0.  1.
          6    2    1    2  501    0 -0.14483220875E+03  0.15717061956E+03 -0.69094924466E+03  0.74359915496E+03  0.17277115564E+03 0.  0.
         24    2    3    3    0    0 -0.93113009937E+02  0.36879675593E+02 -0.47246798925E+03  0.48884253445E+03  0.75570361501E+02 0.  0.
         -6    2    1    2    0  502  0.14483220875E+03 -0.15717061956E+03 -0.64033609554E+02  0.28178984547E+03  0.17212275130E+03 0.  0.
        -24    2    5    5    0    0  0.98189350239E+02 -0.26052657040E+02 -0.22350583394E+01  0.12944606556E+03  0.80196003417E+02 0.  0.
          5    1    3    3  501    0 -0.51719198812E+02  0.12029094396E+03 -0.21848125541E+03  0.25475662050E+03  0.47000000000E+01 0. -1.
        -11    1    4    4    0    0 -0.93206042761E+02  0.47141480040E+02 -0.46378098250E+03  0.47539718687E+03  0.00000000000E+00 0.  1.
         12    1    4    4    0    0  0.93032823766E-01 -0.10261804447E+02 -0.86870067429E+01  0.13445347589E+02  0.00000000000E+00 0. -1.
         -5    1    5    5    0  502  0.46642858510E+02 -0.13111796252E+03 -0.61798551214E+02  0.15234377991E+03  0.47000000000E+01 0.  1.
         13    1    6    6    0    0 -0.65479831652E+01  0.14523015508E+02  0.55105182019E+01  0.16857042262E+02  0.00000000000E+00 0. -1.
        -14    1    6    6    0    0  0.10473733340E+03 -0.40575672548E+02 -0.77455765413E+01  0.11258902330E+03  0.00000000000E+00 0.  1.
</event>
<event>
12    1  0.1683022E-002  0.1874840E+03  0.7818608E-02  0.1161146E+00
         21   -1    0    0  503  502  0.00000000000E+00  0.00000000000E+00  0.45087234198E+03  0.45087234198E+03  0.00000000000E+00 0. -1.
         21   -1    0    0  501  503 -0.00000000000E+00 -0.00000000000E+00 -0.78258872286E+02  0.78258872286E+02  0.00000000000E+00 0. -1.
          6    2    1    2  501    0 -0.34958967979E+02  0.58393849665E+02  0.15709181366E+03  0.24459784328E+03  0.17469486511E+03 0.  0.
         24    2    3    3    0    0 -0.76751862094E+02  0.75809435151E+02  0.83368622217E+02  0.15795404620E+03  0.79757349172E+02 0.  0.
         -6    2    1    2    0  502  0.34958967979E+02 -0.58393849665E+02  0.21552165604E+03  0.28453337099E+03  0.17285162384E+03 0.  0.
        -24    2    5    5    0    0 -0.11130663715E+02  0.38923140209E+01  0.33983185251E+02  0.87094452049E+02  0.79319259419E+02 0.  0.
          5    1    3    3  501    0  0.41792894115E+02 -0.17415585486E+02  0.73723191441E+02  0.86643797081E+02  0.47000000000E+01 0. -1.
        -11    1    4    4    0    0  0.12555535394E+02 -0.30137435431E+01  0.17778048631E+02  0.21972326511E+02  0.00000000000E+00 0.  1.
         12    1    4    4    0    0 -0.89307397488E+02  0.78823178694E+02  0.65590573586E+02  0.13598171969E+03  0.00000000000E+00 0. -1.
         -5    1    5    5    0  502  0.46089631694E+02 -0.62286163686E+02  0.18153847079E+03  0.19743891894E+03  0.47000000000E+01 0.  1.
         11    1    6    6    0    0  0.54715451600E+00  0.99976942579E+01  0.58451752187E+02  0.59303124726E+02  0.00000000000E+00 0. -1.
        -12    1    6    6    0    0 -0.11677818231E+02 -0.61053802370E+01 -0.24468566936E+02  0.27791327323E+02  0.00000000000E+00 0.  1.
</event>
<event>
12    1  0.1683022E-002  0.1842019E+03  0.7818608E-02  0.1163987E+00
         21   -1    0    0  503  502  0.00000000000E+00  0.00000000000E+00  0.71444876488E+02  0.71444876488E+02  0.00000000000E+00 0.  1.
         21   -1    0    0  501  503 -0.00000000000E+00 -0.00000000000E+00 -0.55863415590E+03  0.55863415590E+03  0.00000000000E+00 0. -1.
          6    2    1    2  501    0 -0.30626444563E+02  0.57980471046E+02 -0.36660355795E+03  0.40991710823E+03  0.17127216000E+03 0.  0.
         24    2    3    3    0    0  0.77202303168E+01  0.16946701512E+02 -0.33020486642E+03  0.34282618141E+03  0.90264855864E+02 0.  0.
         -6    2    1    2    0  502  0.30626444563E+02 -0.57980471046E+02 -0.12058572147E+03  0.22016192416E+03  0.17213553526E+03 0.  0.
        -24    2    5    5    0    0  0.72509888300E+02 -0.23831919646E+02 -0.30097556643E+02  0.11466052893E+03  0.80097001715E+02 0.  0.
          5    1    3    3  501    0 -0.38346674880E+02  0.41033769535E+02 -0.36398691527E+02  0.67090926819E+02  0.47000000000E+01 0. -1.
        -13    1    4    4    0    0 -0.36469446225E+02  0.17042080211E+02 -0.90027650609E+02  0.98617599241E+02  0.00000000000E+00 0.  1.
         14    1    4    4    0    0  0.44189676542E+02 -0.95378699231E-01 -0.24017721581E+03  0.24420858217E+03  0.00000000000E+00 0. -1.
         -5    1    5    5    0  502 -0.41883443737E+02 -0.34148551401E+02 -0.90488164825E+02  0.10550139523E+03  0.47000000000E+01 0.  1.
         13    1    6    6    0    0  0.47593698610E+01 -0.29371244190E+02 -0.35676103333E+02  0.46455418798E+02  0.00000000000E+00 0. -1.
        -14    1    6    6    0    0  0.67750518439E+02  0.55393245442E+01  0.55785466892E+01  0.68205110134E+02  0.00000000000E+00 0.  1.
</event>
<event>
12    1  0.1683022E-002  0.1970394E+03  0.7818608E-02  0.1152561E+00
         21   -1    0    0  503  502  0.00000000000E+00  0.00000000000E+00  0.24624681387E+03  0.24624681387E+03  0.00000000000E+00 0. -1.
         21   -1    0    0  501  503 -0.00000000000E+00 -0.00000000000E+00 -0.17757616894E+03  0.17757616894E+03  0.00000000000E+00 0.  1.
          6    2    1    2  501    0  0.58880213100E+02 -0.75405344540E+02 -0.38468350897E+02  0.20075935831E+03  0.17225463839E+03 0.  0.
         24    2    3    3    0    0 -0.14418705983E+02 -0.34797363993E+02  0.30302879889E+02  0.92254465300E+02  0.78573953796E+02 0.  0.
         -6    2    1    2    0  502 -0.58880213100E+02  0.75405344540E+02  0.10713899582E+03  0.22306362450E+03  0.17066273955E+03 0.  0.
        -24    2    5    5    0    0 -0.49259205644E+02 -0.18468639206E+02  0.26859851818E+02  0.99080885501E+02  0.79548791677E+02 0.  0.
          5    1    3    3  501    0  0.73298919082E+02 -0.40607980547E+02 -0.68771230786E+02  0.10850489301E+03  0.47000000000E+01 0. -1.
        -13    1    4    4    0    0 -0.34325658013E+02 -0.32599700226E+01 -0.11392479699E+02  0.36313452002E+02  0.00000000000E+00 0.  1.
         14    1    4    4    0    0  0.19906952031E+02 -0.31537393970E+02  0.41695359589E+02  0.55941013298E+02  0.00000000000E+00 0. -1.
         -5    1    5    5    0  502 -0.96210074560E+01  0.93873983745E+02  0.80279144000E+02  0.12398273900E+03  0.47000000000E+01 0.  1.
         11    1    6    6    0    0  0.12556473676E+02 -0.94500358632E+01 -0.16693635988E+02  0.22926964289E+02  0.00000000000E+00 0. -1.
        -12    1    6    6    0    0 -0.61815679320E+02 -0.90186033424E+01  0.43553487806E+02  0.76153921213E+02  0.00000000000E+00 0.  1.
</event>
<event>
12    1  0.1683022E-002  0.2585226E+03  0.7818608E-02  0.1110763E+00
         21   -1    0    0  503  502  0.00000000000E+00  0.00000000000E+00  0.39774634357E+03  0.39774634357E+03  0.00000000000E+00 0. -1.
         21   -1    0    0  501  503 -0.00000000000E+00 -0.00000000000E+00 -0.16905940529E+03  0.16905940529E+03  0.00000000000E+00 0. -1.
          6    2    1    2  501    0 -0.11947371291E+03  0.13583998100E+03  0.42157186170E+02  0.26193732880E+03  0.18468207104E+03 0.  0.
         24    2    3    3    0    0 -0.10681357197E+03  0.13912085633E+02  0.20943711287E+02  0.13744318295E+03  0.82760523274E+02 0.  0.
         -6    2    1    2    0  502  0.11947371291E+03 -0.13583998100E+03  0.18652975211E+03  0.30486842006E+03  0.15945198843E+03 0.  0.
        -24    2    5    5    0    0  0.14107241494E+03 -0.12806774334E+03  0.19091707261E+03  0.28103042121E+03  0.78904980150E+02 0.  0.
          5    1    3    3  501    0 -0.12660140935E+02  0.12192789536E+03  0.21213474883E+02  0.12449414586E+03  0.47000000000E+01 0. -1.
        -13    1    4    4    0    0 -0.44352973803E+02 -0.63618567624E+01 -0.30348189950E+02  0.54117207428E+02  0.00000000000E+00 0.  1.
         14    1    4    4    0    0 -0.62460598168E+02  0.20273942395E+02  0.51291901237E+02  0.83325975519E+02  0.00000000000E+00 0. -1.
         -5    1    5    5    0  502 -0.21598702033E+02 -0.77722376533E+01 -0.43873205045E+01  0.23837998843E+02  0.47000000000E+01 0.  1.
         11    1    6    6    0    0  0.90206904270E+02 -0.59873950830E+02  0.56951231286E+02  0.12233404396E+03  0.00000000000E+00 0. -1.
        -12    1    6    6    0    0  0.50865510668E+02 -0.68193792512E+02  0.13396584132E+03  0.15869637726E+03  0.00000000000E+00 0.  1.
</event>
<event>
12    1  0.1683022E-002  0.1848126E+03  0.7818608E-02  0.1164037E+00
         21   -1    0    0  503  502  0.00000000000E+00  0.00000000000E+00  0.56048080331E+02  0.56048080331E+02  0.00000000000E+00 0.  1.
         21   -1    0    0  501  503 -0.00000000000E+00 -0.00000000000E+00 -0.97527895675E+03  0.97527895675E+03  0.00000000000E+00 0.  1.
          6    2    1    2  501    0  0.12834382559E+02 -0.56238923018E+02 -0.77763554217E+03  0.79850748616E+03  0.17195822507E+03 0.  0.
         24    2    3    3    0    0  0.53891137251E+02 -0.73036205664E+02 -0.68747733153E+03  0.69791723436E+03  0.78897671992E+02 0.  0.
         -6    2    1    2    0  502 -0.12834382559E+02  0.56238923018E+02 -0.14159533425E+03  0.23281955092E+03  0.17557951695E+03 0.  0.
        -24    2    5    5    0    0 -0.40593754829E+02  0.98967169033E+02 -0.10482646180E+03  0.16980903008E+03  0.80026034039E+02 0.  0.
          5    1    3    3  501    0 -0.41056754692E+02  0.16797282646E+02 -0.90158210641E+02  0.10059025179E+03  0.47000000000E+01 0. -1.
        -11    1    4    4    0    0  0.54799121389E+02 -0.88562845637E+02 -0.57291678359E+03  0.58230572919E+03  0.00000000000E+00 0.  1.
         12    1    4    4    0    0 -0.90798413809E+00  0.15526639973E+02 -0.11456054794E+03  0.11561150517E+03  0.00000000000E+00 0. -1.
         -5    1    5    5    0  502  0.27759372270E+02 -0.42728246014E+02 -0.36768872451E+02  0.63010520849E+02  0.47000000000E+01 0.  1.
         11    1    6    6    0    0  0.24286794675E+02  0.33307414328E+02 -0.29998339682E+02  0.50981689149E+02  0.00000000000E+00 0. -1.
        -12    1    6    6    0    0 -0.64880549504E+02  0.65659754704E+02 -0.74828122119E+02  0.11882734093E+03  0.00000000000E+00 0.  1.
</event>
<event>
12    1  0.1683022E-002  0.2151349E+03  0.7818608E-02  0.1137783E+00
         21   -1    0    0  503  502  0.00000000000E+00  0.00000000000E+00  0.79311865535E+03  0.79311865535E+03  0.00000000000E+00 0. -1.
         21   -1    0    0  501  503 -0.00000000000E+00 -0.00000000000E+00 -0.69166476415E+02  0.69166476415E+02  0.00000000000E+00 0. -1.
          6    2    1    2  501    0  0.12394233299E+03  0.35943659850E+02  0.18990725703E+03  0.28696302681E+03  0.17213182127E+03 0.  0.
         24    2    3    3    0    0  0.52053047718E+02 -0.28797246770E+02  0.15326001513E+03  0.18340355276E+03  0.81298399289E+02 0.  0.
         -6    2    1    2    0  502 -0.12394233299E+03 -0.35943659850E+02  0.53404492191E+03  0.57532210496E+03  0.17069826373E+03 0.  0.
        -24    2    5    5    0    0 -0.88228478430E+02  0.41465994918E+02  0.26871950883E+03  0.29659751170E+03  0.79096247574E+02 0.  0.
          5    1    3    3  501    0  0.71889285277E+02  0.64740906620E+02  0.36647241892E+02  0.10355947405E+03  0.47000000000E+01 0. -1.
        -11    1    4    4    0    0  0.70945922167E+02 -0.15920624368E+02  0.13779124780E+03  0.15579864609E+03  0.00000000000E+00 0.  1.
         12    1    4    4    0    0 -0.18892874449E+02 -0.12876622402E+02  0.15468767334E+02  0.27604906670E+02  0.00000000000E+00 0. -1.
         -5    1    5    5    0  502 -0.35713854565E+02 -0.77409654769E+02  0.26532541308E+03  0.27872459326E+03  0.47000000000E+01 0.  1.
         13    1    6    6    0    0  0.34843255699E+01 -0.14504182867E+02  0.60253547953E+02  0.62072553405E+02  0.00000000000E+00 0. -1.
        -14    1    6    6    0    0 -0.91712804000E+02  0.55970177786E+02  0.20846596088E+03  0.23452495830E+03  0.00000000000E+00 0.  1.
</event>
<event>
12    1  0.1683022E-002  0.2489798E+03  0.7818608E-02  0.1114710E+00
         21   -1    0    0  501  502  0.00000000000E+00  0.00000000000E+00  0.10150799438E+04  0.10150799438E+04  0.00000000000E+00 0. -1.
         21   -1    0    0  502  503 -0.00000000000E+00 -0.00000000000E+00 -0.63278523253E+02  0.63278523253E+02  0.00000000000E+00 0.  1.
          6    2    1    2  501    0  0.46114528754E+01 -0.18276674419E+03  0.34727627378E+03  0.42456828448E+03  0.16196440837E+03 0.  0.
         24    2    3    3    0    0 -0.23264133147E+02 -0.79575521874E+02  0.94555003972E+02  0.15013139397E+03  0.82007945392E+02 0.  0.
         -6    2    1    2    0  503 -0.46114528754E+01  0.18276674419E+03  0.60452514677E+03  0.65379018257E+03  0.16901479660E+03 0.  0.
        -24    2    5    5    0    0 -0.37905411331E+02  0.19387183345E+03  0.52037381045E+03  0.56249205509E+03  0.81149870145E+02 0.  0.
          5    1    3    3  501    0  0.27875586022E+02 -0.10319122232E+03  0.25272126980E+03  0.27443689051E+03  0.47000000000E+01 0. -1.
        -13    1    4    4    0    0 -0.45657429927E+02 -0.71312370865E+02  0.93635530915E+02  0.12624447630E+03  0.00000000000E+00 0.  1.
         14    1    4    4    0    0  0.22393296781E+02 -0.82631510095E+01  0.91947305665E+00  0.23886917675E+02  0.00000000000E+00 0. -1.
         -5    1    5    5    0  503  0.33293958456E+02 -0.11105089258E+02  0.84151336323E+02  0.91298127483E+02  0.47000000000E+01 0.  1.
         13    1    6    6    0    0  0.40126258232E+01  0.95859112038E+02  0.15881464369E+03  0.18554557817E+03  0.00000000000E+00 0. -1.
        -14    1    6    6    0    0 -0.41918037154E+02  0.98012721412E+02  0.36155916676E+03  0.37694647692E+03  0.00000000000E+00 0.  1.
</event>
<event>
12    1  0.1683022E-002  0.1805888E+03  0.7818608E-02  0.1167348E+00
         21   -1    0    0  503  502  0.00000000000E+00  0.00000000000E+00  0.45906662521E+03  0.45906662521E+03  0.00000000000E+00 0. -1.
         21   -1    0    0  501  503 -0.00000000000E+00 -0.00000000000E+00 -0.71310598506E+02  0.71310598506E+02  0.00000000000E+00 0. -1.
          6    2    1    2  501    0 -0.34360652616E+02 -0.44155993670E+02  0.17294627772E+03  0.25004546025E+03  0.17170297316E+03 0.  0.
         24    2    3    3    0    0  0.25217209644E+02 -0.72022605477E+02  0.77220816742E+02  0.13380638075E+03  0.78217195224E+02 0.  0.
         -6    2    1    2    0  502  0.34360652616E+02  0.44155993670E+02  0.21480974898E+03  0.28033176346E+03  0.17120824490E+03 0.  0.
        -24    2    5    5    0    0  0.16102576099E+02  0.77341949181E+02  0.21645121101E+03  0.24212902274E+03  0.74392653155E+02 0.  0.
          5    1    3    3  501    0 -0.59577862259E+02  0.27866611807E+02  0.95725460978E+02  0.11623907951E+03  0.47000000000E+01 0. -1.
        -13    1    4    4    0    0  0.31038598766E+01 -0.95971264104E+01  0.65841270178E+02  0.66609396034E+02  0.00000000000E+00 0.  1.
         14    1    4    4    0    0  0.22113349767E+02 -0.62425479066E+02  0.11379546564E+02  0.67196984714E+02  0.00000000000E+00 0. -1.
         -5    1    5    5    0  502  0.18258076517E+02 -0.33185955511E+02 -0.16414620292E+01  0.38202740724E+02  0.47000000000E+01 0.  1.
         11    1    6    6    0    0 -0.24073881791E+02  0.45732475209E+02  0.14751571222E+03  0.15630705814E+03  0.00000000000E+00 0. -1.
        -12    1    6    6    0    0  0.40176457890E+02  0.31609473971E+02  0.68935498790E+02  0.85821964594E+02  0.00000000000E+00 0.  1.
</event>
<event>
12    1  0.1683022E-002  0.2190338E+03  0.7818608E-02  0.1134777E+00
         21   -1    0    0  501  502  0.00000000000E+00  0.00000000000E+00  0.12197508172E+03  0.12197508172E+03  0.00000000000E+00 0.  1.
         21   -1    0    0  502  503 -0.00000000000E+00 -0.00000000000E+00 -0.39817083341E+03  0.39817083341E+03  0.00000000000E+00 0.  1.
          6    2    1    2  501    0  0.13574262156E+03 -0.95784004447E+01 -0.17101134044E+03  0.27716532214E+03  0.17046387351E+03 0.  0.
         24    2    3    3    0    0  0.10825810167E+03 -0.71724958277E+02 -0.14187934132E+03  0.20308187691E+03  0.65178332429E+02 0.  0.
         -6    2    1    2    0  503 -0.13574262156E+03  0.95784004447E+01 -0.10518441124E+03  0.24298059300E+03  0.17163333925E+03 0.  0.
        -24    2    5    5    0    0 -0.49765109363E+02 -0.12693857244E+02  0.11628256197E+02  0.96162762544E+02  0.80463410543E+02 0.  0.
          5    1    3    3  501    0  0.27484519891E+02  0.62146557833E+02 -0.29131999124E+02  0.74083445229E+02  0.47000000000E+01 0. -1.
        -11    1    4    4    0    0 -0.17981275040E+01 -0.19491668909E+02 -0.38973833975E+02  0.43613279561E+02  0.00000000000E+00 0.  1.
         12    1    4    4    0    0  0.11005622917E+03 -0.52233289368E+02 -0.10290550735E+03  0.15946859735E+03  0.00000000000E+00 0. -1.
         -5    1    5    5    0  503 -0.85977512193E+02  0.22272257688E+02 -0.11681266744E+03  0.14681783045E+03  0.47000000000E+01 0.  1.
         11    1    6    6    0    0  0.11508776166E+02 -0.29175994578E+02 -0.13674883593E+01  0.31393639688E+02  0.00000000000E+00 0. -1.
        -12    1    6    6    0    0 -0.61273885529E+02  0.16482137334E+02  0.12995744557E+02  0.64769122856E+02  0.00000000000E+00 0.  1.
</event>
<event>
12    1  0.1683022E-002  0.2582243E+03  0.7818608E-02  0.1108338E+00
         21   -1    0    0  501  502  0.00000000000E+00  0.00000000000E+00  0.56433235535E+03  0.56433235535E+03  0.00000000000E+00 0. -1.
         21   -1    0    0  502  503 -0.00000000000E+00 -0.00000000000E+00 -0.13240357758E+03  0.13240357758E+03  0.00000000000E+00 0.  1.
          6    2    1    2  501    0 -0.15569892742E+03 -0.11431877280E+03  0.33201370113E+03  0.42061014187E+03  0.17137343987E+03 0.  0.
         24    2    3    3    0    0 -0.34866196415E+02 -0.21534812402E+02  0.56283767131E+02  0.10555697383E+03  0.79341114717E+02 0.  0.
         -6    2    1    2    0  503  0.15569892742E+03  0.11431877280E+03  0.99915076648E+02  0.27612579106E+03  0.17015138005E+03 0.  0.
        -24    2    5    5    0    0  0.12153179183E+03  0.73657911948E+02  0.13515420023E+03  0.21221503617E+03  0.81074652761E+02 0.  0.
          5    1    3    3  501    0 -0.12083273100E+03 -0.92783960399E+02  0.27572993400E+03  0.31505316804E+03  0.47000000000E+01 0. -1.
        -11    1    4    4    0    0 -0.55255617239E+02 -0.20895316189E+02  0.17295257149E+02  0.61554231333E+02  0.00000000000E+00 0.  1.
         12    1    4    4    0    0  0.20389420824E+02 -0.63949621388E+00  0.38988509981E+02  0.44002742500E+02  0.00000000000E+00 0. -1.
         -5    1    5    5    0  503  0.34167135589E+02  0.40660860854E+02 -0.35239123579E+02  0.63910754888E+02  0.47000000000E+01 0.  1.
         13    1    6    6    0    0  0.10614272366E+03  0.29473449206E+02  0.65049482930E+02  0.12793122068E+03  0.00000000000E+00 0. -1.
        -14    1    6    6    0    0  0.15389068165E+02  0.44184462742E+02  0.70104717297E+02  0.84283815493E+02  0.00000000000E+00 0.  1.
</event>
<event>
12    1  0.1683022E-002  0.1899179E+03  0.7818608E-02  0.1159052E+00
         21   -1    0    0  501  502  0.00000000000E+00  0.00000000000E+00  0.38582258209E+02  0.38582258209E+02  0.00000000000E+00 0.  1.
         21   -1    0    0  502  503 -0.00000000000E+00 -0.00000000000E+00 -0.94866695255E+03  0.94866695255E+03  0.00000000000E+00 0.  1.
          6    2    1    2  501    0 -0.31266273492E+02  0.67885485078E+02 -0.53245828058E+03  0.56455484496E+03  0.17211720852E+03 0.  0.
         24    2    3    3    0    0 -0.38119105230E+02  0.11209582882E+03 -0.38589391292E+03  0.41124235472E+03  0.78661434402E+02 0.  0.
         -6    2    1    2    0  503  0.31266273492E+02 -0.67885485078E+02 -0.37762641377E+03  0.42269436580E+03  0.17459324032E+03 0.  0.
        -24    2    5    5    0    0  0.22700169782E+02  0.26488171363E+02 -0.12147645198E+03  0.14953752791E+03  0.79925108310E+02 0.  0.
          5    1    3    3  501    0  0.68528317375E+01 -0.44210343746E+02 -0.14656436765E+03  0.15331249024E+03  0.47000000000E+01 0. -1.
        -13    1    4    4    0    0 -0.17698496710E+02  0.49074595160E+02 -0.29022003292E+03  0.29487153166E+03  0.00000000000E+00 0.  1.
         14    1    4    4    0    0 -0.20420608519E+02  0.63021233664E+02 -0.95673880002E+02  0.11637082306E+03  0.00000000000E+00 0. -1.
         -5    1    5    5    0  503  0.85661037102E+01 -0.94373656441E+02 -0.25614996179E+03  0.27315683789E+03  0.47000000000E+01 0.  1.
         11    1    6    6    0    0 -0.18236668986E+02  0.29747245076E+02 -0.20355257065E+02  0.40395682635E+02  0.00000000000E+00 0. -1.
        -12    1    6    6    0    0  0.40936838768E+02 -0.32590737133E+01 -0.10112119491E+03  0.10914184528E+03  0.00000000000E+00 0.  1.
</event>
<event>
12    1  0.1683022E-002  0.1731945E+03  0.7818608E-02  0.1174861E+00
         21   -1    0    0  501  502  0.00000000000E+00  0.00000000000E+00  0.20697680189E+03  0.20697680189E+03  0.00000000000E+00 0.  1.
         21   -1    0    0  502  503 -0.00000000000E+00 -0.00000000000E+00 -0.17148118104E+03  0.17148118104E+03  0.00000000000E+00 0.  1.
          6    2    1    2  501    0  0.14477792313E+02  0.68198491492E+01  0.93645868485E+02  0.19689055191E+03  0.17245354138E+03 0.  0.
         24    2    3    3    0    0 -0.85920577775E+01 -0.65655713903E+02  0.44812663141E+02  0.10638255687E+03  0.70175333292E+02 0.  0.
         -6    2    1    2    0  503 -0.14477792313E+02 -0.68198491492E+01 -0.58150247633E+02  0.18156743101E+03  0.17125759514E+03 0.  0.
        -24    2    5    5    0    0 -0.24261445277E+01 -0.48834650799E+02 -0.88352778625E+02  0.12823105834E+03  0.79033420371E+02 0.  0.
          5    1    3    3  501    0  0.23069850090E+02  0.72475563052E+02  0.48833205344E+02  0.90507995045E+02  0.47000000000E+01 0. -1.
        -13    1    4    4    0    0  0.19425164977E+02  0.52531949774E+01  0.11522344881E+02  0.23188305747E+02  0.00000000000E+00 0.  1.
         14    1    4    4    0    0 -0.28017222754E+02 -0.70908908880E+02  0.33290318260E+02  0.83194251119E+02  0.00000000000E+00 0. -1.
         -5    1    5    5    0  503 -0.12051647785E+02  0.42014801650E+02  0.30202530993E+02  0.53336372677E+02  0.47000000000E+01 0.  1.
         13    1    6    6    0    0  0.37786550980E+02 -0.31212105649E+02 -0.47944263600E+02  0.68561442416E+02  0.00000000000E+00 0. -1.
        -14    1    6    6    0    0 -0.40212695508E+02 -0.17622545150E+02 -0.40408515025E+02  0.59669615921E+02  0.00000000000E+00 0.  1.
</event>
<event>
12    1  0.1683022E-002  0.1762654E+03  0.7818608E-02  0.1171602E+00
         21   -1    0    0  503  502  0.00000000000E+00  0.00000000000E+00  0.44125635206E+02  0.44125635206E+02  0.00000000000E+00 0. -1.
         21   -1    0    0  501  503 -0.00000000000E+00 -0.00000000000E+00 -0.78432602723E+03  0.78432602723E+03  0.00000000000E+00 0. -1.
          6    2    1    2  501    0  0.56695356761E+01  0.26540713062E+02 -0.50485501308E+03  0.53474111422E+03  0.17416349195E+03 0.  0.
         24    2    3    3    0    0  0.25744373072E+01 -0.45775569656E+02 -0.18152433035E+03  0.20337418049E+03  0.79422567804E+02 0.  0.
         -6    2    1    2    0  502 -0.56695356761E+01 -0.26540713062E+02 -0.23534537895E+03  0.29371054821E+03  0.17361418621E+03 0.  0.
        -24    2    5    5    0    0  0.46606216228E+02 -0.50423288512E+02 -0.88387648292E+02  0.13584416089E+03  0.76984493641E+02 0.  0.
          5    1    3    3  501    0  0.30950983690E+01  0.72316282719E+02 -0.32333068272E+03  0.33136693373E+03  0.47000000000E+01 0. -1.
        -11    1    4    4    0    0 -0.30254094941E+02  0.16694405657E+01 -0.92071329188E+02  0.96928978902E+02  0.00000000000E+00 0.  1.
         12    1    4    4    0    0  0.32828532248E+02 -0.47445010222E+02 -0.89453001164E+02  0.10644520159E+03  0.00000000000E+00 0. -1.
         -5    1    5    5    0  502 -0.52275751905E+02  0.23882575449E+02 -0.14695773066E+03  0.15786638733E+03  0.47000000000E+01 0.  1.
         13    1    6    6    0    0  0.16279676902E+02  0.70452896261E+01  0.81124885981E+01  0.19505805731E+02  0.00000000000E+00 0. -1.
        -14    1    6    6    0    0  0.30326539326E+02 -0.57468578138E+02 -0.96500136890E+02  0.11633835516E+03  0.00000000000E+00 0.  1.
</event>
<event>
12    1  0.1683022E-002  0.1959254E+03  0.7818608E-02  0.1153417E+00
         21   -1    0    0  501  502  0.00000000000E+00  0.00000000000E+00  0.49350796419E+03  0.49350796419E+03  0.00000000000E+00 0. -1.
         21   -1    0    0  502  503 -0.00000000000E+00 -0.00000000000E+00 -0.90606633168E+02  0.90606633168E+02  0.00000000000E+00 0.  1.
          6    2    1    2  501    0 -0.92238588636E+02 -0.48440036626E+01  0.31321803820E+03  0.36944867081E+03  0.17278703452E+03 0.  0.
         24    2    3    3    0    0 -0.10227743189E+03 -0.49865762531E+02  0.27889071371E+03  0.31175818327E+03  0.80410616793E+02 0.  0.
         -6    2    1    2    0  503  0.92238588636E+02  0.48440036626E+01  0.89683292815E+02  0.21466592655E+03  0.17177585804E+03 0.  0.
        -24    2    5    5    0    0  0.29733159868E+02  0.44862339982E+02  0.10783149108E+03  0.13811631540E+03  0.67466997611E+02 0.  0.
          5    1    3    3  501    0  0.10038843254E+02  0.45021758868E+02  0.34327324494E+02  0.57690487538E+02  0.47000000000E+01 0. -1.
        -13    1    4    4    0    0 -0.24781182673E+02 -0.69576885814E+01  0.83115745312E+01  0.27048081564E+02  0.00000000000E+00 0.  1.
         14    1    4    4    0    0 -0.77496249217E+02 -0.42908073949E+02  0.27057913918E+03  0.28471010170E+03  0.00000000000E+00 0. -1.
         -5    1    5    5    0  503  0.62505428768E+02 -0.40018336320E+02 -0.18148198264E+02  0.76549611152E+02  0.47000000000E+01 0.  1.
         13    1    6    6    0    0 -0.21398116839E+02  0.20584278334E+02  0.38134520100E+02  0.48330461844E+02  0.00000000000E+00 0. -1.
        -14    1    6    6    0    0  0.51131276706E+02  0.24278061649E+02  0.69696970979E+02  0.89785853556E+02  0.00000000000E+00 0.  1.
</event>
<event>
12    1  0.1683022E-002  0.1838571E+03  0.7818608E-02  0.1164673E+00
         21   -1    0    0  503  502  0.00000000000E+00  0.00000000000E+00  0.43557390434E+02  0.43557390434E+02  0.00000000000E+00 0.  1.
         21   -1    0    0  501  503 -0.00000000000E+00 -0.00000000000E+00 -0.79414965803E+03  0.79414965803E+03  0.00000000000E+00 0.  1.
          6    2    1    2  501    0  0.35396911135E+02  0.45061037258E+02 -0.45608066786E+03  0.49174485244E+03  0.17469970206E+03 0.  0.
         24    2    3    3    0    0  0.90089080916E+02  0.32408552300E+02 -0.35274139379E+03  0.37404857222E+03  0.79495199370E+02 0.  0.
         -6    2    1    2    0  502 -0.35396911135E+02 -0.45061037258E+02 -0.29451159974E+03  0.34596219603E+03  0.17224784558E+03 0.  0.
        -24    2    5    5    0    0 -0.17731110660E+02  0.39249068327E+02 -0.12362664704E+03  0.15453588784E+03  0.82115230756E+02 0.  0.
          5    1    3    3  501    0 -0.54692169782E+02  0.12652484959E+02 -0.10333927408E+03  0.11769628022E+03  0.47000000000E+01 0. -1.
        -11    1    4    4    0    0  0.69630617947E+02  0.58092269133E+02 -0.23759685291E+03  0.25431358438E+03  0.00000000000E+00 0.  1.
         12    1    4    4    0    0  0.20458462969E+02 -0.25683716834E+02 -0.11514454088E+03  0.11973498784E+03  0.00000000000E+00 0. -1.
         -5    1    5    5    0  502 -0.17665800475E+02 -0.84310105585E+02 -0.17088495270E+03  0.19142630819E+03  0.47000000000E+01 0.  1.
         13    1    6    6    0    0  0.83406038822E+01  0.76808240830E+00 -0.10357624356E+03  0.10391435827E+03  0.00000000000E+00 0. -1.
        -14    1    6    6    0    0 -0.26071714542E+02  0.38480985919E+02 -0.20050403476E+02  0.50621529570E+02  0.00000000000E+00 0.  1.
</event>
<event>
12    1  0.1683022E-002  0.2069656E+03  0.7818608E-02  0.1144274E+00
         21   -1    0    0  503  502  0.00000000000E+00  0.00000000000E+00  0.41537378144E+03  0.41537378144E+03  0.00000000000E+00 0.  1.
         21   -1    0    0  501  503 -0.00000000000E+00 -0.00000000000E+00 -0.10664118000E+03  0.10664118000E+03  0.00000000000E+00 0.  1.
          6    2    1    2  501    0 -0.86909447705E+02 -0.76434742419E+02  0.20673689802E+03  0.29253189053E+03  0.17157867008E+03 0.  0.
         24    2    3    3    0    0 -0.68800682591E+02 -0.59083170558E+02  0.22932955215E+03  0.25845077494E+03  0.77333075780E+02 0.  0.
         -6    2    1    2    0  502  0.86909447705E+02  0.76434742419E+02  0.10199570341E+03  0.22948307091E+03  0.16989359720E+03 0.  0.
        -24    2    5    5    0    0  0.48239252337E+02  0.62504987037E+02 -0.72854793010E+01  0.11263321430E+03  0.79995399142E+02 0.  0.
          5    1    3    3  501    0 -0.18108765114E+02 -0.17351571862E+02 -0.22592654123E+02  0.34081115597E+02  0.47000000000E+01 0. -1.
        -11    1    4    4    0    0  0.80007552058E+01 -0.17131376307E+02  0.81528327028E+01  0.20590405997E+02  0.00000000000E+00 0.  1.
         12    1    4    4    0    0 -0.76801437797E+02 -0.41951794251E+02  0.22117671944E+03  0.23786036894E+03  0.00000000000E+00 0. -1.
         -5    1    5    5    0  502  0.38670195368E+02  0.13929755383E+02  0.10928118271E+03  0.11684985661E+03  0.47000000000E+01 0.  1.
         13    1    6    6    0    0 -0.21987752133E+02  0.21974445893E+02 -0.52347499904E+01  0.31523643883E+02  0.00000000000E+00 0. -1.
        -14    1    6    6    0    0  0.70227004470E+02  0.40530541143E+02 -0.20507293106E+01  0.81109570415E+02  0.00000000000E+00 0.  1.
</event>
<event>
12    1  0.1683022E-002  0.1919907E+03  0.7818608E-02  0.1157656E+00
         21   -1    0    0  503  502  0.00000000000E+00  0.00000000000E+00  0.27701743562E+02  0.27701743562E+02  0.00000000000E+00 0. -1.
         21   -1    0    0  501  503 -0.00000000000E+00 -0.00000000000E+00 -0.14208366466E+04  0.14208366466E+04  0.00000000000E+00 0. -1.
          6    2    1    2  501    0 -0.75682414168E+02  0.77989258946E+01 -0.89988110565E+03  0.91923722157E+03  0.17152963057E+03 0.  0.
         24    2    3    3    0    0  0.14011582431E+02 -0.11712835615E+02 -0.25172178136E+03  0.26459356162E+03  0.79450504567E+02 0.  0.
         -6    2    1    2    0  502  0.75682414168E+02 -0.77989258946E+01 -0.49325379736E+03  0.52930116856E+03  0.17627185643E+03 0.  0.
        -24    2    5    5    0    0  0.19314248805E+02  0.50208572555E+02 -0.16483234168E+03  0.19103354892E+03  0.80188371888E+02 0.  0.
          5    1    3    3  501    0 -0.89693996598E+02  0.19511761510E+02 -0.64815932428E+03  0.65464365996E+03  0.47000000000E+01 0. -1.
        -11    1    4    4    0    0  0.16705502120E+02  0.21392057281E+02 -0.30236791981E+02  0.40631976387E+02  0.00000000000E+00 0.  1.
         12    1    4    4    0    0 -0.26939196895E+01 -0.33104892897E+02 -0.22148498938E+03  0.22396158523E+03  0.00000000000E+00 0. -1.
         -5    1    5    5    0  502  0.56368165363E+02 -0.58007498449E+02 -0.32842145568E+03  0.33826761964E+03  0.47000000000E+01 0.  1.
         13    1    6    6    0    0  0.38582545649E+02  0.16419174461E+02 -0.32351664095E+02  0.52960667372E+02  0.00000000000E+00 0. -1.
        -14    1    6    6    0    0 -0.19268296844E+02  0.33789398094E+02 -0.13248067758E+03  0.13807288155E+03  0.00000000000E+00 0.  1.
</event>
<event>
12    1  0.1683022E-002  0.1957343E+03  0.7818608E-02  0.1153573E+00
         21   -1    0    0  501  502  0.00000000000E+00  0.00000000000E+00  0.37632507969E+02  0.37632507969E+02  0.00000000000E+00 0.  1.
         21   -1    0    0  502  503 -0.00000000000E+00 -0.00000000000E+00 -0.11104019672E+04  0.11104019672E+04  0.00000000000E+00 0.  1.
          6    2    1    2  501    0 -0.86514468927E+02  0.29068443643E+02 -0.36801370386E+03  0.41682852454E+03  0.17315370310E+03 0.  0.
         24    2    3    3    0    0 -0.55597647475E+02  0.68868100064E+02 -0.14247607833E+03  0.18568101098E+03  0.79649804334E+02 0.  0.
         -6    2    1    2    0  503  0.86514468927E+02 -0.29068443643E+02 -0.70475575535E+03  0.73120595060E+03  0.17219680526E+03 0.  0.
        -24    2    5    5    0    0  0.74519403005E+02  0.14009868571E+01 -0.68052099314E+03  0.69019764046E+03  0.87800094534E+02 0.  0.
          5    1    3    3  501    0 -0.30916821452E+02 -0.39799656421E+02 -0.22553762552E+03  0.23114751356E+03  0.47000000000E+01 0. -1.
        -11    1    4    4    0    0  0.19765535365E+02  0.22456125525E+02 -0.44791785478E+02  0.53863327117E+02  0.00000000000E+00 0.  1.
         12    1    4    4    0    0 -0.75363182840E+02  0.46411974540E+02 -0.97684292856E+02  0.13181768386E+03  0.00000000000E+00 0. -1.
         -5    1    5    5    0  503  0.11995065922E+02 -0.30469430500E+02 -0.24234762214E+02  0.41008310146E+02  0.47000000000E+01 0.  1.
         11    1    6    6    0    0  0.49571319845E+02  0.15105280462E+02 -0.14608604325E+03  0.15500521695E+03  0.00000000000E+00 0. -1.
        -12    1    6    6    0    0  0.24948083160E+02 -0.13704293605E+02 -0.53443494989E+03  0.53519242351E+03  0.00000000000E+00 0.  1.
</event>
<event>
12    1  0.1683022E-002  0.2221565E+03  0.7818608E-02  0.1133153E+00
         21   -1    0    0  501  502  0.00000000000E+00  0.00000000000E+00  0.97196225079E+03  0.97196225079E+03  0.00000000000E+00 0. -1.
         21   -1    0    0  502  503 -0.00000000000E+00 -0.00000000000E+00 -0.49925623842E+02  0.49925623842E+02  0.00000000000E+00 0.  1.
          6    2    1    2  501    0 -0.13180461878E+03  0.22005194426E+02  0.42313257796E+03  0.47575716433E+03  0.17160132506E+03 0.  0.
         24    2    3    3    0    0 -0.14478065356E+03  0.59494270310E+02  0.36212798001E+03  0.40283625333E+03  0.81482312474E+02 0.  0.
         -6    2    1    2    0  503  0.13180461878E+03 -0.22005194426E+02  0.49890404898E+03  0.54613071030E+03  0.17747342485E+03 0.  0.
        -24    2    5    5    0    0  0.58770313720E+02 -0.72233004075E+02  0.36900762677E+03  0.38880298521E+03  0.79558632742E+02 0.  0.
          5    1    3    3  501    0  0.12976034781E+02 -0.37489075884E+02  0.61004597955E+02  0.72920911000E+02  0.47000000000E+01 0. -1.
        -11    1    4    4    0    0 -0.10378114178E+03  0.28038224894E+01  0.24962431106E+03  0.27035288695E+03  0.00000000000E+00 0.  1.
         12    1    4    4    0    0 -0.40999511777E+02  0.56690447821E+02  0.11250366895E+03  0.13248336638E+03  0.00000000000E+00 0. -1.
         -5    1    5    5    0  503  0.73034305060E+02  0.50227809650E+02  0.12989642221E+03  0.15732772509E+03  0.47000000000E+01 0.  1.
         13    1    6    6    0    0  0.60870869444E+02 -0.84652989372E+02  0.27766830974E+03  0.29659919351E+03  0.00000000000E+00 0. -1.
        -14    1    6    6    0    0 -0.21005557242E+01  0.12419985297E+02  0.91339317023E+02  0.92203791698E+02  0.00000000000E+00 0.  1.
</event>
<event>
12    1  0.1683022E-002  0.2788731E+03  0.7818608E-02  0.1096636E+00
         21   -1    0    0  501  502  0.00000000000E+00  0.00000000000E+00  0.97181041924E+03  0.97181041924E+03  0.00000000000E+00 0.  1.
         21   -1    0    0  502  503 -0.00000000000E+00 -0.00000000000E+00 -0.84916400973E+02  0.84916400973E+02  0.00000000000E+00 0. -1.
          6    2    1    2  501    0 -0.11328872382E+03 -0.18676000925E+03  0.57703987451E+03  0.63985779802E+03  0.16949734191E+03 0.  0.
         24    2    3    3    0    0 -0.12227017715E+03 -0.11660203425E+03  0.50605493370E+03  0.53953950567E+03  0.80406788529E+02 0.  0.
         -6    2    1    2    0  503  0.11328872382E+03  0.18676000925E+03  0.30985414375E+03  0.41686902218E+03  0.17336826485E+03 0.  0.
        -24    2    5    5    0    0  0.13832277620E+03  0.10060704540E+03  0.14736813185E+03  0.23120041681E+03  0.49812633409E+02 0.  0.
          5    1    3    3  501    0  0.89814533239E+01 -0.70157974996E+02  0.70984940808E+02  0.10031829235E+03  0.47000000000E+01 0. -1.
        -13    1    4    4    0    0 -0.20919450679E+02 -0.54726109490E+02  0.94428907645E+02  0.11112780514E+03  0.00000000000E+00 0.  1.
         14    1    4    4    0    0 -0.10135072647E+03 -0.61875924765E+02  0.41162602606E+03  0.42841170053E+03  0.00000000000E+00 0. -1.
         -5    1    5    5    0  503 -0.25034052378E+02  0.86152963846E+02  0.16248601190E+03  0.18566860538E+03  0.47000000000E+01 0.  1.
         11    1    6    6    0    0  0.43919324608E+02  0.52859580204E+02  0.35952972601E+02  0.77560676455E+02  0.00000000000E+00 0. -1.
        -12    1    6    6    0    0  0.94403451593E+02  0.47747465200E+02  0.11141515925E+03  0.15363974035E+03  0.00000000000E+00 0.  1.
</event>
<event>
12    1  0.1683022E-002  0.2213920E+03  0.7818608E-02  0.1134777E+00
         21   -1    0    0  501  502  0.00000000000E+00  0.00000000000E+00  0.38017157128E+03  0.38017157128E+03  0.00000000000E+00 0.  1.
         21   -1    0    0  502  503 -0.00000000000E+00 -0.00000000000E+00 -0.14350538606E+03  0.14350538606E+03  0.00000000000E+00 0. -1.
          6    2    1    2  501    0 -0.24058716991E+02 -0.13663311926E+03  0.21472425091E+03  0.30120031654E+03  0.15927239439E+03 0.  0.
         24    2    3    3    0    0 -0.73623119780E+01 -0.15818917376E+03  0.20663826224E+03  0.27237486531E+03  0.80066706575E+02 0.  0.
         -6    2    1    2    0  503  0.24058716991E+02  0.13663311926E+03  0.21941934317E+02  0.22247664080E+03  0.17253108728E+03 0.  0.
        -24    2    5    5    0    0 -0.68964098042E+00  0.15951995193E+03  0.41967907126E+02  0.18298717488E+03  0.79220642979E+02 0.  0.
          5    1    3    3  501    0 -0.16696405013E+02  0.21556054494E+02  0.80859886680E+01  0.28825451227E+02  0.47000000000E+01 0. -1.
        -11    1    4    4    0    0  0.14369694641E+02 -0.14933668231E+03  0.19541419279E+03  0.24636282096E+03  0.00000000000E+00 0.  1.
         12    1    4    4    0    0 -0.21732006619E+02 -0.88524914443E+01  0.11224069454E+02  0.26012044356E+02  0.00000000000E+00 0. -1.
         -5    1    5    5    0  503  0.24748357971E+02 -0.22886832665E+02 -0.20025972809E+02  0.39489465920E+02  0.47000000000E+01 0.  1.
         13    1    6    6    0    0  0.76831255953E+01  0.12420156972E+02 -0.18631985546E+02  0.23673647870E+02  0.00000000000E+00 0. -1.
        -14    1    6    6    0    0 -0.83727665757E+01  0.14709979496E+03  0.60599892671E+02  0.15931352701E+03  0.00000000000E+00 0.  1.
</event>
<event>
12    1  0.1683022E-002  0.2616617E+03  0.7818608E-02  0.1106514E+00
         21   -1    0    0  503  502  0.00000000000E+00  0.00000000000E+00  0.22529989602E+03  0.22529989602E+03  0.00000000000E+00 0. -1.
         21   -1    0    0  501  503 -0.00000000000E+00 -0.00000000000E+00 -0.35484576777E+03  0.35484576777E+03  0.00000000000E+00 0. -1.
          6    2    1    2  501    0 -0.18124567802E+03  0.67866517734E+02 -0.17743776542E+03  0.31413723690E+03  0.17245922121E+03 0.  0.
         24    2    3    3    0    0 -0.20445722158E+02  0.13262912540E+01 -0.32284102012E+02  0.87474704609E+02  0.78675117417E+02 0.  0.
         -6    2    1    2    0  502  0.18124567802E+03 -0.67866517734E+02  0.47891893673E+02  0.26600842689E+03  0.17609937440E+03 0.  0.
        -24    2    5    5    0    0  0.15588597498E+03 -0.20246279128E+02  0.90093980176E+02  0.19735052298E+03  0.78230138975E+02 0.  0.
          5    1    3    3  501    0 -0.16079995586E+03  0.66540226480E+02 -0.14515366341E+03  0.22666253229E+03  0.47000000000E+01 0. -1.
        -11    1    4    4    0    0 -0.26731447786E+01 -0.26503710340E+02 -0.44833096256E+02  0.52149773583E+02  0.00000000000E+00 0.  1.
         12    1    4    4    0    0 -0.17772577380E+02  0.27830001594E+02  0.12548994245E+02  0.35324931026E+02  0.00000000000E+00 0. -1.
         -5    1    5    5    0  502  0.25359703041E+02 -0.47620238605E+02 -0.42202086503E+02  0.68657903903E+02  0.47000000000E+01 0.  1.
         13    1    6    6    0    0  0.10165741187E+03 -0.14483133155E+02  0.13854051851E+02  0.10361431024E+03  0.00000000000E+00 0. -1.
        -14    1    6    6    0    0  0.54228563112E+02 -0.57631459732E+01  0.76239928324E+02  0.93736212744E+02  0.00000000000E+00 0.  1.
</event>
<event>
12    1  0.1683022E-002  0.1873648E+03  0.7818608E-02  0.1161087E+00
         21   -1    0    0  503  502  0.00000000000E+00  0.00000000000E+00  0.11094729679E+04  0.11094729679E+04  0.00000000000E+00 0.  1.
         21   -1    0    0  501  503 -0.00000000000E+00 -0.00000000000E+00 -0.67446142890E+02  0.67446142890E+02  0.00000000000E+00 0.  1.
          6    2    1    2  501    0 -0.34898056675E+01  0.71912906924E+02  0.90621832275E+02  0.20724027639E+03  0.17190861162E+03 0.  0.
         24    2    3    3    0    0 -0.19771152496E+02 -0.14072929897E+01  0.10110137362E+03  0.13126103741E+03  0.81333223523E+02 0.  0.
         -6    2    1    2    0  502  0.34898056675E+01 -0.71912906924E+02  0.95140499275E+03  0.96967883441E+03  0.17297958478E+03 0.  0.
        -24    2    5    5    0    0  0.48937963445E+02 -0.16704874885E+02  0.33148663559E+03  0.34563210428E+03  0.83091424480E+02 0.  0.
          5    1    3    3  501    0  0.16281346828E+02  0.73320199913E+02 -0.10479541345E+02  0.75979238985E+02  0.47000000000E+01 0. -1.
        -11    1    4    4    0    0  0.30470983073E+02 -0.11285453883E+02  0.38007886082E+02  0.50004416637E+02  0.00000000000E+00 0.  1.
         12    1    4    4    0    0 -0.50242135569E+02  0.98781608934E+01  0.63093487538E+02  0.81256620770E+02  0.00000000000E+00 0. -1.
         -5    1    5    5    0  502 -0.45448157777E+02 -0.55208032038E+02  0.61991835716E+03  0.62404673014E+03  0.47000000000E+01 0.  1.
         11    1    6    6    0    0  0.47306507519E+02  0.26123831157E+02  0.16040406517E+03  0.16926258987E+03  0.00000000000E+00 0. -1.
        -12    1    6    6    0    0  0.16314559259E+01 -0.42828706042E+02  0.17108257042E+03  0.17636951440E+03  0.00000000000E+00 0.  1.
</event>
<event>
12    1  0.1683022E-002  0.2461370E+03  0.7818608E-02  0.1116189E+00
         21   -1    0    0  503  502  0.00000000000E+00  0.00000000000E+00  0.13012328037E+03  0.13012328037E+03  0.00000000000E+00 0. -1.
         21   -1    0    0  501  503 -0.00000000000E+00 -0.00000000000E+00 -0.48854420638E+03  0.48854420638E+03  0.00000000000E+00 0. -1.
          6    2    1    2  501    0 -0.17100326292E+03  0.37140356800E+02 -0.25392168854E+03  0.35363772784E+03  0.17309505078E+03 0.  0.
         24    2    3    3    0    0 -0.16945395492E+02  0.42774658121E+02 -0.91072964342E+02  0.12934468550E+03  0.79491792199E+02 0.  0.
         -6    2    1    2    0  502  0.17100326292E+03 -0.37140356800E+02 -0.10449923748E+03  0.26502975892E+03  0.16940826557E+03 0.  0.
        -24    2    5    5    0    0  0.11311796120E+03  0.32935936865E+02 -0.24421612801E+02  0.14380306605E+03  0.78755682655E+02 0.  0.
          5    1    3    3  501    0 -0.15405786743E+03 -0.56343013204E+01 -0.16284872420E+03  0.22429304234E+03  0.47000000000E+01 0. -1.
        -13    1    4    4    0    0  0.27097336375E+02  0.11573135222E+02 -0.60545817592E+02  0.67334976984E+02  0.00000000000E+00 0.  1.
         14    1    4    4    0    0 -0.44042731867E+02  0.31201522898E+02 -0.30527146750E+02  0.62009708515E+02  0.00000000000E+00 0. -1.
         -5    1    5    5    0  502  0.57885301722E+02 -0.70076293665E+02 -0.80077624676E+02  0.12122669286E+03  0.47000000000E+01 0.  1.
         13    1    6    6    0    0  0.99987882187E+02  0.38833955885E+02 -0.46933446629E+02  0.11708288144E+03  0.00000000000E+00 0. -1.
        -14    1    6    6    0    0  0.13130079014E+02 -0.58980190200E+01  0.22511833829E+02  0.26720184610E+02  0.00000000000E+00 0.  1.
</event>
<event>
12    1  0.1683022E-002  0.1929936E+03  0.7818608E-02  0.1156473E+00
         21   -1    0    0  503  502  0.00000000000E+00  0.00000000000E+00  0.30474925978E+03  0.30474925978E+03  0.00000000000E+00 0.  1.
         21   -1    0    0  501  503 -0.00000000000E+00 -0.00000000000E+00 -0.13011891743E+03  0.13011891743E+03  0.00000000000E+00 0.  1.
          6    2    1    2  501    0 -0.12348929087E+02  0.78015140637E+02  0.28183032829E+02  0.19504054180E+03  0.17608995254E+03 0.  0.
         24    2    3    3    0    0  0.15230018062E+02  0.85083197013E+02 -0.38626212358E+02  0.12226608894E+03  0.77368652299E+02 0.  0.
         -6    2    1    2    0  502  0.12348929087E+02 -0.78015140637E+02  0.14644730953E+03  0.23982763541E+03  0.17271833146E+03 0.  0.
        -24    2    5    5    0    0  0.18959142861E+02 -0.43208335818E+01  0.14305140536E+03  0.16561060244E+03  0.81148310908E+02 0.  0.
          5    1    3    3  501    0 -0.27578947148E+02 -0.70680563759E+01  0.66809245188E+02  0.72774452861E+02  0.47000000000E+01 0. -1.
        -13    1    4    4    0    0  0.21224358091E+01 -0.10972008559E+02 -0.20918811483E+02  0.23716795303E+02  0.00000000000E+00 0.  1.
         14    1    4    4    0    0  0.13107582252E+02  0.96055205572E+02 -0.17707400875E+02  0.98549293634E+02  0.00000000000E+00 0. -1.
         -5    1    5    5    0  502 -0.66102137748E+01 -0.73694307056E+02  0.33959041687E+01  0.74217032975E+02  0.47000000000E+01 0.  1.
         13    1    6    6    0    0  0.96473499681E+01  0.38455954404E+02  0.69770271256E+02  0.80248504919E+02  0.00000000000E+00 0. -1.
        -14    1    6    6    0    0  0.93117928933E+01 -0.42776787985E+02  0.73281134103E+02  0.85362097518E+02  0.00000000000E+00 0.  1.
</event>
<event>
12    1  0.1683022E-002  0.1906977E+03  0.7818608E-02  0.1158471E+00
         21   -1    0    0  501  502  0.00000000000E+00  0.00000000000E+00  0.78926702930E+02  0.78926702930E+02  0.00000000000E+00 0. -1.
         21   -1    0    0  502  503 -0.00000000000E+00 -0.00000000000E+00 -0.47643454232E+03  0.47643454232E+03  0.00000000000E+00 0. -1.
          6    2    1    2  501    0  0.72999355822E+02 -0.40152039358E+02 -0.25763873696E+03  0.31886813908E+03  0.16839857221E+03 0.  0.
         24    2    3    3    0    0 -0.15002288029E+01 -0.32962071604E+02 -0.21747491211E+03  0.23379695376E+03  0.79227074523E+02 0.  0.
         -6    2    1    2    0  503 -0.72999355822E+02  0.40152039358E+02 -0.13986910244E+03  0.23649310618E+03  0.17153580162E+03 0.  0.
        -24    2    5    5    0    0 -0.65573536038E+01  0.28962660251E+02 -0.68942530684E+01  0.87348403194E+02  0.81855838155E+02 0.  0.
          5    1    3    3  501    0  0.74499584624E+02 -0.71899677538E+01 -0.40163824847E+02  0.85071185321E+02  0.47000000000E+01 0. -1.
        -13    1    4    4    0    0 -0.18073807412E+02 -0.17674157495E+02 -0.13650806606E+02  0.28729477520E+02  0.00000000000E+00 0.  1.
         14    1    4    4    0    0  0.16573578609E+02 -0.15287914109E+02 -0.20382410550E+03  0.20506747624E+03  0.00000000000E+00 0. -1.
         -5    1    5    5    0  503 -0.66442002218E+02  0.11189379107E+02 -0.13297484937E+03  0.14914470298E+03  0.47000000000E+01 0.  1.
         13    1    6    6    0    0  0.18695917005E+02  0.43140981227E+02  0.16800403115E+02  0.49929301204E+02  0.00000000000E+00 0. -1.
        -14    1    6    6    0    0 -0.25253270609E+02 -0.14178320975E+02 -0.23694656183E+02  0.37419101990E+02  0.00000000000E+00 0.  1.
</event>
<event>
12    1  0.1683022E-002  0.2334030E+03  0.7818608E-02  0.1124695E+00
         21   -1    0    0  501  502  0.00000000000E+00  0.00000000000E+00  0.89718851917E+02  0.89718851917E+02  0.00000000000E+00 0. -1.
         21   -1    0    0  502  503 -0.00000000000E+00 -0.00000000000E+00 -0.84008240988E+03  0.84008240988E+03  0.00000000000E+00 0.  1.
          6    2    1    2  501    0  0.15615690585E+03  0.18093909649E+02 -0.12849382221E+03  0.26643501065E+03  0.17252415408E+03 0.  0.
         24    2    3    3    0    0  0.25184649691E+02  0.45368231880E+02 -0.28360972199E+02  0.99263547210E+02  0.79726808645E+02 0.  0.
         -6    2    1    2    0  503 -0.15615690585E+03 -0.18093909649E+02 -0.62186973575E+03  0.66336625114E+03  0.16917578463E+03 0.  0.
        -24    2    5    5    0    0 -0.43135982713E+02 -0.20581033164E+02 -0.14609625362E+03  0.17432391029E+03  0.82221763828E+02 0.  0.
          5    1    3    3  501    0  0.13097225616E+03 -0.27274322230E+02 -0.10013285001E+03  0.16717146344E+03  0.47000000000E+01 0. -1.
        -11    1    4    4    0    0 -0.20353220947E+01 -0.19233011606E+02 -0.21357178929E+02  0.28812850662E+02  0.00000000000E+00 0.  1.
         12    1    4    4    0    0  0.27219971786E+02  0.64601243486E+02 -0.70037932694E+01  0.70450696548E+02  0.00000000000E+00 0. -1.
         -5    1    5    5    0  503 -0.11302092314E+03  0.24871235150E+01 -0.47577348213E+03  0.48904234085E+03  0.47000000000E+01 0.  1.
         11    1    6    6    0    0  0.12758651645E+01  0.19075182218E+02 -0.91716388489E+02  0.93687706376E+02  0.00000000000E+00 0. -1.
        -12    1    6    6    0    0 -0.44411847878E+02 -0.39656215383E+02 -0.54379865133E+02  0.80636203918E+02  0.00000000000E+00 0.  1.
</event>
<event>
12    1  0.1683022E-002  0.2408889E+03  0.7818608E-02  0.1119504E+00
         21   -1    0    0  503  502  0.00000000000E+00  0.00000000000E+00  0.20137852636E+03  0.20137852636E+03  0.00000000000E+00 0.  1.
         21   -1    0    0  501  503 -0.00000000000E+00 -0.00000000000E+00 -0.29093229817E+03  0.29093229817E+03  0.00000000000E+00 0. -1.
          6    2    1    2  501    0 -0.57505120739E+02  0.15710410235E+03 -0.76717164928E+02  0.25108012516E+03  0.17078398042E+03 0.  0.
         24    2    3    3    0    0 -0.24452476370E+02  0.99854442465E+01 -0.23215478150E+02  0.91014834264E+02  0.83947060300E+02 0.  0.
         -6    2    1    2    0  502  0.57505120739E+02 -0.15710410235E+03 -0.12836606891E+02  0.24123069937E+03  0.17331743697E+03 0.  0.
        -24    2    5    5    0    0  0.15359632345E+02 -0.17584186867E+03 -0.17676068942E+02  0.19461679080E+03  0.80043555423E+02 0.  0.
          5    1    3    3  501    0 -0.33052644369E+02  0.14711865810E+03 -0.53501686778E+02  0.16006529089E+03  0.47000000000E+01 0. -1.
        -13    1    4    4    0    0 -0.24361213829E+02  0.39423342885E+02  0.91784248411E+01  0.47243117870E+02  0.00000000000E+00 0.  1.
         14    1    4    4    0    0 -0.91262540436E-01 -0.29437898639E+02 -0.32393902991E+02  0.43771716394E+02  0.00000000000E+00 0. -1.
         -5    1    5    5    0  502  0.42145488394E+02  0.18737766328E+02  0.48394620510E+01  0.46613908567E+02  0.47000000000E+01 0.  1.
         11    1    6    6    0    0 -0.70906147952E+01 -0.13501521840E+03  0.17373909730E+02  0.13631301756E+03  0.00000000000E+00 0. -1.
        -12    1    6    6    0    0  0.22450247140E+02 -0.40826650278E+02 -0.35049978672E+02  0.58303773244E+02  0.00000000000E+00 0.  1.
</event>
<event>
12    1  0.1683022E-002  0.1786630E+03  0.7818608E-02  0.1169813E+00
         21   -1    0    0  503  502  0.00000000000E+00  0.00000000000E+00  0.67643639900E+03  0.67643639900E+03  0.00000000000E+00 0. -1.
         21   -1    0    0  501  503 -0.00000000000E+00 -0.00000000000E+00 -0.46721387056E+02  0.46721387056E+02  0.00000000000E+00 0.  1.
          6    2    1    2  501    0  0.54303052666E+02  0.19887666430E+01  0.28383442324E+03  0.33385859781E+03  0.16717298465E+03 0.  0.
         24    2    3    3    0    0  0.71427737433E+02  0.41658465190E+02  0.12491521623E+03  0.16910319071E+03  0.78452077523E+02 0.  0.
         -6    2    1    2    0  502 -0.54303052666E+02 -0.19887666430E+01  0.34588058870E+03  0.38929918824E+03  0.17019900000E+03 0.  0.
        -24    2    5    5    0    0  0.27873565096E+02 -0.17498789349E+02  0.22070846087E+03  0.23868807013E+03  0.84714974266E+02 0.  0.
          5    1    3    3  501    0 -0.17124684767E+02 -0.39669698547E+02  0.15891920701E+03  0.16475540710E+03  0.47000000000E+01 0. -1.
        -13    1    4    4    0    0  0.56051775483E+02  0.53533924113E+02  0.12779474122E+03  0.14946296682E+03  0.00000000000E+00 0.  1.
         14    1    4    4    0    0  0.15375961950E+02 -0.11875458923E+02 -0.28795249948E+01  0.19640223897E+02  0.00000000000E+00 0. -1.
         -5    1    5    5    0  502 -0.82176617762E+02  0.15510022706E+02  0.12517212783E+03  0.15061111811E+03  0.47000000000E+01 0.  1.
         13    1    6    6    0    0 -0.83578464608E+01  0.78495769838E+01  0.17396936751E+03  0.17434681037E+03  0.00000000000E+00 0. -1.
        -14    1    6    6    0    0  0.36231411557E+02 -0.25348366333E+02  0.46739093357E+02  0.64341259756E+02  0.00000000000E+00 0.  1.
</event>
<event>
12    1  0.1683022E-002  0.1802692E+03  0.7818608E-02  0.1167581E+00
         21   -1    0    0  503  502  0.00000000000E+00  0.00000000000E+00  0.78687563009E+03  0.78687563009E+03  0.00000000000E+00 0. -1.
         21   -1    0    0  501  503 -0.00000000000E+00 -0.00000000000E+00 -0.42073582216E+02  0.42073582216E+02  0.00000000000E+00 0. -1.
          6    2    1    2  501    0  0.19345201327E+02 -0.50873086756E+02  0.31467736770E+03  0.36257574203E+03  0.17168871598E+03 0.  0.
         24    2    3    3    0    0  0.38156086774E+00 -0.64285255841E+02  0.32104092389E+03  0.33803820372E+03  0.84082177960E+02 0.  0.
         -6    2    1    2    0  502 -0.19345201327E+02  0.50873086756E+02  0.43012468017E+03  0.46637347027E+03  0.17185652595E+03 0.  0.
        -24    2    5    5    0    0  0.45809288861E+02  0.49853790109E+02  0.19101861479E+03  0.21850264290E+03  0.81678653429E+02 0.  0.
          5    1    3    3  501    0  0.18963640459E+02  0.13412169085E+02 -0.63635561946E+01  0.24537538313E+02  0.47000000000E+01 0. -1.
        -13    1    4    4    0    0 -0.65345052862E+01 -0.25726861516E+02  0.17081805713E+02  0.31565158786E+02  0.00000000000E+00 0.  1.
         14    1    4    4    0    0  0.69160661540E+01 -0.38558394325E+02  0.30395911818E+03  0.30647304493E+03  0.00000000000E+00 0. -1.
         -5    1    5    5    0  502 -0.65154490187E+02  0.10192966468E+01  0.23910606539E+03  0.24787082737E+03  0.47000000000E+01 0.  1.
         13    1    6    6    0    0  0.21657028563E+02 -0.18744218372E+02  0.86910241952E+02  0.91508266100E+02  0.00000000000E+00 0. -1.
        -14    1    6    6    0    0  0.24152260298E+02  0.68598008480E+02  0.10410837283E+03  0.12699437680E+03  0.00000000000E+00 0.  1.
</event>
<event>
12    1  0.1683022E-002  0.1771393E+03  0.7818608E-02  0.1170913E+00
         21   -1    0    0  503  502  0.00000000000E+00  0.00000000000E+00  0.15225133382E+04  0.15225133382E+04  0.00000000000E+00 0.  1.
         21   -1    0    0  501  503 -0.00000000000E+00 -0.00000000000E+00 -0.28116413219E+02  0.28116413219E+02  0.00000000000E+00 0.  1.
          6    2    1    2  501    0 -0.21974370240E+02 -0.28539272804E+02  0.34464335286E+03  0.38750144216E+03  0.17343864611E+03 0.  0.
         24    2    3    3    0    0  0.20221649401E+02 -0.67644632650E+02  0.29257814768E+03  0.30976722297E+03  0.73273791330E+02 0.  0.
         -6    2    1    2    0  502  0.21974370240E+02  0.28539272804E+02  0.11497535721E+04  0.11631283093E+04  0.17215349012E+03 0.  0.
        -24    2    5    5    0    0  0.67446396944E+02 -0.22452334941E+02  0.61431577985E+03  0.62332874584E+03  0.78113534154E+02 0.  0.
          5    1    3    3  501    0 -0.42196019641E+02  0.39105359846E+02  0.52065205177E+02  0.77734219185E+02  0.47000000000E+01 0. -1.
        -11    1    4    4    0    0 -0.27781122544E+02 -0.28507848120E+02  0.11686807296E+03  0.12346106532E+03  0.00000000000E+00 0.  1.
         12    1    4    4    0    0  0.48002771945E+02 -0.39136784530E+02  0.17571007473E+03  0.18630615765E+03  0.00000000000E+00 0. -1.
         -5    1    5    5    0  502 -0.45472026704E+02  0.50991607745E+02  0.53543779229E+03  0.53979956343E+03  0.47000000000E+01 0.  1.
         11    1    6    6    0    0 -0.39408980399E+01  0.14336404284E+02  0.29607699694E+02  0.33131239734E+02  0.00000000000E+00 0. -1.
        -12    1    6    6    0    0  0.71387294984E+02 -0.36788739225E+02  0.58470808015E+03  0.59019750611E+03  0.00000000000E+00 0.  1.
</event>
<event>
12    1  0.1683022E-002  0.1734041E+03  0.7818608E-02  0.1174401E+00
         21   -1    0    0  503  502  0.00000000000E+00  0.00000000000E+00  0.27302718200E+03  0.27302718200E+03  0.00000000000E+00 0.  1.
         21   -1    0    0  501  503 -0.00000000000E+00 -0.00000000000E+00 -0.11325121068E+03  0.11325121068E+03  0.00000000000E+00 0.  1.
          6    2    1    2  501    0 -0.10257775448E+02  0.21485969776E+02  0.11272509079E+03  0.20682339687E+03  0.17176176100E+03 0.  0.
         24    2    3    3    0    0  0.24632546783E+02  0.61704095485E+02  0.11255831355E+03  0.15337295220E+03  0.80247933034E+02 0.  0.
         -6    2    1    2    0  502  0.10257775448E+02 -0.21485969776E+02  0.47050880530E+02  0.17945499581E+03  0.17153262462E+03 0.  0.
        -24    2    5    5    0    0 -0.59692472406E+02 -0.25714204207E+02  0.45315119948E+01  0.97352000484E+02  0.72335785316E+02 0.  0.
          5    1    3    3  501    0 -0.34890322231E+02 -0.40218125709E+02  0.16677724559E+00  0.53450444671E+02  0.47000000000E+01 0. -1.
        -11    1    4    4    0    0 -0.12872432230E+02  0.40897287217E+02  0.12736514052E+02  0.44727020954E+02  0.00000000000E+00 0.  1.
         12    1    4    4    0    0  0.37504979013E+02  0.20806808267E+02  0.99821799496E+02  0.10864593124E+03  0.00000000000E+00 0. -1.
         -5    1    5    5    0  502  0.69950247854E+02  0.42282344308E+01  0.42519368535E+02  0.82102995328E+02  0.47000000000E+01 0.  1.
         11    1    6    6    0    0 -0.36093049571E+02 -0.40100732978E+02 -0.22717547553E+02  0.58539422439E+02  0.00000000000E+00 0. -1.
        -12    1    6    6    0    0 -0.23599422835E+02  0.14386528771E+02  0.27249059548E+02  0.38812578044E+02  0.00000000000E+00 0.  1.
</event>
<event>
12    1  0.1683022E-002  0.1736051E+03  0.7818608E-02  0.1174372E+00
         21   -1    0    0  503  502  0.00000000000E+00  0.00000000000E+00  0.21131196875E+03  0.21131196875E+03  0.00000000000E+00 0. -1.
         21   -1    0    0  501  503 -0.00000000000E+00 -0.00000000000E+00 -0.16696728013E+03  0.16696728013E+03  0.00000000000E+00 0. -1.
          6    2    1    2  501    0  0.19604621920E+02 -0.12778294907E+02  0.95539188957E+02  0.19815770849E+03  0.17202068128E+03 0.  0.
         24    2    3    3    0    0  0.11380031000E+02 -0.70259094385E+02  0.90400264911E+02  0.13967536291E+03  0.79190615980E+02 0.  0.
         -6    2    1    2    0  502 -0.19604621920E+02  0.12778294907E+02 -0.51194500335E+02  0.18012154038E+03  0.17110016488E+03 0.  0.
        -24    2    5    5    0    0 -0.42744448149E+02  0.42747178327E+02 -0.83501566285E+02  0.13012732030E+03  0.79411578582E+02 0.  0.
          5    1    3    3  501    0  0.82245909196E+01  0.57480799478E+02  0.51389240461E+01  0.58482345582E+02  0.47000000000E+01 0. -1.
        -13    1    4    4    0    0  0.18466916713E+02 -0.29018124357E+02  0.91566557238E+02  0.97813664478E+02  0.00000000000E+00 0.  1.
         14    1    4    4    0    0 -0.70868857135E+01 -0.41240970028E+02 -0.11662923279E+01  0.41861698434E+02  0.00000000000E+00 0. -1.
         -5    1    5    5    0  502  0.23139826230E+02 -0.29968883420E+02  0.32307065950E+02  0.49994220082E+02  0.47000000000E+01 0.  1.
         13    1    6    6    0    0 -0.37421741736E+02 -0.66546023529E+01 -0.66111482420E+01  0.38579499324E+02  0.00000000000E+00 0. -1.
        -14    1    6    6    0    0 -0.53227064138E+01  0.49401780680E+02 -0.76890418043E+02  0.91547820972E+02  0.00000000000E+00 0.  1.
</event>
<event>
12    1  0.1683022E-002  0.1996547E+03  0.7818608E-02  0.1150484E+00
         21   -1    0    0  501  502  0.00000000000E+00  0.00000000000E+00  0.12914181624E+03  0.12914181624E+03  0.00000000000E+00 0.  1.
         21   -1    0    0  502  503 -0.00000000000E+00 -0.00000000000E+00 -0.36969123936E+03  0.36969123936E+03  0.00000000000E+00 0.  1.
          6    2    1    2  501    0  0.70812705204E+02 -0.67863901824E+02 -0.22376925978E+03  0.29847445011E+03  0.17144785608E+03 0.  0.
         24    2    3    3    0    0  0.40955731717E+02 -0.23380115484E+01 -0.18311633025E+03  0.21565034829E+03  0.10625744236E+03 0.  0.
         -6    2    1    2    0  503 -0.70812705204E+02  0.67863901824E+02 -0.16780163336E+02  0.20035860550E+03  0.17390241093E+03 0.  0.
        -24    2    5    5    0    0 -0.13246399250E+01 -0.25528519001E+02 -0.48069562642E+01  0.83242495711E+02  0.79074308788E+02 0.  0.
          5    1    3    3  501    0  0.29856973487E+02 -0.65525890276E+02 -0.40652929536E+02  0.82824101819E+02  0.47000000000E+01 0. -1.
        -13    1    4    4    0    0 -0.17953851057E+02  0.15732406995E+02 -0.13600793070E+03  0.13808695308E+03  0.00000000000E+00 0.  1.
         14    1    4    4    0    0  0.58909582774E+02 -0.18070418543E+02 -0.47108399548E+02  0.77563395213E+02  0.00000000000E+00 0. -1.
         -5    1    5    5    0  503 -0.69488065279E+02  0.93392420825E+02 -0.11973207071E+02  0.11711610979E+03  0.47000000000E+01 0.  1.
         11    1    6    6    0    0  0.93112862070E+01  0.23370072150E+02 -0.18656152524E+02  0.31319520273E+02  0.00000000000E+00 0. -1.
        -12    1    6    6    0    0 -0.10635926132E+02 -0.48898591151E+02  0.13849196260E+02  0.51922975438E+02  0.00000000000E+00 0.  1.
</event>
<event>
12    1  0.1683022E-002  0.1779030E+03  0.7818608E-02  0.1171662E+00
         21   -1    0    0  503  502  0.00000000000E+00  0.00000000000E+00  0.73747081884E+02  0.73747081884E+02  0.00000000000E+00 0.  1.
         21   -1    0    0  501  503 -0.00000000000E+00 -0.00000000000E+00 -0.43178396172E+03  0.43178396172E+03  0.00000000000E+00 0.  1.
          6    2    1    2  501    0 -0.14090186639E+02  0.16388269704E+02 -0.23676663018E+03  0.29615520031E+03  0.17658526768E+03 0.  0.
         24    2    3    3    0    0  0.17743680155E+02  0.31349699064E+02 -0.24429590059E+03  0.25987821922E+03  0.80984936654E+02 0.  0.
         -6    2    1    2    0  502  0.14090186639E+02 -0.16388269704E+02 -0.12127024966E+03  0.20937584330E+03  0.16930641323E+03 0.  0.
        -24    2    5    5    0    0  0.46727826726E+02 -0.52621296904E+02 -0.11571683089E+03  0.16007089151E+03  0.85321830035E+02 0.  0.
          5    1    3    3  501    0 -0.31833866794E+02 -0.14961429360E+02  0.75292704136E+01  0.36276981083E+02  0.47000000000E+01 0. -1.
        -11    1    4    4    0    0  0.17173119975E+02  0.12604811187E+02 -0.78701147101E+01  0.22709822110E+02  0.00000000000E+00 0.  1.
         12    1    4    4    0    0  0.57056018062E+00  0.18744887876E+02 -0.23642578588E+03  0.23716839711E+03  0.00000000000E+00 0. -1.
         -5    1    5    5    0  502 -0.32637640088E+02  0.36233027200E+02 -0.55534187743E+01  0.49304951786E+02  0.47000000000E+01 0.  1.
         11    1    6    6    0    0  0.25908002229E+02 -0.34330672179E+02 -0.20325546115E+01  0.43057530236E+02  0.00000000000E+00 0. -1.
        -12    1    6    6    0    0  0.20819824497E+02 -0.18290624725E+02 -0.11368427627E+03  0.11701336128E+03  0.00000000000E+00 0.  1.
</event>
<event>
12    1  0.1683022E-002  0.2024029E+03  0.7818608E-02  0.1148334E+00
         21   -1    0    0  501  502  0.00000000000E+00  0.00000000000E+00  0.14544112676E+03  0.14544112676E+03  0.00000000000E+00 0. -1.
         21   -1    0    0  502  503 -0.00000000000E+00 -0.00000000000E+00 -0.41860691320E+03  0.41860691320E+03  0.00000000000E+00 0. -1.
          6    2    1    2  501    0 -0.30582650779E+02 -0.10231829692E+03  0.26412125872E+02  0.20411896952E+03  0.17193784026E+03 0.  0.
         24    2    3    3    0    0 -0.70221444442E+02 -0.85032591420E+02  0.69012997505E+02  0.14323421083E+03  0.59930396825E+02 0.  0.
         -6    2    1    2    0  503  0.30582650779E+02  0.10231829692E+03 -0.29957791232E+03  0.35992907043E+03  0.16851610541E+03 0.  0.
        -24    2    5    5    0    0 -0.19038877755E+02  0.10311132046E+03 -0.13346341377E+03  0.18649596631E+03  0.77290616252E+02 0.  0.
          5    1    3    3  501    0  0.39638793663E+02 -0.17285705503E+02 -0.42600871633E+02  0.60884758698E+02  0.47000000000E+01 0. -1.
        -13    1    4    4    0    0 -0.18411928491E+01 -0.27428784493E+02  0.41329093856E+02  0.49636903699E+02  0.00000000000E+00 0.  1.
         14    1    4    4    0    0 -0.68380251593E+02 -0.57603806927E+02  0.27683903649E+02  0.93597307128E+02  0.00000000000E+00 0. -1.
         -5    1    5    5    0  503  0.49621528534E+02 -0.79302353483E+00 -0.16611449854E+03  0.17343310413E+03  0.47000000000E+01 0.  1.
         11    1    6    6    0    0  0.16622439836E+01 -0.94326178262E+01 -0.32530253367E+02  0.33910982266E+02  0.00000000000E+00 0. -1.
        -12    1    6    6    0    0 -0.20701121738E+02  0.11254393828E+03 -0.10093316041E+03  0.15258498404E+03  0.00000000000E+00 0.  1.
</event>
<event>
12    1  0.1683022E-002  0.2368528E+03  0.7818608E-02  0.1121977E+00
         21   -1    0    0  501  502  0.00000000000E+00  0.00000000000E+00  0.58537449019E+03  0.58537449019E+03  0.00000000000E+00 0.  1.
         21   -1    0    0  502  503 -0.00000000000E+00 -0.00000000000E+00 -0.95692314182E+02  0.95692314182E+02  0.00000000000E+00 0. -1.
          6    2    1    2  501    0 -0.16297405506E+03  0.12335681913E+01  0.25046741408E+03  0.34472187156E+03  0.17186383826E+03 0.  0.
         24    2    3    3    0    0 -0.17762204612E+03  0.25728034435E+02  0.24642971049E+03  0.31551681089E+03  0.81312561856E+02 0.  0.
         -6    2    1    2    0  503  0.16297405506E+03 -0.12335681913E+01  0.23921476194E+03  0.33634493282E+03  0.17129549670E+03 0.  0.
        -24    2    5    5    0    0  0.89639935875E+02  0.51553075581E+02  0.19869670416E+03  0.23720802847E+03  0.78065554636E+02 0.  0.
          5    1    3    3  501    0  0.14647991057E+02 -0.24494466244E+02  0.40377035850E+01  0.29205060672E+02  0.47000000000E+01 0. -1.
        -13    1    4    4    0    0 -0.12761957967E+03  0.35435764163E+01  0.10997138725E+03  0.16850228504E+03  0.00000000000E+00 0.  1.
         14    1    4    4    0    0 -0.50002466449E+02  0.22184458019E+02  0.13645832324E+03  0.14701452585E+03  0.00000000000E+00 0. -1.
         -5    1    5    5    0  503  0.73334119188E+02 -0.52786643773E+02  0.40518057778E+02  0.99136904349E+02  0.47000000000E+01 0.  1.
         13    1    6    6    0    0  0.66766488656E+02 -0.31992719675E+01  0.78066469014E+02  0.10277340577E+03  0.00000000000E+00 0. -1.
        -14    1    6    6    0    0  0.22873447219E+02  0.54752347549E+02  0.12063023515E+03  0.13443462270E+03  0.00000000000E+00 0.  1.
</event>
<event>
12    1  0.1683022E-002  0.2228639E+03  0.7818608E-02  0.1132590E+00
         21   -1    0    0  501  502  0.00000000000E+00  0.00000000000E+00  0.21381642720E+03  0.21381642720E+03  0.00000000000E+00 0. -1.
         21   -1    0    0  502  503 -0.00000000000E+00 -0.00000000000E+00 -0.23741016758E+03  0.23741016758E+03  0.00000000000E+00 0. -1.
          6    2    1    2  501    0  0.31690450947E+02  0.12920018211E+03 -0.57585403209E+02  0.23018336958E+03  0.17880529419E+03 0.  0.
         24    2    3    3    0    0  0.86929717139E+02  0.97115195388E+02 -0.66784478154E+02  0.16547219680E+03  0.77024311066E+02 0.  0.
         -6    2    1    2    0  503 -0.31690450947E+02 -0.12920018211E+03  0.33991662835E+02  0.22104322520E+03  0.17322731460E+03 0.  0.
        -24    2    5    5    0    0  0.16386922871E+01 -0.72056399488E+01 -0.24126803609E+02  0.81783230048E+02  0.77793235601E+02 0.  0.
          5    1    3    3  501    0 -0.55239266193E+02  0.32084986726E+02  0.91990749452E+01  0.64711172780E+02  0.47000000000E+01 0. -1.
        -13    1    4    4    0    0  0.47446083280E+02  0.58394368083E+02  0.43555452258E+01  0.75365800047E+02  0.00000000000E+00 0.  1.
         14    1    4    4    0    0  0.39483633859E+02  0.38720827305E+02 -0.71140023380E+02  0.90106396756E+02  0.00000000000E+00 0. -1.
         -5    1    5    5    0  503 -0.33329143234E+02 -0.12199454216E+03  0.58118466444E+02  0.13925999515E+03  0.47000000000E+01 0.  1.
         13    1    6    6    0    0  0.24395041301E+02 -0.31984925202E+02 -0.26314853226E+02  0.48068960677E+02  0.00000000000E+00 0. -1.
        -14    1    6    6    0    0 -0.22756349014E+02  0.24779285253E+02  0.21880496171E+01  0.33714269371E+02  0.00000000000E+00 0.  1.
</event>
<event>
12    1  0.1683022E-002  0.2152291E+03  0.7818608E-02  0.1137562E+00
         21   -1    0    0  501  502  0.00000000000E+00  0.00000000000E+00  0.30807424048E+03  0.30807424048E+03  0.00000000000E+00 0.  1.
         21   -1    0    0  502  503 -0.00000000000E+00 -0.00000000000E+00 -0.18965462167E+03  0.18965462167E+03  0.00000000000E+00 0. -1.
          6    2    1    2  501    0  0.75479899418E+02 -0.10489553445E+03  0.17281572326E+03  0.27573223655E+03  0.17164703232E+03 0.  0.
         24    2    3    3    0    0  0.73003322510E+02 -0.52542347809E+01  0.51427937935E+02  0.11859660578E+03  0.77866745284E+02 0.  0.
         -6    2    1    2    0  503 -0.75479899418E+02  0.10489553445E+03 -0.54396104455E+02  0.22199662559E+03  0.17211414013E+03 0.  0.
        -24    2    5    5    0    0  0.21920814872E+02  0.20427801035E+02 -0.23167143422E+02  0.89259911984E+02  0.80825727174E+02 0.  0.
          5    1    3    3  501    0  0.24765769077E+01 -0.99641299670E+02  0.12138778533E+03  0.15713563078E+03  0.47000000000E+01 0. -1.
        -11    1    4    4    0    0  0.38749653818E+02 -0.12550487898E+02  0.68453731589E+02  0.79655280967E+02  0.00000000000E+00 0.  1.
         12    1    4    4    0    0  0.34253668692E+02  0.72962531169E+01 -0.17025793655E+02  0.38941324810E+02  0.00000000000E+00 0. -1.
         -5    1    5    5    0  503 -0.97400714290E+02  0.84467733417E+02 -0.31228961033E+02  0.13273671361E+03  0.47000000000E+01 0.  1.
         13    1    6    6    0    0 -0.51148411838E+01 -0.28997372752E+02 -0.12166923697E+02  0.31859743550E+02  0.00000000000E+00 0. -1.
        -14    1    6    6    0    0  0.27035656056E+02  0.49425173786E+02 -0.11000219725E+02  0.57400168434E+02  0.00000000000E+00 0.  1.
</event>
<event>
12    1  0.1683022E-002  0.1814634E+03  0.7818608E-02  0.1167384E+00
         21   -1    0    0  501  502  0.00000000000E+00  0.00000000000E+00  0.69043819141E+02  0.69043819141E+02  0.00000000000E+00 0.  1.
         21   -1    0    0  502  503 -0.00000000000E+00 -0.00000000000E+00 -0.47792360150E+03  0.47792360150E+03  0.00000000000E+00 0.  1.
          6    2    1    2  501    0 -0.19492188272E+02  0.41640141435E+02 -0.24489868156E+03  0.30238865314E+03  0.17131750213E+03 0.  0.
         24    2    3    3    0    0  0.52180562035E+02  0.30420548122E+02 -0.17869180756E+03  0.20406112610E+03  0.77858591627E+02 0.  0.
         -6    2    1    2    0  503  0.19492188272E+02 -0.41640141435E+02 -0.16398110080E+03  0.24457876750E+03  0.17554237468E+03 0.  0.
        -24    2    5    5    0    0  0.73974006866E+02 -0.46654695420E+02 -0.74308776029E+02  0.13942825567E+03  0.79180995111E+02 0.  0.
          5    1    3    3  501    0 -0.71672750307E+02  0.11219593313E+02 -0.66206873993E+02  0.98327527044E+02  0.47000000000E+01 0. -1.
        -11    1    4    4    0    0  0.51966086587E+02  0.49085176539E+02 -0.16793944895E+03  0.18251982694E+03  0.00000000000E+00 0.  1.
         12    1    4    4    0    0  0.21447544845E+00 -0.18664628417E+02 -0.10752358612E+02  0.21541299157E+02  0.00000000000E+00 0. -1.
         -5    1    5    5    0  503 -0.54481818594E+02  0.50145539854E+01 -0.89672324771E+02  0.10515051183E+03  0.47000000000E+01 0.  1.
         13    1    6    6    0    0  0.17550121344E+02 -0.56510555846E+02 -0.48915589279E+02  0.76773592828E+02  0.00000000000E+00 0. -1.
        -14    1    6    6    0    0  0.56423885522E+02  0.98558604258E+01 -0.25393186751E+02  0.62654662839E+02  0.00000000000E+00 0.  1.
</event>
<event>
12    1  0.1683022E-002  0.1854219E+03  0.7818608E-02  0.1163157E+00
         21   -1    0    0  503  502  0.00000000000E+00  0.00000000000E+00  0.41979957328E+03  0.41979957328E+03  0.00000000000E+00 0.  1.
         21   -1    0    0  501  503 -0.00000000000E+00 -0.00000000000E+00 -0.81319336112E+02  0.81319336112E+02  0.00000000000E+00 0.  1.
          6    2    1    2  501    0  0.18082033961E+02 -0.60478782943E+02  0.18497965970E+03  0.26040391631E+03  0.17206999154E+03 0.  0.
         24    2    3    3    0    0 -0.38106746708E+02 -0.83070271077E+02  0.13098257552E+03  0.17913073802E+03  0.81108520714E+02 0.  0.
         -6    2    1    2    0  502 -0.18082033961E+02  0.60478782943E+02  0.15350057746E+03  0.24071499308E+03  0.17434631477E+03 0.  0.
        -24    2    5    5    0    0  0.18354411370E+02  0.46340738303E+02  0.17236061909E+03  0.19706536508E+03  0.81499856788E+02 0.  0.
          5    1    3    3  501    0  0.56188780669E+02  0.22591488133E+02  0.53997084183E+02  0.81273178290E+02  0.47000000000E+01 0. -1.
        -13    1    4    4    0    0 -0.13595012980E+02 -0.86107715184E+02  0.12710841808E+03  0.15412953299E+03  0.00000000000E+00 0.  1.
         14    1    4    4    0    0 -0.24511733729E+02  0.30374441069E+01  0.38741574358E+01  0.25001205029E+02  0.00000000000E+00 0. -1.
         -5    1    5    5    0  502 -0.36436445331E+02  0.14138044641E+02 -0.18860041627E+02  0.43649628003E+02  0.47000000000E+01 0.  1.
         13    1    6    6    0    0 -0.27661993913E+02  0.24065170619E+00  0.74870806211E+02  0.79817801543E+02  0.00000000000E+00 0. -1.
        -14    1    6    6    0    0  0.46016405283E+02  0.46100086596E+02  0.97489812878E+02  0.11724756353E+03  0.00000000000E+00 0.  1.
</event>
<event>
12    1  0.1683022E-002  0.1787645E+03  0.7818608E-02  0.1169276E+00
         21   -1    0    0  501  502  0.00000000000E+00  0.00000000000E+00  0.12815341293E+04  0.12815341293E+04  0.00000000000E+00 0.  1.
         21   -1    0    0  502  503 -0.00000000000E+00 -0.00000000000E+00 -0.24907291778E+02  0.24907291778E+02  0.00000000000E+00 0.  1.
          6    2    1    2  501    0 -0.37070141046E+02 -0.35148179685E+02  0.67274011199E+03  0.69580204687E+03  0.17015181531E+03 0.  0.
         24    2    3    3    0    0 -0.83913179243E+02 -0.21634797611E+02  0.35059202478E+03  0.36995183310E+03  0.80250263882E+02 0.  0.
         -6    2    1    2    0  503  0.37070141046E+02  0.35148179685E+02  0.58388672557E+03  0.61063937425E+03  0.17131009075E+03 0.  0.
        -24    2    5    5    0    0  0.75560220755E+02  0.66577443164E+02  0.42192728475E+03  0.44116301805E+03  0.80375817139E+02 0.  0.
          5    1    3    3  501    0  0.46843038198E+02 -0.13513382074E+02  0.32214808721E+03  0.32585021377E+03  0.47000000000E+01 0. -1.
        -11    1    4    4    0    0 -0.81686833260E+02 -0.45926587674E+02  0.27719916765E+03  0.29261129290E+03  0.00000000000E+00 0.  1.
         12    1    4    4    0    0 -0.22263459836E+01  0.24291790064E+02  0.73392857128E+02  0.77340540200E+02  0.00000000000E+00 0. -1.
         -5    1    5    5    0  503 -0.38490079710E+02 -0.31429263479E+02  0.16195944082E+03  0.16947635619E+03  0.47000000000E+01 0.  1.
         11    1    6    6    0    0  0.48666349496E+02  0.11734652617E+02  0.84211669310E+02  0.97967958503E+02  0.00000000000E+00 0. -1.
        -12    1    6    6    0    0  0.26893871260E+02  0.54842790547E+02  0.33771561544E+03  0.34319505955E+03  0.00000000000E+00 0.  1.
</event>
<event>
12    1  0.1683022E-002  0.2265241E+03  0.7818608E-02  0.1129204E+00
         21   -1    0    0  503  502  0.00000000000E+00  0.00000000000E+00  0.56953563831E+02  0.56953563831E+02  0.00000000000E+00 0. -1.
         21   -1    0    0  501  503 -0.00000000000E+00 -0.00000000000E+00 -0.89965556790E+03  0.89965556790E+03  0.00000000000E+00 0. -1.
          6    2    1    2  501    0 -0.28232803214E+02 -0.14481293637E+03 -0.43566065326E+03  0.49103295571E+03  0.17188740813E+03 0.  0.
         24    2    3    3    0    0 -0.53690220906E+02 -0.16635019118E+03 -0.38335055741E+03  0.42882066120E+03  0.79840363721E+02 0.  0.
         -6    2    1    2    0  502  0.28232803214E+02  0.14481293637E+03 -0.40704135082E+03  0.46557617603E+03  0.17120349499E+03 0.  0.
        -24    2    5    5    0    0  0.50290095920E+01  0.20791491525E+01 -0.18653833623E+03  0.20184331972E+03  0.76906183345E+02 0.  0.
          5    1    3    3  501    0  0.25457417692E+02  0.21537254807E+02 -0.52310095847E+02  0.62212294506E+02  0.47000000000E+01 0. -1.
        -11    1    4    4    0    0 -0.19395303870E+01  0.88872056641E+01 -0.13236291898E+02  0.16060623457E+02  0.00000000000E+00 0.  1.
         12    1    4    4    0    0 -0.51750690519E+02 -0.17523739684E+03 -0.37011426551E+03  0.41276003774E+03  0.00000000000E+00 0. -1.
         -5    1    5    5    0  502  0.23203793622E+02  0.14273378722E+03 -0.22050301459E+03  0.26373285631E+03  0.47000000000E+01 0.  1.
         13    1    6    6    0    0 -0.35970703888E+02  0.22089435965E+01 -0.91247302039E+02  0.98106274516E+02  0.00000000000E+00 0. -1.
        -14    1    6    6    0    0  0.40999713480E+02 -0.12979444402E+00 -0.95291034186E+02  0.10373704521E+03  0.00000000000E+00 0.  1.
</event>
<event>
12    1  0.1683022E-002  0.1958915E+03  0.7818608E-02  0.1153400E+00
         21   -1    0    0  503  502  0.00000000000E+00  0.00000000000E+00  0.10694557690E+03  0.10694557690E+03  0.00000000000E+00 0. -1.
         21   -1    0    0  501  503 -0.00000000000E+00 -0.00000000000E+00 -0.40532817460E+03  0.40532817460E+03  0.00000000000E+00 0. -1.
          6    2    1    2  501    0  0.71148352237E+02  0.60093166377E+02 -0.23733784060E+03  0.30773808447E+03  0.17233746365E+03 0.  0.
         24    2    3    3    0    0  0.83622320658E+02  0.61273022434E+02 -0.87894254540E+02  0.15769653234E+03  0.79973248911E+02 0.  0.
         -6    2    1    2    0  502 -0.71148352237E+02 -0.60093166377E+02 -0.61044757094E+02  0.20453566704E+03  0.17156660529E+03 0.  0.
        -24    2    5    5    0    0 -0.49875345609E+02 -0.10695507201E+03 -0.44181562207E+02  0.15017542097E+03  0.81692772620E+02 0.  0.
          5    1    3    3  501    0 -0.12473968422E+02 -0.11798560566E+01 -0.14944358606E+03  0.15004155212E+03  0.47000000000E+01 0. -1.
        -13    1    4    4    0    0  0.43762798240E+02  0.58444228628E+02 -0.14955617575E+02  0.74529060552E+02  0.00000000000E+00 0.  1.
         14    1    4    4    0    0  0.39859522418E+02  0.28287938061E+01 -0.72938636965E+02  0.83167471791E+02  0.00000000000E+00 0. -1.
         -5    1    5    5    0  502 -0.21273006628E+02  0.46861905628E+02 -0.16863194887E+02  0.54360246062E+02  0.47000000000E+01 0.  1.
         11    1    6    6    0    0 -0.62607659600E+02 -0.39290805937E+02 -0.30588712435E+02  0.79994723578E+02  0.00000000000E+00 0. -1.
        -12    1    6    6    0    0  0.12732313992E+02 -0.67664266068E+02 -0.13592849772E+02  0.70180697396E+02  0.00000000000E+00 0.  1.
</event>
<event>
12    1  0.1683022E-002  0.2920956E+03  0.7818608E-02  0.1091398E+00
         21   -1    0    0  503  502  0.00000000000E+00  0.00000000000E+00  0.10569748897E+03  0.10569748897E+03  0.00000000000E+00 0. -1.
         21   -1    0    0  501  503 -0.00000000000E+00 -0.00000000000E+00 -0.77953797849E+03  0.77953797849E+03  0.00000000000E+00 0.  1.
          6    2    1    2  501    0  0.87062963670E+01  0.21871212023E+03 -0.40971917666E+03  0.50317954973E+03  0.19341423012E+03 0.  0.
         24    2    3    3    0    0 -0.22076451300E+01  0.24120967356E+03 -0.31648055026E+03  0.40653181061E+03  0.83193713880E+02 0.  0.
         -6    2    1    2    0  502 -0.87062963670E+01 -0.21871212023E+03 -0.26412131286E+03  0.38205591773E+03  0.16821374866E+03 0.  0.
        -24    2    5    5    0    0  0.50224042298E+02 -0.81413564293E+02 -0.13714499005E+03  0.18592138525E+03  0.81285855614E+02 0.  0.
          5    1    3    3  501    0  0.10913941497E+02 -0.22497553329E+02 -0.93238626395E+02  0.96647739119E+02  0.47000000000E+01 0. -1.
        -13    1    4    4    0    0  0.97741827234E+01  0.16831422178E+03 -0.27284631684E+03  0.32073404015E+03  0.00000000000E+00 0.  1.
         14    1    4    4    0    0 -0.11981827853E+02  0.72895451780E+02 -0.43634233422E+02  0.85797770456E+02  0.00000000000E+00 0. -1.
         -5    1    5    5    0  502 -0.58930338665E+02 -0.13729855594E+03 -0.12697632281E+03  0.19613453248E+03  0.47000000000E+01 0.  1.
         11    1    6    6    0    0  0.12943332211E+02 -0.73098136811E+02 -0.46600276496E+02  0.87649604811E+02  0.00000000000E+00 0. -1.
        -12    1    6    6    0    0  0.37280710087E+02 -0.83154274818E+01 -0.90544713549E+02  0.98271780438E+02  0.00000000000E+00 0.  1.
</event>
<event>
12    1  0.1683022E-002  0.1742457E+03  0.7818608E-02  0.1173904E+00
         21   -1    0    0  503  502  0.00000000000E+00  0.00000000000E+00  0.11279911918E+04  0.11279911918E+04  0.00000000000E+00 0. -1.
         21   -1    0    0  501  503 -0.00000000000E+00 -0.00000000000E+00 -0.33001358343E+02  0.33001358343E+02  0.00000000000E+00 0. -1.
          6    2    1    2  501    0 -0.17452935901E+01 -0.10224608175E+02  0.29106957348E+03  0.33840557197E+03  0.17230567568E+03 0.  0.
         24    2    3    3    0    0 -0.38313111810E+02  0.46648430352E+02  0.20177828879E+03  0.22630396019E+03  0.82795132592E+02 0.  0.
         -6    2    1    2    0  502  0.17452935901E+01  0.10224608175E+02  0.80392025995E+03  0.82258697815E+03  0.17393666549E+03 0.  0.
        -24    2    5    5    0    0 -0.19618003814E+02  0.35482967425E+02  0.76907887158E+03  0.77431289057E+03  0.80213681777E+02 0.  0.
          5    1    3    3  501    0  0.36567818219E+02 -0.56873038528E+02  0.89291284690E+02  0.11210161177E+03  0.47000000000E+01 0. -1.
        -13    1    4    4    0    0 -0.11983155572E+02 -0.18902502414E+02  0.99602753572E+02  0.10208628279E+03  0.00000000000E+00 0.  1.
         14    1    4    4    0    0 -0.26329956237E+02  0.65550932766E+02  0.10217553522E+03  0.12421767740E+03  0.00000000000E+00 0. -1.
         -5    1    5    5    0  502  0.21363297404E+02 -0.25258359250E+02  0.34841388371E+02  0.48274087579E+02  0.47000000000E+01 0.  1.
         11    1    6    6    0    0 -0.13877967980E+02  0.58806372267E+02  0.65211546307E+03  0.65490866889E+03  0.00000000000E+00 0. -1.
        -12    1    6    6    0    0 -0.57400358338E+01 -0.23323404842E+02  0.11696340851E+03  0.11940422168E+03  0.00000000000E+00 0.  1.
</event>
<event>
12    1  0.1683022E-002  0.2001719E+03  0.7818608E-02  0.1149839E+00
         21   -1    0    0  501  502  0.00000000000E+00  0.00000000000E+00  0.16729159982E+03  0.16729159982E+03  0.00000000000E+00 0.  1.
         21   -1    0    0  502  503 -0.00000000000E+00 -0.00000000000E+00 -0.24405331724E+03  0.24405331724E+03  0.00000000000E+00 0.  1.
          6    2    1    2  501    0 -0.10319224432E+03  0.48966616002E+00 -0.62317922710E+01  0.19911094960E+03  0.17016890420E+03 0.  0.
         24    2    3    3    0    0 -0.13242320727E+03  0.36875876323E+01  0.24369844571E+02  0.15641169815E+03  0.79506137291E+02 0.  0.
         -6    2    1    2    0  503  0.10319224432E+03 -0.48966616002E+00 -0.70529925153E+02  0.21223396746E+03  0.17152232374E+03 0.  0.
        -24    2    5    5    0    0  0.11776337130E+03 -0.48188991771E+02 -0.57492068804E+02  0.16046892999E+03  0.79085706484E+02 0.  0.
          5    1    3    3  501    0  0.29230962955E+02 -0.31979214723E+01 -0.30601636842E+02  0.42699251450E+02  0.47000000000E+01 0. -1.
        -11    1    4    4    0    0  0.95238960061E+01  0.79566938090E+01  0.59880894367E+00  0.12424658694E+02  0.00000000000E+00 0.  1.
         12    1    4    4    0    0 -0.14194710328E+03 -0.42691061767E+01  0.23771035627E+02  0.14398703946E+03  0.00000000000E+00 0. -1.
         -5    1    5    5    0  503 -0.14571126983E+02  0.47699325611E+02 -0.13037856349E+02  0.51765037463E+02  0.47000000000E+01 0.  1.
         11    1    6    6    0    0  0.30067167754E+02 -0.15188785441E+01  0.18552539458E+02  0.35362950797E+02  0.00000000000E+00 0. -1.
        -12    1    6    6    0    0  0.87696203546E+02 -0.46670113227E+02 -0.76044608261E+02  0.12510597920E+03  0.00000000000E+00 0.  1.
</event>
<event>
12    1  0.1683022E-002  0.1884852E+03  0.7818608E-02  0.1160181E+00
         21   -1    0    0  501  502  0.00000000000E+00  0.00000000000E+00  0.41977376799E+02  0.41977376799E+02  0.00000000000E+00 0. -1.
         21   -1    0    0  502  503 -0.00000000000E+00 -0.00000000000E+00 -0.84033102495E+03  0.84033102495E+03  0.00000000000E+00 0. -1.
          6    2    1    2  501    0 -0.53329226635E+02 -0.53429648874E+02 -0.41431067720E+03  0.45517030646E+03  0.17270766297E+03 0.  0.
         24    2    3    3    0    0 -0.22148530727E+02  0.33560570691E+02 -0.14371937460E+03  0.16919604688E+03  0.79719347257E+02 0.  0.
         -6    2    1    2    0  503  0.53329226635E+02  0.53429648874E+02 -0.38404297095E+03  0.42713809529E+03  0.17105325229E+03 0.  0.
        -24    2    5    5    0    0  0.53740449877E+02  0.10122513674E+03 -0.28474607849E+03  0.31683605262E+03  0.78550561825E+02 0.  0.
          5    1    3    3  501    0 -0.31180695908E+02 -0.86990219565E+02 -0.27059130260E+03  0.28597425958E+03  0.47000000000E+01 0. -1.
        -13    1    4    4    0    0  0.72532613281E+01  0.93415002178E+01 -0.12707816985E+03  0.12762732732E+03  0.00000000000E+00 0.  1.
         14    1    4    4    0    0 -0.29401792055E+02  0.24219070474E+02 -0.16641204748E+02  0.41568719563E+02  0.00000000000E+00 0. -1.
         -5    1    5    5    0  503 -0.41122324205E+00 -0.47795487864E+02 -0.99296892458E+02  0.11030204267E+03  0.47000000000E+01 0.  1.
         13    1    6    6    0    0  0.13567595322E+02  0.80786314969E+02 -0.23885540489E+03  0.25251220322E+03  0.00000000000E+00 0. -1.
        -14    1    6    6    0    0  0.40172854555E+02  0.20438821769E+02 -0.45890673607E+02  0.64323849407E+02  0.00000000000E+00 0.  1.
</event>
<event>
12    1  0.1683022E-002  0.2311767E+03  0.7818608E-02  0.1125906E+00
         21   -1    0    0  503  502  0.00000000000E+00  0.00000000000E+00  0.52241781989E+03  0.52241781989E+03  0.00000000000E+00 0.  1.
         21   -1    0    0  501  503 -0.00000000000E+00 -0.00000000000E+00 -0.10206817235E+03  0.10206817235E+03  0.00000000000E+00 0.  1.
          6    2    1    2  501    0 -0.14399073445E+03  0.55363582433E+02  0.20903135066E+03  0.31127981708E+03  0.17147175013E+03 0.  0.
         24    2    3    3    0    0 -0.12188590813E+03 -0.15127433884E+02  0.17881752276E+03  0.23132625478E+03  0.80318838677E+02 0.  0.
         -6    2    1    2    0  502  0.14399073445E+03 -0.55363582433E+02  0.21131829688E+03  0.31320617516E+03  0.17217499149E+03 0.  0.
        -24    2    5    5    0    0  0.14620454121E+03 -0.41892955757E+02  0.96249653896E+02  0.19723531106E+03  0.80665881511E+02 0.  0.
          5    1    3    3  501    0 -0.22104826321E+02  0.70491016317E+02  0.30213827902E+02  0.79953562301E+02  0.47000000000E+01 0. -1.
        -11    1    4    4    0    0 -0.31994069978E+02  0.29529387121E+02  0.76330609249E+02  0.87874724044E+02  0.00000000000E+00 0.  1.
         12    1    4    4    0    0 -0.89891838150E+02 -0.44656821005E+02  0.10248691351E+03  0.14345153073E+03  0.00000000000E+00 0. -1.
         -5    1    5    5    0  502 -0.22138067602E+01 -0.13470626676E+02  0.11506864298E+03  0.11597086410E+03  0.47000000000E+01 0.  1.
         11    1    6    6    0    0  0.51857903996E+02 -0.54834490464E+02  0.55353318572E+02  0.93595157077E+02  0.00000000000E+00 0. -1.
        -12    1    6    6    0    0  0.94346637213E+02  0.12941534706E+02  0.40896335324E+02  0.10364015398E+03  0.00000000000E+00 0.  1.
</event>
<event>
12    1  0.1683022E-002  0.2079885E+03  0.7818608E-02  0.1143229E+00
         21   -1    0    0  501  502  0.00000000000E+00  0.00000000000E+00  0.18564406040E+03  0.18564406040E+03  0.00000000000E+00 0. -1.
         21   -1    0    0  502  503 -0.00000000000E+00 -0.00000000000E+00 -0.23807375029E+03  0.23807375029E+03  0.00000000000E+00 0. -1.
          6    2    1    2  501    0  0.11642153835E+03  0.10372219125E+02  0.56722385519E+01  0.20776631807E+03  0.17167734595E+03 0.  0.
         24    2    3    3    0    0  0.47502318430E+02  0.39962300413E+02 -0.55558152885E+02  0.11082983051E+03  0.73096424451E+02 0.  0.
         -6    2    1    2    0  503 -0.11642153835E+03 -0.10372219125E+02 -0.58101928442E+02  0.21595149263E+03  0.17203969181E+03 0.  0.
        -24    2    5    5    0    0 -0.42414021134E+02  0.55014483290E+02 -0.49025994645E+02  0.11666908718E+03  0.79891083305E+02 0.  0.
          5    1    3    3  501    0  0.68919219920E+02 -0.29590081288E+02  0.61230391437E+02  0.96936487560E+02  0.47000000000E+01 0. -1.
        -13    1    4    4    0    0  0.60354759944E+02  0.46144528952E+02 -0.30239650809E+02  0.81770722641E+02  0.00000000000E+00 0.  1.
         14    1    4    4    0    0 -0.12852441514E+02 -0.61822285392E+01 -0.25318502076E+02  0.29059107866E+02  0.00000000000E+00 0. -1.
         -5    1    5    5    0  503 -0.74007517216E+02 -0.65386702416E+02 -0.90759337968E+01  0.99282405448E+02  0.47000000000E+01 0.  1.
         11    1    6    6    0    0  0.12147235805E+01  0.40407052879E+02 -0.57095259987E+02  0.69957659972E+02  0.00000000000E+00 0. -1.
        -12    1    6    6    0    0 -0.43628744714E+02  0.14607430411E+02  0.80692653410E+01  0.46711427207E+02  0.00000000000E+00 0.  1.
</event>
<event>
12    1  0.1683022E-002  0.1875218E+03  0.7818608E-02  0.1160835E+00
         21   -1    0    0  503  502  0.00000000000E+00  0.00000000000E+00  0.40915261773E+02  0.40915261773E+02  0.00000000000E+00 0.  1.
         21   -1    0    0  501  503 -0.00000000000E+00 -0.00000000000E+00 -0.85759810303E+03  0.85759810303E+03  0.00000000000E+00 0.  1.
          6    2    1    2  501    0 -0.74071248368E+02  0.54889580884E+01 -0.39655629689E+03  0.43843649471E+03  0.17161871926E+03 0.  0.
         24    2    3    3    0    0 -0.82300824146E+02 -0.22794460571E+02 -0.15336580024E+03  0.19342346374E+03  0.81231487447E+02 0.  0.
         -6    2    1    2    0  502  0.74071248368E+02 -0.54889580884E+01 -0.42012654437E+03  0.46007687009E+03  0.17218517536E+03 0.  0.
        -24    2    5    5    0    0  0.20066386315E+02  0.50617795741E+02 -0.15029597212E+03  0.17919411756E+03  0.80974263973E+02 0.  0.
          5    1    3    3  501    0  0.82295757788E+01  0.28283418659E+02 -0.24319049665E+03  0.24501303098E+03  0.47000000000E+01 0. -1.
        -13    1    4    4    0    0 -0.43872708362E+02 -0.15127319275E+02 -0.14645686114E+03  0.15363353313E+03  0.00000000000E+00 0.  1.
         14    1    4    4    0    0 -0.38428115784E+02 -0.76671412953E+01 -0.69089391045E+01  0.39789930610E+02  0.00000000000E+00 0. -1.
         -5    1    5    5    0  502  0.54004862052E+02 -0.56106753829E+02 -0.26983057224E+03  0.28088275253E+03  0.47000000000E+01 0.  1.
         13    1    6    6    0    0 -0.23435884625E+02  0.44435699516E+02 -0.10323356955E+03  0.11480828351E+03  0.00000000000E+00 0. -1.
        -14    1    6    6    0    0  0.43502270940E+02  0.61820962242E+01 -0.47062402572E+02  0.64385834052E+02  0.00000000000E+00 0.  1.
</event>
<event>
12    1  0.1683022E-002  0.1967733E+03  0.7818608E-02  0.1152576E+00
         21   -1    0    0  501  502  0.00000000000E+00  0.00000000000E+00  0.27509392326E+03  0.27509392326E+03  0.00000000000E+00 0. -1.
         21   -1    0    0  502  503 -0.00000000000E+00 -0.00000000000E+00 -0.16487013285E+03  0.16487013285E+03  0.00000000000E+00 0. -1.
          6    2    1    2  501    0  0.18037868488E+02 -0.94121767963E+02  0.13969999452E+03  0.24099523690E+03  0.17140111971E+03 0.  0.
         24    2    3    3    0    0 -0.10464005814E+02  0.35762631412E+01  0.16207600867E+02  0.80902378192E+02  0.78487090630E+02 0.  0.
         -6    2    1    2    0  503 -0.18037868488E+02  0.94121767963E+02 -0.29476204112E+02  0.19896881921E+03  0.17185887381E+03 0.  0.
        -24    2    5    5    0    0  0.43798745945E+02  0.82312954027E+02  0.10584575062E+02  0.12420137309E+03  0.81364582604E+02 0.  0.
          5    1    3    3  501    0  0.28501874302E+02 -0.97698031104E+02  0.12349239365E+03  0.16009285871E+03  0.47000000000E+01 0. -1.
        -11    1    4    4    0    0 -0.33240351145E+01  0.32948248868E+02  0.32639849119E+02  0.46497269419E+02  0.00000000000E+00 0.  1.
         12    1    4    4    0    0 -0.71399706994E+01 -0.29371985726E+02 -0.16432248252E+02  0.34405108773E+02  0.00000000000E+00 0. -1.
         -5    1    5    5    0  503 -0.61836614433E+02  0.11808813936E+02 -0.40060779174E+02  0.74767446119E+02  0.47000000000E+01 0.  1.
         13    1    6    6    0    0 -0.64422288236E+00  0.98648755809E+01 -0.28856107173E+02  0.30502552590E+02  0.00000000000E+00 0. -1.
        -14    1    6    6    0    0  0.44442968827E+02  0.72448078446E+02  0.39440682235E+02  0.93698820504E+02  0.00000000000E+00 0.  1.
</event>
<event>
12    1  0.1683022E-002  0.1966397E+03  0.7818608E-02  0.1152863E+00
         21   -1    0    0  501  502  0.00000000000E+00  0.00000000000E+00  0.40214853750E+03  0.40214853750E+03  0.00000000000E+00 0.  1.
         21   -1    0    0  502  503 -0.00000000000E+00 -0.00000000000E+00 -0.10987181774E+03  0.10987181774E+03  0.00000000000E+00 0. -1.
          6    2    1    2  501    0 -0.24102192280E+02 -0.86092885730E+02  0.23889279802E+03  0.30941389349E+03  0.17514076594E+03 0.  0.
         24    2    3    3    0    0 -0.16490826309E+02 -0.65621885927E+02  0.44080948206E+02  0.11332528711E+03  0.79506675437E+02 0.  0.
         -6    2    1    2    0  503  0.24102192280E+02  0.86092885730E+02  0.53383921747E+02  0.20260646175E+03  0.17380055982E+03 0.  0.
        -24    2    5    5    0    0  0.75983831762E+02  0.47150830370E+02  0.59983795736E+02  0.13723187550E+03  0.85075192668E+02 0.  0.
          5    1    3    3  501    0 -0.76113659713E+01 -0.20470999803E+02  0.19481184981E+03  0.19608860638E+03  0.47000000000E+01 0. -1.
        -11    1    4    4    0    0  0.22105452310E+00 -0.59085359692E+02  0.63600251274E+02  0.86810832027E+02  0.00000000000E+00 0.  1.
         12    1    4    4    0    0 -0.16711880832E+02 -0.65365262347E+01 -0.19519303068E+02  0.26514455084E+02  0.00000000000E+00 0. -1.
         -5    1    5    5    0  503 -0.51881639482E+02  0.38942055360E+02 -0.65998739896E+01  0.65374586252E+02  0.47000000000E+01 0.  1.
         11    1    6    6    0    0  0.54019362970E+02  0.60292065430E+02  0.10644739940E+02  0.81648853133E+02  0.00000000000E+00 0. -1.
        -12    1    6    6    0    0  0.21964468792E+02 -0.13141235060E+02  0.49339055796E+02  0.55583022364E+02  0.00000000000E+00 0.  1.
</event>
<event>
12    1  0.1683022E-002  0.2021041E+03  0.7818608E-02  0.1148075E+00
         21   -1    0    0  503  502  0.00000000000E+00  0.00000000000E+00  0.22824973625E+03  0.22824973625E+03  0.00000000000E+00 0.  1.
         21   -1    0    0  501  503 -0.00000000000E+00 -0.00000000000E+00 -0.21720064282E+03  0.21720064282E+03  0.00000000000E+00 0.  1.
          6    2    1    2  501    0  0.70293860086E+02  0.81173013995E+02  0.99495595699E+02  0.22484016198E+03  0.17065591085E+03 0.  0.
         24    2    3    3    0    0 -0.31930797246E+01  0.95453317561E+02  0.44031699419E+02  0.13155248228E+03  0.79029952864E+02 0.  0.
         -6    2    1    2    0  502 -0.70293860086E+02 -0.81173013995E+02 -0.88446502263E+02  0.22061021709E+03  0.17121857129E+03 0.  0.
        -24    2    5    5    0    0 -0.47032332006E+02 -0.99534644464E+02 -0.11559125500E+03  0.18014818843E+03  0.83503567950E+02 0.  0.
          5    1    3    3  501    0  0.73486939810E+02 -0.14280303566E+02  0.55463896280E+02  0.93287679697E+02  0.47000000000E+01 0. -1.
        -11    1    4    4    0    0  0.29262341890E+02  0.80257260898E+02  0.18111560234E+02  0.87324344795E+02  0.00000000000E+00 0.  1.
         12    1    4    4    0    0 -0.32455421615E+02  0.15196056663E+02  0.25920139186E+02  0.44228137489E+02  0.00000000000E+00 0. -1.
         -5    1    5    5    0  502 -0.23261528080E+02  0.18361630469E+02  0.27144752733E+02  0.40462028657E+02  0.47000000000E+01 0.  1.
         11    1    6    6    0    0 -0.20402963530E+02 -0.91534384405E+02 -0.44480648467E+02  0.10379476161E+03  0.00000000000E+00 0. -1.
        -12    1    6    6    0    0 -0.26629368476E+02 -0.80002600587E+01 -0.71110606529E+02  0.76353426822E+02  0.00000000000E+00 0.  1.
</event>
<event>
12    1  0.1683022E-002  0.1830943E+03  0.7818608E-02  0.1165070E+00
         21   -1    0    0  503  502  0.00000000000E+00  0.00000000000E+00  0.26614008983E+03  0.26614008983E+03  0.00000000000E+00 0.  1.
         21   -1    0    0  501  503 -0.00000000000E+00 -0.00000000000E+00 -0.12560610506E+03  0.12560610506E+03  0.00000000000E+00 0.  1.
          6    2    1    2  501    0  0.61260463020E+02 -0.56155642264E+01  0.79730318482E+02  0.19881975189E+03  0.17142925994E+03 0.  0.
         24    2    3    3    0    0  0.64857321250E+02 -0.54238705341E+02  0.96058461324E+02  0.14718792556E+03  0.72723779895E+02 0.  0.
         -6    2    1    2    0  502 -0.61260463020E+02  0.56155642264E+01  0.60803666286E+02  0.19292644300E+03  0.17245042095E+03 0.  0.
        -24    2    5    5    0    0 -0.13786055206E+02 -0.42149470226E+02  0.83546895535E+02  0.12168977835E+03  0.76561643425E+02 0.  0.
          5    1    3    3  501    0 -0.35968582301E+01  0.48623141114E+02 -0.16328142842E+02  0.51631826325E+02  0.47000000000E+01 0. -1.
        -11    1    4    4    0    0  0.46216864562E+02  0.28954989748E+01  0.20497094352E+02  0.50641024487E+02  0.00000000000E+00 0.  1.
         12    1    4    4    0    0  0.18640456689E+02 -0.57134204316E+02  0.75561366971E+02  0.96546901074E+02  0.00000000000E+00 0. -1.
         -5    1    5    5    0  502 -0.47474407814E+02  0.47765034452E+02 -0.22743229249E+02  0.71236664648E+02  0.47000000000E+01 0.  1.
         11    1    6    6    0    0 -0.96860462968E+01 -0.31197066112E+01 -0.13559387767E+02  0.16953143037E+02  0.00000000000E+00 0. -1.
        -12    1    6    6    0    0 -0.41000089097E+01 -0.39029763615E+02  0.97106283302E+02  0.10473663532E+03  0.00000000000E+00 0.  1.
</event>
<event>
12    1  0.1683022E-002  0.2301393E+03  0.7818608E-02  0.1126759E+00
         21   -1    0    0  501  502  0.00000000000E+00  0.00000000000E+00  0.60151571937E+02  0.60151571937E+02  0.00000000000E+00 0. -1.
         21   -1    0    0  502  503 -0.00000000000E+00 -0.00000000000E+00 -0.10801774974E+04  0.10801774974E+04  0.00000000000E+00 0. -1.
          6    2    1    2  501    0 -0.10256030328E+03 -0.11644654231E+03 -0.26311924391E+03  0.34956518401E+03  0.16995784280E+03 0.  0.
         24    2    3    3    0    0  0.25208088877E+01 -0.88894237120E+02 -0.11255088520E+03  0.16383933686E+03  0.79164933340E+02 0.  0.
         -6    2    1    2    0  503  0.10256030328E+03  0.11644654231E+03 -0.75690668152E+03  0.79076388529E+03  0.16828958593E+03 0.  0.
        -24    2    5    5    0    0  0.21311423273E+02  0.78803088420E+02 -0.57263584470E+03  0.58583404017E+03  0.92874153943E+02 0.  0.
          5    1    3    3  501    0 -0.10508111217E+03 -0.27552305189E+02 -0.15056835871E+03  0.18572584715E+03  0.47000000000E+01 0. -1.
        -11    1    4    4    0    0 -0.19436258979E+02  0.79227353818E+00 -0.16366779386E+01  0.19521131502E+02  0.00000000000E+00 0.  1.
         12    1    4    4    0    0  0.21957067867E+02 -0.89686510658E+02 -0.11091420727E+03  0.14431820535E+03  0.00000000000E+00 0. -1.
         -5    1    5    5    0  503  0.81248880012E+02  0.37643453889E+02 -0.18427083681E+03  0.20492984513E+03  0.47000000000E+01 0.  1.
         13    1    6    6    0    0  0.43291622892E+02  0.22787947396E+02 -0.40064130630E+03  0.40361728342E+03  0.00000000000E+00 0. -1.
        -14    1    6    6    0    0 -0.21980199619E+02  0.56015141024E+02 -0.17199453841E+03  0.18221675675E+03  0.00000000000E+00 0.  1.
</event>
<event>
12    1  0.1683022E-002  0.1994394E+03  0.7818608E-02  0.1150436E+00
         21   -1    0    0  501  502  0.00000000000E+00  0.00000000000E+00  0.36792401063E+02  0.36792401063E+02  0.00000000000E+00 0.  1.
         21   -1    0    0  502  503 -0.00000000000E+00 -0.00000000000E+00 -0.10955868496E+04  0.10955868496E+04  0.00000000000E+00 0. -1.
          6    2    1    2  501    0 -0.48201818010E+02  0.89330778969E+02 -0.60762331245E+03  0.63951714109E+03  0.17167609205E+03 0.  0.
         24    2    3    3    0    0  0.39918568445E+01  0.11395065374E+03 -0.47009891086E+03  0.49030129421E+03  0.80010541164E+02 0.  0.
         -6    2    1    2    0  503  0.48201818010E+02 -0.89330778969E+02 -0.45117113610E+03  0.49286210959E+03  0.17045310700E+03 0.  0.
        -24    2    5    5    0    0  0.67467349776E+02  0.17907997040E+01 -0.26087268521E+03  0.28094256536E+03  0.79492873228E+02 0.  0.
          5    1    3    3  501    0 -0.52193674855E+02 -0.24619874772E+02 -0.13752440159E+03  0.14921584688E+03  0.47000000000E+01 0. -1.
        -13    1    4    4    0    0  0.12180157732E+02  0.70232226970E+01 -0.85456142862E+01  0.16453249617E+02  0.00000000000E+00 0.  1.
         14    1    4    4    0    0 -0.81883008872E+01  0.10692743104E+03 -0.46155329658E+03  0.47384804459E+03  0.00000000000E+00 0. -1.
         -5    1    5    5    0  503 -0.19265531766E+02 -0.91121578673E+02 -0.19029845089E+03  0.21191954423E+03  0.47000000000E+01 0.  1.
         11    1    6    6    0    0 -0.33258188287E+01 -0.14658533654E+02 -0.13309627899E+03  0.13394235014E+03  0.00000000000E+00 0. -1.
        -12    1    6    6    0    0  0.70793168604E+02  0.16449333358E+02 -0.12777640622E+03  0.14700021522E+03  0.00000000000E+00 0.  1.
</event>
<event>
12    1  0.1683022E-002  0.1907184E+03  0.7818608E-02  0.1158053E+00
         21   -1    0    0  501  502  0.00000000000E+00  0.00000000000E+00  0.45583418409E+03  0.45583418409E+03  0.00000000000E+00 0. -1.
         21   -1    0    0  502  503 -0.00000000000E+00 -0.00000000000E+00 -0.84696740727E+02  0.84696740727E+02  0.00000000000E+00 0. -1.
          6    2    1    2  501    0 -0.75365058518E+02 -0.27514083367E+02  0.11720427848E+03  0.22295328823E+03  0.17185577968E+03 0.  0.
         24    2    3    3    0    0 -0.17066840352E+02 -0.85060089627E+01  0.13732187669E+03  0.15824782562E+03  0.76298409338E+02 0.  0.
         -6    2    1    2    0  503  0.75365058518E+02  0.27514083367E+02  0.25393316488E+03  0.31757763658E+03  0.17302192405E+03 0.  0.
        -24    2    5    5    0    0  0.40325632034E+02  0.63711291390E+02  0.80024605621E+02  0.13645812836E+03  0.80818302629E+02 0.  0.
          5    1    3    3  501    0 -0.58298218165E+02 -0.19008074405E+02 -0.20117598212E+02  0.64705462610E+02  0.47000000000E+01 0. -1.
        -11    1    4    4    0    0  0.45779984013E+01  0.51135749125E+01 -0.80872131147E+01  0.10607060559E+02  0.00000000000E+00 0.  1.
         12    1    4    4    0    0 -0.21644838754E+02 -0.13619583875E+02  0.14540908981E+03  0.14764076506E+03  0.00000000000E+00 0. -1.
         -5    1    5    5    0  503  0.35039426484E+02 -0.36197208023E+02  0.17390855926E+03  0.18111950823E+03  0.47000000000E+01 0.  1.
         11    1    6    6    0    0 -0.15332011146E+02  0.34367135967E+00 -0.55480811871E+01  0.16308583036E+02  0.00000000000E+00 0. -1.
        -12    1    6    6    0    0  0.55657643180E+02  0.63367620031E+02  0.85572686808E+02  0.12014954532E+03  0.00000000000E+00 0.  1.
</event>
<event>
12    1  0.1683022E-002  0.3102723E+03  0.7818608E-02  0.1080489E+00
         21   -1    0    0  501  502  0.00000000000E+00  0.00000000000E+00  0.89147472186E+03  0.89147472186E+03  0.00000000000E+00 0. -1.
         21   -1    0    0  502  503 -0.00000000000E+00 -0.00000000000E+00 -0.12260944991E+03  0.12260944991E+03  0.00000000000E+00 0.  1.
          6    2    1    2  501    0  0.21556797316E+03  0.13708785656E+03  0.56295780896E+03  0.64170424729E+03  0.17204712974E+03 0.  0.
         24    2    3    3    0    0  0.16050949508E+03  0.13605717774E+03  0.31127241574E+03  0.38402202930E+03  0.79420076569E+02 0.  0.
         -6    2    1    2    0  503 -0.21556797316E+03 -0.13708785656E+03  0.20590746298E+03  0.37237992448E+03  0.17608603969E+03 0.  0.
        -24    2    5    5    0    0 -0.17312350692E+03 -0.79722541066E+02  0.21663002970E+03  0.30006550286E+03  0.82360816152E+02 0.  0.
          5    1    3    3  501    0  0.55058478076E+02  0.10306788245E+01  0.25168539322E+03  0.25768221799E+03  0.47000000000E+01 0. -1.
        -11    1    4    4    0    0  0.15513786506E+03  0.10409751097E+03  0.22864875665E+03  0.29526988144E+03  0.00000000000E+00 0.  1.
         12    1    4    4    0    0  0.53716300193E+01  0.31959666767E+02  0.82623659089E+02  0.88752147863E+02  0.00000000000E+00 0. -1.
         -5    1    5    5    0  503 -0.42444466245E+02 -0.57365315494E+02 -0.10722566722E+02  0.72314421616E+02  0.47000000000E+01 0.  1.
         11    1    6    6    0    0 -0.79796038515E+02 -0.78107138508E+01  0.45165257037E+02  0.92023450581E+02  0.00000000000E+00 0. -1.
        -12    1    6    6    0    0 -0.93327468400E+02 -0.71911827215E+02  0.17146477267E+03  0.20804205228E+03  0.00000000000E+00 0.  1.
</event>
<event>
12    1  0.1683022E-002  0.2617071E+03  0.7818608E-02  0.1106702E+00
         21   -1    0    0  503  502  0.00000000000E+00  0.00000000000E+00  0.44371558520E+03  0.44371558520E+03  0.00000000000E+00 0. -1.
         21   -1    0    0  501  503 -0.00000000000E+00 -0.00000000000E+00 -0.16187159552E+03  0.16187159552E+03  0.00000000000E+00 0.  1.
          6    2    1    2  501    0 -0.14877146585E+02  0.19615030582E+03  0.21634410070E+03  0.33955169357E+03  0.17261028571E+03 0.  0.
         24    2    3    3    0    0  0.11629592165E+01  0.27607509220E+02  0.35368314892E+02  0.91684220247E+02  0.79947179466E+02 0.  0.
         -6    2    1    2    0  502  0.14877146585E+02 -0.19615030582E+03  0.65499888978E+02  0.26603548715E+03  0.16669844931E+03 0.  0.
        -24    2    5    5    0    0 -0.18511280028E+02 -0.13232879722E+03 -0.16335695409E+02  0.15691571413E+03  0.80635651751E+02 0.  0.
          5    1    3    3  501    0 -0.16040105802E+02  0.16854279660E+03  0.18097578581E+03  0.24786747332E+03  0.47000000000E+01 0. -1.
        -11    1    4    4    0    0  0.35477876483E+02 -0.52446990516E+00  0.30965651357E+02  0.47093803758E+02  0.00000000000E+00 0.  1.
         12    1    4    4    0    0 -0.34314917266E+02  0.28131979125E+02  0.44026635353E+01  0.44590416489E+02  0.00000000000E+00 0. -1.
         -5    1    5    5    0  502  0.33388426613E+02 -0.63821508600E+02  0.81835584388E+02  0.10911977302E+03  0.47000000000E+01 0.  1.
         13    1    6    6    0    0  0.60765400766E+01 -0.12551864095E+03  0.16897860581E+01  0.12567700244E+03  0.00000000000E+00 0. -1.
        -14    1    6    6    0    0 -0.24587820104E+02 -0.68101562741E+01 -0.18025481468E+02  0.31238711691E+02  0.00000000000E+00 0.  1.
</event>
<event>
12    1  0.1683022E-002  0.1848755E+03  0.7818608E-02  0.1165381E+00
         21   -1    0    0  501  502  0.00000000000E+00  0.00000000000E+00  0.10312607439E+03  0.10312607439E+03  0.00000000000E+00 0. -1.
         21   -1    0    0  502  503 -0.00000000000E+00 -0.00000000000E+00 -0.31836522302E+03  0.31836522302E+03  0.00000000000E+00 0. -1.
          6    2    1    2  501    0  0.11594282541E+02  0.91482148665E+01 -0.89018558639E+02  0.20519080603E+03  0.18428468703E+03 0.  0.
         24    2    3    3    0    0  0.14363652453E+02  0.65917287162E+01 -0.13475359056E+03  0.15906068381E+03  0.83018103837E+02 0.  0.
         -6    2    1    2    0  503 -0.11594282541E+02 -0.91482148665E+01 -0.12622058999E+03  0.21630049138E+03  0.17503184856E+03 0.  0.
        -24    2    5    5    0    0 -0.51771983270E+02  0.30923860874E+02 -0.37660716677E+02  0.11101535448E+03  0.85261104425E+02 0.  0.
          5    1    3    3  501    0 -0.27693699120E+01  0.25564861503E+01  0.45735031922E+02  0.46130122221E+02  0.47000000000E+01 0. -1.
        -11    1    4    4    0    0  0.43500678160E+02  0.21775911366E+02 -0.10017169150E+03  0.11135918055E+03  0.00000000000E+00 0.  1.
         12    1    4    4    0    0 -0.29137025707E+02 -0.15184182650E+02 -0.34581899066E+02  0.47701503255E+02  0.00000000000E+00 0. -1.
         -5    1    5    5    0  503  0.40177700729E+02 -0.40072075740E+02 -0.88559873309E+02  0.10528513689E+03  0.47000000000E+01 0.  1.
         13    1    6    6    0    0 -0.56079799081E+01  0.14025890545E+02 -0.56413239297E+02  0.58400587430E+02  0.00000000000E+00 0. -1.
        -14    1    6    6    0    0 -0.46164003362E+02  0.16897970329E+02  0.18752522620E+02  0.52614767055E+02  0.00000000000E+00 0.  1.
</event>
<event>
12    1  0.1683022E-002  0.2439173E+03  0.7818608E-02  0.1117509E+00
         21   -1    0    0  503  502  0.00000000000E+00  0.00000000000E+00  0.92669837970E+03  0.92669837970E+03  0.00000000000E+00 0.  1.
         21   -1    0    0  501  503 -0.00000000000E+00 -0.00000000000E+00 -0.81512830857E+02  0.81512830857E+02  0.00000000000E+00 0. -1.
          6    2    1    2  501    0 -0.13461702496E+03  0.10386660140E+03  0.18832865209E+03  0.30816119604E+03  0.17488747025E+03 0.  0.
         24    2    3    3    0    0 -0.54708190218E+02  0.12755278566E+03  0.11610626709E+03  0.19777722940E+03  0.79827739584E+02 0.  0.
         -6    2    1    2    0  502  0.13461702496E+03 -0.10386660140E+03  0.65685689674E+03  0.70005001451E+03  0.17233405271E+03 0.  0.
        -24    2    5    5    0    0  0.15247890903E+03 -0.12194027132E+03  0.53850764440E+03  0.57891232435E+03  0.83843596890E+02 0.  0.
          5    1    3    3  501    0 -0.79908834743E+02 -0.23686184256E+02  0.72222385006E+02  0.11038396664E+03  0.47000000000E+01 0. -1.
        -11    1    4    4    0    0 -0.70524453116E+02  0.66690323267E+02  0.74785233457E+02  0.12253215434E+03  0.00000000000E+00 0.  1.
         12    1    4    4    0    0  0.15816262898E+02  0.60862462391E+02  0.41321033631E+02  0.75245075060E+02  0.00000000000E+00 0. -1.
         -5    1    5    5    0  502 -0.17861884072E+02  0.18073669920E+02  0.11834925235E+03  0.12113769016E+03  0.47000000000E+01 0.  1.
         11    1    6    6    0    0  0.11933365891E+03 -0.66555902665E+02  0.26814302574E+03  0.30094998352E+03  0.00000000000E+00 0. -1.
        -12    1    6    6    0    0  0.33145250125E+02 -0.55384368658E+02  0.27036461866E+03  0.27796234083E+03  0.00000000000E+00 0.  1.
</event>
<event>
12    1  0.1683022E-002  0.1823435E+03  0.7818608E-02  0.1166211E+00
         21   -1    0    0  503  502  0.00000000000E+00  0.00000000000E+00  0.27693809956E+03  0.27693809956E+03  0.00000000000E+00 0.  1.
         21   -1    0    0  501  503 -0.00000000000E+00 -0.00000000000E+00 -0.20675911330E+03  0.20675911330E+03  0.00000000000E+00 0.  1.
          6    2    1    2  501    0 -0.49191968811E+02  0.34659254238E+02 -0.12328374465E+03  0.21784580234E+03  0.16922410645E+03 0.  0.
         24    2    3    3    0    0 -0.46115244860E+02  0.20420241501E+02 -0.65098518398E+00  0.94261420611E+02  0.79631586462E+02 0.  0.
         -6    2    1    2    0  502  0.49191968811E+02 -0.34659254238E+02  0.19346273091E+03  0.26585141052E+03  0.17212794812E+03 0.  0.
        -24    2    5    5    0    0  0.51234365543E+02 -0.83771504249E+02  0.16762397982E+03  0.21012066906E+03  0.80064173132E+02 0.  0.
          5    1    3    3  501    0 -0.30767239506E+01  0.14239012737E+02 -0.12263275946E+03  0.12358438173E+03  0.47000000000E+01 0. -1.
        -13    1    4    4    0    0  0.19803098155E+02  0.18552646574E+02  0.65770285504E+01  0.27921688630E+02  0.00000000000E+00 0.  1.
         14    1    4    4    0    0 -0.65918343015E+02  0.18675949275E+01 -0.72280137344E+01  0.66339731981E+02  0.00000000000E+00 0. -1.
         -5    1    5    5    0  502 -0.20423967316E+01  0.49112250011E+02  0.25838751089E+02  0.55730741458E+02  0.47000000000E+01 0.  1.
         13    1    6    6    0    0  0.16774158980E+01 -0.57849529565E+02  0.38789211237E+02  0.69670544015E+02  0.00000000000E+00 0. -1.
        -14    1    6    6    0    0  0.49556949645E+02 -0.25921974684E+02  0.12883476858E+03  0.14045012504E+03  0.00000000000E+00 0.  1.
</event>
<event>
12    1  0.1683022E-002  0.2736211E+03  0.7818608E-02  0.1099270E+00
         21   -1    0    0  501  502  0.00000000000E+00  0.00000000000E+00  0.37237524750E+03  0.37237524750E+03  0.00000000000E+00 0. -1.
         21   -1    0    0  502  503 -0.00000000000E+00 -0.00000000000E+00 -0.20866921360E+03  0.20866921360E+03  0.00000000000E+00 0.  1.
          6    2    1    2  501    0 -0.21088926243E+03 -0.27061715611E+02  0.13815003369E+03  0.30623254020E+03  0.17171581002E+03 0.  0.
         24    2    3    3    0    0 -0.18936478144E+03  0.35092350461E+02  0.10333808119E+03  0.23166449578E+03  0.76806159077E+02 0.  0.
         -6    2    1    2    0  503  0.21088926243E+03  0.27061715611E+02  0.25556000210E+02  0.27481192090E+03  0.17222620376E+03 0.  0.
        -24    2    5    5    0    0  0.21381521112E+03  0.51164293842E+01 -0.14815896256E+02  0.22852869729E+03  0.79137426977E+02 0.  0.
          5    1    3    3  501    0 -0.21524480987E+02 -0.62154066072E+02  0.34811952496E+02  0.74568044414E+02  0.47000000000E+01 0. -1.
        -13    1    4    4    0    0 -0.19133568051E+03  0.22068737444E+02  0.88932190061E+02  0.21214454091E+03  0.00000000000E+00 0.  1.
         14    1    4    4    0    0  0.19708990684E+01  0.13023613017E+02  0.14405891128E+02  0.19519954876E+02  0.00000000000E+00 0. -1.
         -5    1    5    5    0  503 -0.29259486907E+01  0.21945286227E+02  0.40371896467E+02  0.46283223609E+02  0.47000000000E+01 0.  1.
         11    1    6    6    0    0  0.47656381271E+02  0.24927722228E+02  0.20411367194E+02  0.57525176420E+02  0.00000000000E+00 0. -1.
        -12    1    6    6    0    0  0.16615882985E+03 -0.19811292844E+02 -0.35227263451E+02  0.17100352087E+03  0.00000000000E+00 0.  1.
</event>
<event>
12    1  0.1683022E-002  0.2030635E+03  0.7818608E-02  0.1147369E+00
         21   -1    0    0  501  502  0.00000000000E+00  0.00000000000E+00  0.33902852966E+03  0.33902852966E+03  0.00000000000E+00 0.  1.
         21   -1    0    0  502  503 -0.00000000000E+00 -0.00000000000E+00 -0.12555306813E+03  0.12555306813E+03  0.00000000000E+00 0.  1.
          6    2    1    2  501    0  0.10709232617E+03  0.79029624582E+00  0.15081010199E+03  0.25293962950E+03  0.17252645716E+03 0.  0.
         24    2    3    3    0    0  0.49883313310E+02 -0.42094632967E+02  0.14055846795E+03  0.18055748871E+03  0.92649990521E+02 0.  0.
         -6    2    1    2    0  503 -0.10709232617E+03 -0.79029624582E+00  0.62665359538E+02  0.21164196829E+03  0.17145257234E+03 0.  0.
        -24    2    5    5    0    0  0.12631777201E+01  0.31998529347E+02  0.77637958504E+01  0.85736074849E+02  0.79151099211E+02 0.  0.
          5    1    3    3  501    0  0.57209012860E+02  0.42884929213E+02  0.10251634034E+02  0.72382140797E+02  0.47000000000E+01 0. -1.
        -13    1    4    4    0    0 -0.13084389535E+02 -0.47989941956E+02  0.54913178570E+02  0.74092462229E+02  0.00000000000E+00 0.  1.
         14    1    4    4    0    0  0.62967702844E+02  0.58953089892E+01  0.85645289381E+02  0.10646502648E+03  0.00000000000E+00 0. -1.
         -5    1    5    5    0  503 -0.10835550389E+03 -0.32788825593E+02  0.54901563687E+02  0.12590589344E+03  0.47000000000E+01 0.  1.
         11    1    6    6    0    0 -0.14578470326E+02 -0.88832962091E+01  0.31537402256E+02  0.35861573998E+02  0.00000000000E+00 0. -1.
        -12    1    6    6    0    0  0.15841648046E+02  0.40881825556E+02 -0.23773606405E+02  0.49874500851E+02  0.00000000000E+00 0.  1.
</event>
<event>
12    1  0.1683022E-002  0.2570404E+03  0.7818608E-02  0.1109149E+00
         21   -1    0    0  501  502  0.00000000000E+00  0.00000000000E+00  0.44948905077E+03  0.44948905077E+03  0.00000000000E+00 0.  1.
         21   -1    0    0  502  503 -0.00000000000E+00 -0.00000000000E+00 -0.27952701235E+03  0.27952701235E+03  0.00000000000E+00 0.  1.
          6    2    1    2  501    0  0.13884676738E+03  0.12894418658E+03  0.33685641084E+03  0.42372397208E+03  0.17367997848E+03 0.  0.
         24    2    3    3    0    0  0.41716538999E+02  0.10543830547E+03  0.11433742185E+03  0.17974938698E+03  0.79870458858E+02 0.  0.
         -6    2    1    2    0  503 -0.13884676738E+03 -0.12894418658E+03 -0.16689437242E+03  0.30529209104E+03  0.17159400119E+03 0.  0.
        -24    2    5    5    0    0 -0.21747484592E+02 -0.19429481610E+02 -0.17888149107E+02  0.86361377761E+02  0.79295925801E+02 0.  0.
          5    1    3    3  501    0  0.97130228384E+02  0.23505881108E+02  0.22251898898E+03  0.24397458509E+03  0.47000000000E+01 0. -1.
        -13    1    4    4    0    0  0.12248632624E+02  0.67521972607E+02  0.11239579929E+03  0.13168926108E+03  0.00000000000E+00 0.  1.
         14    1    4    4    0    0  0.29467906375E+02  0.37916332863E+02  0.19416225670E+01  0.48060125906E+02  0.00000000000E+00 0. -1.
         -5    1    5    5    0  503 -0.11709928279E+03 -0.10951470497E+03 -0.14900622331E+03  0.21893071328E+03  0.47000000000E+01 0.  1.
         13    1    6    6    0    0 -0.11877078828E+02  0.12365689955E+02 -0.41927252677E+02  0.45297569544E+02  0.00000000000E+00 0. -1.
        -14    1    6    6    0    0 -0.98704057636E+01 -0.31795171565E+02  0.24039103570E+02  0.41063808217E+02  0.00000000000E+00 0.  1.
</event>
<event>
12    1  0.1683022E-002  0.1759947E+03  0.7818608E-02  0.1172606E+00
         21   -1    0    0  501  502  0.00000000000E+00  0.00000000000E+00  0.30268161392E+03  0.30268161392E+03  0.00000000000E+00 0. -1.
         21   -1    0    0  502  503 -0.00000000000E+00 -0.00000000000E+00 -0.13109382239E+03  0.13109382239E+03  0.00000000000E+00 0. -1.
          6    2    1    2  501    0 -0.23764352460E+02  0.17199994306E+02  0.19019676895E+03  0.25679964321E+03  0.17003135469E+03 0.  0.
         24    2    3    3    0    0 -0.80717853052E+02  0.15733129358E+01  0.12598887877E+03  0.16943467562E+03  0.79479963591E+02 0.  0.
         -6    2    1    2    0  503  0.23764352460E+02 -0.17199994306E+02 -0.18608977424E+02  0.17697579310E+03  0.17353257058E+03 0.  0.
        -24    2    5    5    0    0  0.36926474128E+02  0.35596255306E+02 -0.57509542371E+02  0.10992335562E+03  0.78390935464E+02 0.  0.
          5    1    3    3  501    0  0.56953500592E+02  0.15626681370E+02  0.64207890178E+02  0.87364967586E+02  0.47000000000E+01 0. -1.
        -11    1    4    4    0    0  0.12259598894E+02  0.13637806428E+02  0.12339050268E+02  0.22102933984E+02  0.00000000000E+00 0.  1.
         12    1    4    4    0    0 -0.92977451946E+02 -0.12064493492E+02  0.11364982851E+03  0.14733174163E+03  0.00000000000E+00 0. -1.
         -5    1    5    5    0  503 -0.13162121668E+02 -0.52796249612E+02  0.38900564947E+02  0.67052437488E+02  0.47000000000E+01 0.  1.
         13    1    6    6    0    0  0.77461232307E+00  0.49581278361E+02 -0.13737266125E+02  0.51454986821E+02  0.00000000000E+00 0. -1.
        -14    1    6    6    0    0  0.36151861805E+02 -0.13985023055E+02 -0.43772276246E+02  0.58468368795E+02  0.00000000000E+00 0.  1.
</event>
<event>
12    1  0.1683022E-002  0.1853023E+03  0.7818608E-02  0.1162902E+00
         21   -1    0    0  501  502  0.00000000000E+00  0.00000000000E+00  0.44202253706E+03  0.44202253706E+03  0.00000000000E+00 0.  1.
         21   -1    0    0  502  503 -0.00000000000E+00 -0.00000000000E+00 -0.81744004019E+02  0.81744004019E+02  0.00000000000E+00 0. -1.
          6    2    1    2  501    0 -0.30004606163E+02 -0.64170862103E+02  0.23996557191E+03  0.30283182134E+03  0.17060322500E+03 0.  0.
         24    2    3    3    0    0 -0.35937932337E+01 -0.47735375415E+02  0.42067047338E+02  0.10244825842E+03  0.80214884938E+02 0.  0.
         -6    2    1    2    0  503  0.30004606163E+02  0.64170862103E+02  0.12031296113E+03  0.22093471974E+03  0.17122723450E+03 0.  0.
        -24    2    5    5    0    0  0.27129916676E+02 -0.28070978674E+02  0.84863941422E+02  0.12196227899E+03  0.78414901132E+02 0.  0.
          5    1    3    3  501    0 -0.26410812929E+02 -0.16435486688E+02  0.19789852457E+03  0.20038356292E+03  0.47000000000E+01 0. -1.
        -13    1    4    4    0    0 -0.13875979456E+02 -0.11771351687E+00  0.51058258104E+02  0.52910323973E+02  0.00000000000E+00 0.  1.
         14    1    4    4    0    0  0.10282186222E+02 -0.47617661898E+02 -0.89912107659E+01  0.49537934446E+02  0.00000000000E+00 0. -1.
         -5    1    5    5    0  503  0.28746894868E+01  0.92241840777E+02  0.35449019710E+02  0.98972440750E+02  0.47000000000E+01 0.  1.
         13    1    6    6    0    0  0.20198140992E+02 -0.51914104616E+02  0.33736907353E+02  0.65124634934E+02  0.00000000000E+00 0. -1.
        -14    1    6    6    0    0  0.69317756840E+01  0.23843125941E+02  0.51127034069E+02  0.56837644053E+02  0.00000000000E+00 0.  1.
</event>
<event>
12    1  0.1683022E-002  0.1864141E+03  0.7818608E-02  0.1161874E+00
         21   -1    0    0  503  502  0.00000000000E+00  0.00000000000E+00  0.23459482387E+03  0.23459482387E+03  0.00000000000E+00 0. -1.
         21   -1    0    0  501  503 -0.00000000000E+00 -0.00000000000E+00 -0.27564920579E+03  0.27564920579E+03  0.00000000000E+00 0. -1.
          6    2    1    2  501    0  0.42082266483E+02 -0.60722005321E+02  0.15333536003E+03  0.24091602057E+03  0.17050137022E+03 0.  0.
         24    2    3    3    0    0  0.79861083196E+02 -0.24581917731E+01  0.74661205328E+02  0.13587496393E+03  0.80646605173E+02 0.  0.
         -6    2    1    2    0  502 -0.42082266483E+02  0.60722005321E+02 -0.19438974195E+03  0.26932800909E+03  0.17114942483E+03 0.  0.
        -24    2    5    5    0    0 -0.73614795028E+02  0.51229264540E+01 -0.16800800541E+03  0.20001968383E+03  0.79597748811E+02 0.  0.
          5    1    3    3  501    0 -0.37778816713E+02 -0.58263813548E+02  0.78674154703E+02  0.10504105664E+03  0.47000000000E+01 0. -1.
        -13    1    4    4    0    0  0.14348199347E+02 -0.32205787533E+02  0.47901794709E+01  0.35581306812E+02  0.00000000000E+00 0.  1.
         14    1    4    4    0    0  0.65512883849E+02  0.29747595760E+02  0.69871025857E+02  0.10029365712E+03  0.00000000000E+00 0. -1.
         -5    1    5    5    0  502  0.31532528546E+02  0.55599078867E+02 -0.26381736548E+02  0.69308325262E+02  0.47000000000E+01 0.  1.
         11    1    6    6    0    0 -0.35487016269E+02 -0.17950403869E+02 -0.14401645029E+03  0.14940643653E+03  0.00000000000E+00 0. -1.
        -12    1    6    6    0    0 -0.38127778759E+02  0.23073330323E+02 -0.23991555120E+02  0.50613247301E+02  0.00000000000E+00 0.  1.
</event>
<event>
12    1  0.1683022E-002  0.2203647E+03  0.7818608E-02  0.1133846E+00
         21   -1    0    0  503  502  0.00000000000E+00  0.00000000000E+00  0.74752561804E+02  0.74752561804E+02  0.00000000000E+00 0.  1.
         21   -1    0    0  501  503 -0.00000000000E+00 -0.00000000000E+00 -0.22860944268E+04  0.22860944268E+04  0.00000000000E+00 0.  1.
          6    2    1    2  501    0 -0.13305382060E+03 -0.19635271431E+02 -0.21064203905E+04  0.21179158297E+04  0.17456155604E+03 0.  0.
         24    2    3    3    0    0 -0.10198605303E+03 -0.47270200113E+02 -0.19839908533E+04  0.19885327664E+04  0.73533872294E+02 0.  0.
         -6    2    1    2    0  502  0.13305382060E+03  0.19635271431E+02 -0.10492147449E+03  0.24293115896E+03  0.17296869406E+03 0.  0.
        -24    2    5    5    0    0  0.16486679868E+03  0.25744551158E+02 -0.99220970022E+02  0.20970504537E+03  0.79294148216E+02 0.  0.
          5    1    3    3  501    0 -0.31067767567E+02  0.27634928683E+02 -0.12242953724E+03  0.12938306324E+03  0.47000000000E+01 0. -1.
        -13    1    4    4    0    0 -0.42445552545E+02  0.74681576943E+01 -0.36724579135E+03  0.36976596595E+03  0.00000000000E+00 0.  1.
         14    1    4    4    0    0 -0.59540500486E+02 -0.54738357808E+02 -0.16167450619E+04  0.16187668005E+04  0.00000000000E+00 0. -1.
         -5    1    5    5    0  502 -0.31812978081E+02 -0.61092797273E+01 -0.57005044690E+01  0.33226113591E+02  0.47000000000E+01 0.  1.
         11    1    6    6    0    0  0.12252906099E+03  0.51274040125E+02 -0.86989475141E+02  0.15877520827E+03  0.00000000000E+00 0. -1.
        -12    1    6    6    0    0  0.42337737693E+02 -0.25529488967E+02 -0.12231494880E+02  0.50929837099E+02  0.00000000000E+00 0.  1.
</event>
<event>
12    1  0.1683022E-002  0.2828168E+03  0.7818608E-02  0.1094260E+00
         21   -1    0    0  503  502  0.00000000000E+00  0.00000000000E+00  0.10040844332E+03  0.10040844332E+03  0.00000000000E+00 0. -1.
         21   -1    0    0  501  503 -0.00000000000E+00 -0.00000000000E+00 -0.79497710977E+03  0.79497710977E+03  0.00000000000E+00 0.  1.
          6    2    1    2  501    0 -0.75353528585E+02 -0.21091207893E+03 -0.35838742876E+03  0.45653793550E+03  0.17269417521E+03 0.  0.
         24    2    3    3    0    0 -0.62195589336E+02 -0.94414970877E+02 -0.28817406946E+03  0.31980200981E+03  0.80290429758E+02 0.  0.
         -6    2    1    2    0  502  0.75353528585E+02  0.21091207893E+03 -0.33618123770E+03  0.43884761759E+03  0.17148570661E+03 0.  0.
        -24    2    5    5    0    0 -0.21254785932E+02  0.62980631480E+02 -0.10349905426E+03  0.14664910960E+03  0.79847236943E+02 0.  0.
          5    1    3    3  501    0 -0.13157939249E+02 -0.11649710805E+03 -0.70213359294E+02  0.13673592569E+03  0.47000000000E+01 0. -1.
        -11    1    4    4    0    0  0.12786939965E+02 -0.19367218607E+02 -0.11012384403E+03  0.11254268530E+03  0.00000000000E+00 0.  1.
         12    1    4    4    0    0 -0.74982529301E+02 -0.75047752270E+02 -0.17805022543E+03  0.20725932451E+03  0.00000000000E+00 0. -1.
         -5    1    5    5    0  502  0.96608314517E+02  0.14793144745E+03 -0.23268218343E+03  0.29219850798E+03  0.47000000000E+01 0.  1.
         11    1    6    6    0    0 -0.43519255032E+02  0.65049169951E+02 -0.63337658291E+02  0.10068256566E+03  0.00000000000E+00 0. -1.
        -12    1    6    6    0    0  0.22264469101E+02 -0.20685384714E+01 -0.40161395974E+02  0.45966543946E+02  0.00000000000E+00 0.  1.
</event>
<event>
12    1  0.1683022E-002  0.1765174E+03  0.7818608E-02  0.1171345E+00
         21   -1    0    0  501  502  0.00000000000E+00  0.00000000000E+00  0.27005761901E+04  0.27005761901E+04  0.00000000000E+00 0. -1.
         21   -1    0    0  502  503 -0.00000000000E+00 -0.00000000000E+00 -0.13935195467E+02  0.13935195467E+02  0.00000000000E+00 0. -1.
          6    2    1    2  501    0  0.91649382376E+01  0.35611813045E+02  0.77479621278E+03  0.79453512140E+03  0.17211824564E+03 0.  0.
         24    2    3    3    0    0 -0.53326838375E+02 -0.10520034229E+02  0.46974548072E+03  0.47971547683E+03  0.80695100498E+02 0.  0.
         -6    2    1    2    0  503 -0.91649382376E+01 -0.35611813045E+02  0.19118447819E+04  0.19199762642E+04  0.17264468638E+03 0.  0.
        -24    2    5    5    0    0  0.31323795252E+02 -0.22036711313E+02  0.17585556945E+04  0.17607806134E+04  0.79771179087E+02 0.  0.
          5    1    3    3  501    0  0.62491776613E+02  0.46131847274E+02  0.30505073206E+03  0.31481964457E+03  0.47000000000E+01 0. -1.
        -11    1    4    4    0    0 -0.88580439293E+01 -0.17143770425E+02  0.36768572081E+03  0.36819174773E+03  0.00000000000E+00 0.  1.
         12    1    4    4    0    0 -0.44468794446E+02  0.66237361962E+01  0.10205975991E+03  0.11152372910E+03  0.00000000000E+00 0. -1.
         -5    1    5    5    0  503 -0.40488733489E+02 -0.13575101732E+02  0.15328908739E+03  0.15919565082E+03  0.47000000000E+01 0.  1.
         11    1    6    6    0    0 -0.26226720924E+02 -0.13426088175E+02  0.48245866796E+03  0.48335749401E+03  0.00000000000E+00 0. -1.
        -12    1    6    6    0    0  0.57550516176E+02 -0.86106231375E+01  0.12760970266E+04  0.12774231194E+04  0.00000000000E+00 0.  1.
</event>
<event>
12    1  0.1683022E-002  0.2010090E+03  0.7818608E-02  0.1149212E+00
         21   -1    0    0  503  502  0.00000000000E+00  0.00000000000E+00  0.77148186265E+02  0.77148186265E+02  0.00000000000E+00 0. -1.
         21   -1    0    0  501  503 -0.00000000000E+00 -0.00000000000E+00 -0.52606902543E+03  0.52606902543E+03  0.00000000000E+00 0. -1.
          6    2    1    2  501    0 -0.47117461980E+02  0.89497229908E+02 -0.25833859176E+03  0.32732773594E+03  0.17370897887E+03 0.  0.
         24    2    3    3    0    0  0.20641868206E+02  0.10298754538E+03 -0.19101441787E+03  0.23074642394E+03  0.75662957257E+02 0.  0.
         -6    2    1    2    0  502  0.47117461980E+02 -0.89497229908E+02 -0.19058224740E+03  0.27588947575E+03  0.17194068867E+03 0.  0.
        -24    2    5    5    0    0 -0.14219431778E+02 -0.26017282291E+02 -0.16147096903E+03  0.18282243102E+03  0.80449215214E+02 0.  0.
          5    1    3    3  501    0 -0.67759330186E+02 -0.13490315467E+02 -0.67324173894E+02  0.96581312008E+02  0.47000000000E+01 0. -1.
        -13    1    4    4    0    0  0.33007756022E+01  0.88297848566E+02 -0.18811798162E+03  0.20783594537E+03  0.00000000000E+00 0.  1.
         14    1    4    4    0    0  0.17341092603E+02  0.14689696809E+02 -0.28964362479E+01  0.22910478563E+02  0.00000000000E+00 0. -1.
         -5    1    5    5    0  502  0.61336893758E+02 -0.63479947616E+02 -0.29111278373E+02  0.93067044724E+02  0.47000000000E+01 0.  1.
         13    1    6    6    0    0  0.28444482086E+02 -0.40709981136E+01 -0.10430909372E+03  0.10819449440E+03  0.00000000000E+00 0. -1.
        -14    1    6    6    0    0 -0.42663913863E+02 -0.21946284178E+02 -0.57161875312E+02  0.74627936622E+02  0.00000000000E+00 0.  1.
</event>
<event>
12    1  0.1683022E-002  0.1986331E+03  0.7818608E-02  0.1150980E+00
         21   -1    0    0  501  502  0.00000000000E+00  0.00000000000E+00  0.30097483968E+03  0.30097483968E+03  0.00000000000E+00 0. -1.
         21   -1    0    0  502  503 -0.00000000000E+00 -0.00000000000E+00 -0.14046579027E+03  0.14046579027E+03  0.00000000000E+00 0. -1.
          6    2    1    2  501    0  0.54090631319E+02 -0.82835643643E+02  0.22384444555E+02  0.19950366496E+03  0.17179379710E+03 0.  0.
         24    2    3    3    0    0  0.12559645366E+02 -0.92444612130E+01  0.65066403857E+02  0.10471798791E+03  0.80554424617E+02 0.  0.
         -6    2    1    2    0  503 -0.54090631319E+02  0.82835643643E+02  0.13812460485E+03  0.24193696499E+03  0.17224270176E+03 0.  0.
        -24    2    5    5    0    0  0.32404665879E+02  0.16459525601E+02  0.79956214806E+02  0.11827259225E+03  0.79211308778E+02 0.  0.
          5    1    3    3  501    0  0.41530985953E+02 -0.73591182430E+02 -0.42681959302E+02  0.94785677059E+02  0.47000000000E+01 0. -1.
        -11    1    4    4    0    0  0.33529182664E+02  0.34050965270E+01 -0.15556126057E+01  0.33737526629E+02  0.00000000000E+00 0.  1.
         12    1    4    4    0    0 -0.20969537298E+02 -0.12649557740E+02  0.66622016462E+02  0.70980461277E+02  0.00000000000E+00 0. -1.
         -5    1    5    5    0  503 -0.86495297198E+02  0.66376118042E+02  0.58168390044E+02  0.12366437274E+03  0.47000000000E+01 0.  1.
         11    1    6    6    0    0  0.42200657098E+02  0.39761171312E+02  0.38109831072E+02  0.69384475410E+02  0.00000000000E+00 0. -1.
        -12    1    6    6    0    0 -0.97959912193E+01 -0.23301645711E+02  0.41846383734E+02  0.48888116843E+02  0.00000000000E+00 0.  1.
</event>
<event>
12    1  0.1683022E-002  0.2159693E+03  0.7818608E-02  0.1137069E+00
         21   -1    0    0  503  502  0.00000000000E+00  0.00000000000E+00  0.10499210044E+04  0.10499210044E+04  0.00000000000E+00 0.  1.
         21   -1    0    0  501  503 -0.00000000000E+00 -0.00000000000E+00 -0.49243710205E+02  0.49243710205E+02  0.00000000000E+00 0.  1.
          6    2    1    2  501    0  0.94869831678E+01  0.13075700770E+03  0.32645787622E+03  0.39143004751E+03  0.17162557862E+03 0.  0.
         24    2    3    3    0    0 -0.47116324523E+02  0.24364417811E+02  0.16415201840E+03  0.18922075220E+03  0.77749823338E+02 0.  0.
         -6    2    1    2    0  502 -0.94869831678E+01 -0.13075700770E+03  0.67421941793E+03  0.70773466705E+03  0.17067260330E+03 0.  0.
        -24    2    5    5    0    0 -0.45167246169E+02 -0.50673826816E+02  0.52001930393E+03  0.53029126147E+03  0.78618246449E+02 0.  0.
          5    1    3    3  501    0  0.56603307691E+02  0.10639258989E+03  0.16230585782E+03  0.20220929530E+03  0.47000000000E+01 0. -1.
        -11    1    4    4    0    0 -0.16551015358E+02  0.50936526066E+02  0.90073504432E+02  0.10479361621E+03  0.00000000000E+00 0.  1.
         12    1    4    4    0    0 -0.30565309165E+02 -0.26572108255E+02  0.74078513966E+02  0.84427135998E+02  0.00000000000E+00 0. -1.
         -5    1    5    5    0  502  0.35680263001E+02 -0.80083180883E+02  0.15420011400E+03  0.17744340559E+03  0.47000000000E+01 0.  1.
         13    1    6    6    0    0  0.11811013065E+02 -0.13214227951E+01  0.24027906587E+03  0.24057280745E+03  0.00000000000E+00 0. -1.
        -14    1    6    6    0    0 -0.56978259234E+02 -0.49352404021E+02  0.27974023806E+03  0.28971845402E+03  0.00000000000E+00 0.  1.
</event>
<event>
12    1  0.1683022E-002  0.1882106E+03  0.7818608E-02  0.1160398E+00
         21   -1    0    0  503  502  0.00000000000E+00  0.00000000000E+00  0.91381026338E+03  0.91381026338E+03  0.00000000000E+00 0.  1.
         21   -1    0    0  501  503 -0.00000000000E+00 -0.00000000000E+00 -0.38738737304E+02  0.38738737304E+02  0.00000000000E+00 0.  1.
          6    2    1    2  501    0  0.16909306817E+02  0.75119601456E+02  0.40049734627E+03  0.44251705997E+03  0.17173917670E+03 0.  0.
         24    2    3    3    0    0  0.78055806604E+02  0.48568664796E+02  0.23153079155E+03  0.26081501461E+03  0.77242088696E+02 0.  0.
         -6    2    1    2    0  502 -0.16909306817E+02 -0.75119601456E+02  0.47457417980E+03  0.51003194071E+03  0.17024408721E+03 0.  0.
        -24    2    5    5    0    0 -0.58873537019E+02 -0.68329360941E+02  0.20986765929E+03  0.24189254415E+03  0.79577469016E+02 0.  0.
          5    1    3    3  501    0 -0.61146499787E+02  0.26550936660E+02  0.16896655472E+03  0.18170204536E+03  0.47000000000E+01 0. -1.
        -11    1    4    4    0    0  0.51520227813E+02  0.17374721491E+02  0.47233657428E+02  0.72022449380E+02  0.00000000000E+00 0.  1.
         12    1    4    4    0    0  0.26535578791E+02  0.31193943305E+02  0.18429713412E+03  0.18879256523E+03  0.00000000000E+00 0. -1.
         -5    1    5    5    0  502  0.41964230202E+02 -0.67902405152E+01  0.26470652052E+03  0.26813939656E+03  0.47000000000E+01 0.  1.
         11    1    6    6    0    0  0.11097735476E+02 -0.22163189001E+01  0.35474894968E+00  0.11322440063E+02  0.00000000000E+00 0. -1.
        -12    1    6    6    0    0 -0.69971272495E+02 -0.66113042041E+02  0.20951291034E+03  0.23057010409E+03  0.00000000000E+00 0.  1.
</event>
<event>
12    1  0.1683022E-002  0.2149332E+03  0.7818608E-02  0.1137853E+00
         21   -1    0    0  501  502  0.00000000000E+00  0.00000000000E+00  0.52148906578E+02  0.52148906578E+02  0.00000000000E+00 0.  1.
         21   -1    0    0  502  503 -0.00000000000E+00 -0.00000000000E+00 -0.92149477814E+03  0.92149477814E+03  0.00000000000E+00 0.  1.
          6    2    1    2  501    0 -0.65092073079E+02 -0.11072766383E+03 -0.33445717414E+03  0.39718707960E+03  0.17145956188E+03 0.  0.
         24    2    3    3    0    0 -0.94141995688E+01 -0.12866661332E+03 -0.21131769028E+03  0.26077867080E+03  0.81893982580E+02 0.  0.
         -6    2    1    2    0  503  0.65092073079E+02  0.11072766383E+03 -0.53488869743E+03  0.57645660511E+03  0.17233312343E+03 0.  0.
        -24    2    5    5    0    0  0.21002838432E+02  0.12728539574E+03 -0.48265979457E+03  0.50597279568E+03  0.80033127450E+02 0.  0.
          5    1    3    3  501    0 -0.55677873510E+02  0.17938949494E+02 -0.12313948386E+03  0.13640840881E+03  0.47000000000E+01 0. -1.
        -13    1    4    4    0    0 -0.23821957134E+02 -0.63875722373E+01 -0.14466544807E+02  0.28593139727E+02  0.00000000000E+00 0.  1.
         14    1    4    4    0    0  0.14407757566E+02 -0.12227904108E+03 -0.19685114547E+03  0.23218553107E+03  0.00000000000E+00 0. -1.
         -5    1    5    5    0  503  0.44089234647E+02 -0.16557731917E+02 -0.52228902861E+02  0.70483809432E+02  0.47000000000E+01 0.  1.
         11    1    6    6    0    0 -0.30453867420E+02  0.37804285906E+02 -0.14842346664E+03  0.15616058249E+03  0.00000000000E+00 0. -1.
        -12    1    6    6    0    0  0.51456705852E+02  0.89481109836E+02 -0.33423632792E+03  0.34981221319E+03  0.00000000000E+00 0.  1.
</event>
<event>
12    1  0.1683022E-002  0.1756339E+03  0.7818608E-02  0.1172407E+00
         21   -1    0    0  503  502  0.00000000000E+00  0.00000000000E+00  0.15822158268E+04  0.15822158268E+04  0.00000000000E+00 0. -1.
         21   -1    0    0  501  503 -0.00000000000E+00 -0.00000000000E+00 -0.19453549560E+02  0.19453549560E+02  0.00000000000E+00 0. -1.
          6    2    1    2  501    0 -0.34915970226E+01 -0.29721454444E+02  0.83447836988E+03  0.85250669235E+03  0.17180790024E+03 0.  0.
         24    2    3    3    0    0  0.89728661137E+01  0.11735050806E+02  0.77157145771E+03  0.77599934454E+03  0.81450872501E+02 0.  0.
         -6    2    1    2    0  502  0.34915970226E+01  0.29721454444E+02  0.72828390732E+03  0.74916268398E+03  0.17306565604E+03 0.  0.
        -24    2    5    5    0    0  0.55544812626E+02  0.59847411415E+02  0.45696196262E+03  0.47121521014E+03  0.81009876694E+02 0.  0.
          5    1    3    3  501    0 -0.12464463136E+02 -0.41456505250E+02  0.62906912170E+02  0.76507347801E+02  0.47000000000E+01 0. -1.
        -11    1    4    4    0    0 -0.11601839220E+02  0.35024781631E+02  0.18715636530E+03  0.19075859896E+03  0.00000000000E+00 0.  1.
         12    1    4    4    0    0  0.20574705334E+02 -0.23289730825E+02  0.58441509241E+03  0.58524074559E+03  0.00000000000E+00 0. -1.
         -5    1    5    5    0  502 -0.52053215604E+02 -0.30125956971E+02  0.27132194471E+03  0.27794747385E+03  0.47000000000E+01 0.  1.
         13    1    6    6    0    0  0.30689369152E+02  0.23709084707E+02  0.38494203133E+03  0.38689058603E+03  0.00000000000E+00 0. -1.
        -14    1    6    6    0    0  0.24855443474E+02  0.36138326708E+02  0.72019931289E+02  0.84324624105E+02  0.00000000000E+00 0.  1.
</event>
<event>
12    1  0.1683022E-002  0.2152714E+03  0.7818608E-02  0.1137549E+00
         21   -1    0    0  501  502  0.00000000000E+00  0.00000000000E+00  0.60489038883E+03  0.60489038883E+03  0.00000000000E+00 0.  1.
         21   -1    0    0  502  503 -0.00000000000E+00 -0.00000000000E+00 -0.80392177259E+02  0.80392177259E+02  0.00000000000E+00 0.  1.
          6    2    1    2  501    0 -0.63718841181E+02  0.11201158664E+03  0.18603722447E+03  0.28416213883E+03  0.17184756616E+03 0.  0.
         24    2    3    3    0    0 -0.49841281485E+02  0.85708997346E+02  0.36785650695E+02  0.13190401872E+03  0.78837177091E+02 0.  0.
         -6    2    1    2    0  503  0.63718841181E+02 -0.11201158664E+03  0.33846098711E+03  0.40112042726E+03  0.17243860097E+03 0.  0.
        -24    2    5    5    0    0  0.46852784113E+02 -0.13345943872E+03  0.33614792289E+03  0.37333707783E+03  0.79865777733E+02 0.  0.
          5    1    3    3  501    0 -0.13877559696E+02  0.26302589299E+02  0.14925157377E+03  0.15225812011E+03  0.47000000000E+01 0. -1.
        -13    1    4    4    0    0 -0.67982824860E+02  0.52283500520E+02  0.12220262466E+02  0.86628885006E+02  0.00000000000E+00 0.  1.
         14    1    4    4    0    0  0.18141543375E+02  0.33425496825E+02  0.24565388229E+02  0.45275133715E+02  0.00000000000E+00 0. -1.
         -5    1    5    5    0  503  0.16866057068E+02  0.21447852073E+02  0.23130642148E+01  0.27783349432E+02  0.47000000000E+01 0.  1.
         11    1    6    6    0    0  0.19677942997E+01 -0.41893152491E+02  0.32604737714E+02  0.53122286862E+02  0.00000000000E+00 0. -1.
        -12    1    6    6    0    0  0.44884989813E+02 -0.91566286226E+02  0.30354318518E+03  0.32021479096E+03  0.00000000000E+00 0.  1.
</event>
<event>
12    1  0.1683022E-002  0.1832488E+03  0.7818608E-02  0.1165030E+00
         21   -1    0    0  501  502  0.00000000000E+00  0.00000000000E+00  0.26614716786E+03  0.26614716786E+03  0.00000000000E+00 0. -1.
         21   -1    0    0  502  503 -0.00000000000E+00 -0.00000000000E+00 -0.13385942740E+03  0.13385942740E+03  0.00000000000E+00 0. -1.
          6    2    1    2  501    0 -0.87684700368E+01  0.64464706944E+02  0.11676493302E+03  0.21610149992E+03  0.16980348694E+03 0.  0.
         24    2    3    3    0    0  0.22176497884E+02  0.67250088536E+02  0.14305488390E+02  0.10893164789E+03  0.81529659923E+02 0.  0.
         -6    2    1    2    0  503  0.87684700368E+01 -0.64464706944E+02  0.15522807440E+02  0.18390509534E+03  0.17131124316E+03 0.  0.
        -24    2    5    5    0    0  0.11638550419E+02 -0.16002808098E+02 -0.55389461972E+02  0.97838650346E+02  0.78184802111E+02 0.  0.
          5    1    3    3  501    0 -0.30944967920E+02 -0.27853815915E+01  0.10245944463E+03  0.10716985203E+03  0.47000000000E+01 0. -1.
        -11    1    4    4    0    0 -0.11034486237E+02 -0.92405630140E+01 -0.14766075728E+02  0.20620011730E+02  0.00000000000E+00 0.  1.
         12    1    4    4    0    0  0.33210984120E+02  0.76490651550E+02  0.29071564119E+02  0.88311636159E+02  0.00000000000E+00 0. -1.
         -5    1    5    5    0  503 -0.28700803826E+01 -0.48461898846E+02  0.70912269412E+02  0.86066444996E+02  0.47000000000E+01 0.  1.
         13    1    6    6    0    0 -0.20707108792E+02  0.16414485842E+02 -0.42877733036E+02  0.50365858379E+02  0.00000000000E+00 0. -1.
        -14    1    6    6    0    0  0.32345659211E+02 -0.32417293940E+02 -0.12511728937E+02  0.47472791968E+02  0.00000000000E+00 0.  1.
</event>
<event>
12    1  0.1683022E-002  0.1765578E+03  0.7818608E-02  0.1171367E+00
         21   -1    0    0  501  502  0.00000000000E+00  0.00000000000E+00  0.40743867522E+03  0.40743867522E+03  0.00000000000E+00 0.  1.
         21   -1    0    0  502  503 -0.00000000000E+00 -0.00000000000E+00 -0.84485117786E+02  0.84485117786E+02  0.00000000000E+00 0.  1.
          6    2    1    2  501    0 -0.35107843705E+02  0.87036627565E+01  0.23828870890E+03  0.29611570561E+03  0.17203106663E+03 0.  0.
         24    2    3    3    0    0 -0.90818662971E+02  0.34797687308E+02  0.15277429212E+03  0.19066714480E+03  0.59624384160E+02 0.  0.
         -6    2    1    2    0  503  0.35107843705E+02 -0.87036627565E+01  0.84664848531E+02  0.19580808739E+03  0.17281306686E+03 0.  0.
        -24    2    5    5    0    0  0.60604035168E+02  0.43389023623E+02  0.24321795541E+02  0.11198042013E+03  0.79953788563E+02 0.  0.
          5    1    3    3  501    0  0.55710819266E+02 -0.26094024551E+02  0.85514416776E+02  0.10544856081E+03  0.47000000000E+01 0. -1.
        -11    1    4    4    0    0 -0.49911588901E+02 -0.69919831020E+01  0.99609730114E+02  0.11163401304E+03  0.00000000000E+00 0.  1.
         12    1    4    4    0    0 -0.40907074070E+02  0.41789670410E+02  0.53164562010E+02  0.79033131759E+02  0.00000000000E+00 0. -1.
         -5    1    5    5    0  503 -0.25496191463E+02 -0.52092686380E+02  0.60343052991E+02  0.83827667256E+02  0.47000000000E+01 0.  1.
         11    1    6    6    0    0  0.18045295518E+02  0.56080296351E+02  0.31796359524E+02  0.66945058131E+02  0.00000000000E+00 0. -1.
        -12    1    6    6    0    0  0.42558739650E+02 -0.12691272728E+02 -0.74745639833E+01  0.45035362004E+02  0.00000000000E+00 0.  1.
</event>
<event>
12    1  0.1683022E-002  0.1946444E+03  0.7818608E-02  0.1155124E+00
         21   -1    0    0  501  502  0.00000000000E+00  0.00000000000E+00  0.15484202511E+03  0.15484202511E+03  0.00000000000E+00 0.  1.
         21   -1    0    0  502  503 -0.00000000000E+00 -0.00000000000E+00 -0.24707941081E+03  0.24707941081E+03  0.00000000000E+00 0.  1.
          6    2    1    2  501    0 -0.51000423276E+02 -0.65854832085E+02 -0.80017829888E+02  0.21045023892E+03  0.17592199373E+03 0.  0.
         24    2    3    3    0    0 -0.81150299836E+01 -0.56020636492E+02  0.18418720960E+02  0.10252566849E+03  0.83475133977E+02 0.  0.
         -6    2    1    2    0  503  0.51000423276E+02  0.65854832085E+02 -0.12219555814E+02  0.19147119700E+03  0.17197092677E+03 0.  0.
        -24    2    5    5    0    0  0.90902054462E+02  0.48457318858E+02 -0.43497588429E+02  0.13766395807E+03  0.80299625745E+02 0.  0.
          5    1    3    3  501    0 -0.42885393292E+02 -0.98341955930E+01 -0.98436550848E+02  0.10792457044E+03  0.47000000000E+01 0. -1.
        -11    1    4    4    0    0 -0.41807047054E+02 -0.51985629133E+02  0.15352696162E+02  0.68454657250E+02  0.00000000000E+00 0.  1.
         12    1    4    4    0    0  0.33692017071E+02 -0.40350073584E+01  0.30660247984E+01  0.34071011238E+02  0.00000000000E+00 0. -1.
         -5    1    5    5    0  503 -0.39901631186E+02  0.17397513227E+02  0.31278032616E+02  0.53807238938E+02  0.47000000000E+01 0.  1.
         11    1    6    6    0    0  0.56475861334E+02  0.13678980827E+02 -0.62343066001E+02  0.85224968808E+02  0.00000000000E+00 0. -1.
        -12    1    6    6    0    0  0.34426193127E+02  0.34778338031E+02  0.18845477572E+02  0.52438989257E+02  0.00000000000E+00 0.  1.
</event>
<event>
12    1  0.1683022E-002  0.1988222E+03  0.7818608E-02  0.1151000E+00
         21   -1    0    0  503  502  0.00000000000E+00  0.00000000000E+00  0.63558180927E+02  0.63558180927E+02  0.00000000000E+00 0. -1.
         21   -1    0    0  501  503 -0.00000000000E+00 -0.00000000000E+00 -0.64189389476E+03  0.64189389476E+03  0.00000000000E+00 0. -1.
          6    2    1    2  501    0  0.80778869533E+02  0.55526842424E+02 -0.22211643889E+03  0.29810394379E+03  0.17297916893E+03 0.  0.
         24    2    3    3    0    0 -0.56424873161E+01  0.40547580039E+02 -0.17832378505E+03  0.19995652533E+03  0.80667811386E+02 0.  0.
         -6    2    1    2    0  502 -0.80778869533E+02 -0.55526842424E+02 -0.35621927494E+03  0.40734813190E+03  0.17155719958E+03 0.  0.
        -24    2    5    5    0    0  0.47542823224E+01 -0.77958573424E+02 -0.17058197012E+03  0.20167265557E+03  0.73983167699E+02 0.  0.
          5    1    3    3  501    0  0.86421356849E+02  0.14979262385E+02 -0.43792653835E+02  0.98147418464E+02  0.47000000000E+01 0. -1.
        -13    1    4    4    0    0 -0.15992626501E+02 -0.17448523119E+02 -0.19863780320E+02  0.30899592716E+02  0.00000000000E+00 0.  1.
         14    1    4    4    0    0  0.10350139185E+02  0.57996103158E+02 -0.15846000473E+03  0.16905693261E+03  0.00000000000E+00 0. -1.
         -5    1    5    5    0  502 -0.85533151856E+02  0.22431731000E+02 -0.18563730482E+03  0.20567547633E+03  0.47000000000E+01 0.  1.
         11    1    6    6    0    0  0.93848904338E+01 -0.38297578094E+02 -0.16920623111E+02  0.42907903035E+02  0.00000000000E+00 0. -1.
        -12    1    6    6    0    0 -0.46306081115E+01 -0.39660995329E+02 -0.15366134701E+03  0.15876475254E+03  0.00000000000E+00 0.  1.
</event>
<event>
12    1  0.1683022E-002  0.1777735E+03  0.7818608E-02  0.1170122E+00
         21   -1    0    0  503  502  0.00000000000E+00  0.00000000000E+00  0.38185175753E+03  0.38185175753E+03  0.00000000000E+00 0. -1.
         21   -1    0    0  501  503 -0.00000000000E+00 -0.00000000000E+00 -0.93392907262E+02  0.93392907262E+02  0.00000000000E+00 0.  1.
          6    2    1    2  501    0  0.45099953829E+01 -0.40924633037E+02  0.63242151744E+02  0.18868758066E+03  0.17294006964E+03 0.  0.
         24    2    3    3    0    0 -0.45179214590E+02 -0.57317335811E+02  0.79075725260E+02  0.13381928068E+03  0.79549928603E+02 0.  0.
         -6    2    1    2    0  502 -0.45099953829E+01  0.40924633037E+02  0.22521669853E+03  0.28655708414E+03  0.17232885866E+03 0.  0.
        -24    2    5    5    0    0 -0.54813887408E+02  0.44464244377E+02  0.77204287275E+02  0.13011931924E+03  0.77388009315E+02 0.  0.
          5    1    3    3  501    0  0.49689209973E+02  0.16392702774E+02 -0.15833573515E+02  0.54868299976E+02  0.47000000000E+01 0. -1.
        -11    1    4    4    0    0 -0.26936653058E+02 -0.76551902485E+02  0.55238504303E+02  0.98168576488E+02  0.00000000000E+00 0.  1.
         12    1    4    4    0    0 -0.18242561532E+02  0.19234566674E+02  0.23837220957E+02  0.35650704192E+02  0.00000000000E+00 0. -1.
         -5    1    5    5    0  502  0.50303892025E+02 -0.35396113401E+01  0.14801241125E+03  0.15643776490E+03  0.47000000000E+01 0.  1.
         11    1    6    6    0    0 -0.46311720948E+01  0.51682380799E+02  0.25913160313E+02  0.58000069978E+02  0.00000000000E+00 0. -1.
        -12    1    6    6    0    0 -0.50182715313E+02 -0.72181364211E+01  0.51291126962E+02  0.72119249265E+02  0.00000000000E+00 0.  1.
</event>
<event>
12    1  0.1683022E-002  0.2032444E+03  0.7818608E-02  0.1147265E+00
         21   -1    0    0  503  502  0.00000000000E+00  0.00000000000E+00  0.17276267894E+03  0.17276267894E+03  0.00000000000E+00 0.  1.
         21   -1    0    0  501  503 -0.00000000000E+00 -0.00000000000E+00 -0.23826468247E+03  0.23826468247E+03  0.00000000000E+00 0. -1.
          6    2    1    2  501    0 -0.45606069739E+02  0.99077253357E+02 -0.41985956185E+02  0.20642705536E+03  0.17015608404E+03 0.  0.
         24    2    3    3    0    0  0.30997330266E+02  0.71443057374E+02 -0.47893722471E+02  0.12464245178E+03  0.84717101004E+02 0.  0.
         -6    2    1    2    0  502  0.45606069739E+02 -0.99077253357E+02 -0.23516047349E+02  0.20460030606E+03  0.17149946071E+03 0.  0.
        -24    2    5    5    0    0  0.83318275915E+02 -0.23019675044E+02 -0.42355471377E-01  0.11639560140E+03  0.77949302049E+02 0.  0.
          5    1    3    3  501    0 -0.76603400005E+02  0.27634195983E+02  0.59077662862E+01  0.81784603578E+02  0.47000000000E+01 0. -1.
        -13    1    4    4    0    0  0.78694543687E+01  0.86226909534E+02 -0.28973631498E+02  0.91304323896E+02  0.00000000000E+00 0.  1.
         14    1    4    4    0    0  0.23127875898E+02 -0.14783852161E+02 -0.18920090973E+02  0.33338127882E+02  0.00000000000E+00 0. -1.
         -5    1    5    5    0  502 -0.37712206176E+02 -0.76057578313E+02 -0.23473691878E+02  0.88204704659E+02  0.47000000000E+01 0.  1.
         13    1    6    6    0    0  0.24525339751E+02 -0.45945846062E+02 -0.83478633027E+01  0.52746562750E+02  0.00000000000E+00 0. -1.
        -14    1    6    6    0    0  0.58792936163E+02  0.22926171018E+02  0.83055078313E+01  0.63649038646E+02  0.00000000000E+00 0.  1.
</event>
<event>
12    1  0.1683022E-002  0.2407718E+03  0.7818608E-02  0.1120719E+00
         21   -1    0    0  501  502  0.00000000000E+00  0.00000000000E+00  0.43251025698E+02  0.43251025698E+02  0.00000000000E+00 0.  1.
         21   -1    0    0  502  503 -0.00000000000E+00 -0.00000000000E+00 -0.20645400470E+04  0.20645400470E+04  0.00000000000E+00 0. -1.
          6    2    1    2  501    0  0.86805601633E+02 -0.14794862025E+03 -0.35520143633E+03  0.42439602509E+03  0.15658837452E+03 0.  0.
         24    2    3    3    0    0  0.11432031697E+03 -0.14504165767E+03 -0.31978458478E+03  0.37920804698E+03  0.86199448382E+02 0.  0.
         -6    2    1    2    0  503 -0.86805601633E+02  0.14794862025E+03 -0.16660875850E+04  0.16833950476E+04  0.16895868963E+03 0.  0.
        -24    2    5    5    0    0 -0.10933231343E+03  0.85883774288E+02 -0.14009874382E+04  0.14101558197E+04  0.80274880245E+02 0.  0.
          5    1    3    3  501    0 -0.27514715341E+02 -0.29069625774E+01 -0.35416851544E+02  0.45187978103E+02  0.47000000000E+01 0. -1.
        -11    1    4    4    0    0  0.10463851785E+03 -0.74899234631E+02 -0.16712190392E+03  0.21092379082E+03  0.00000000000E+00 0.  1.
         12    1    4    4    0    0  0.96817991293E+01 -0.70142423037E+02 -0.15266268086E+03  0.16828425616E+03  0.00000000000E+00 0. -1.
         -5    1    5    5    0  503  0.22526711793E+02  0.62064845958E+02 -0.26510014680E+03  0.27323922793E+03  0.47000000000E+01 0.  1.
         11    1    6    6    0    0 -0.22238257216E+02  0.51029582939E+02 -0.79542197006E+03  0.79736733622E+03  0.00000000000E+00 0. -1.
        -12    1    6    6    0    0 -0.87094056210E+02  0.34854191349E+02 -0.60556546811E+03  0.61278848345E+03  0.00000000000E+00 0.  1.
</event>
<event>
12    1  0.1683022E-002  0.1896945E+03  0.7818608E-02  0.1159171E+00
         21   -1    0    0  501  502  0.00000000000E+00  0.00000000000E+00  0.73407708710E+02  0.73407708710E+02  0.00000000000E+00 0.  1.
         21   -1    0    0  502  503 -0.00000000000E+00 -0.00000000000E+00 -0.72288988191E+03  0.72288988191E+03  0.00000000000E+00 0.  1.
          6    2    1    2  501    0 -0.75834757018E+02 -0.17469638345E+02 -0.97577001973E+02  0.21331963037E+03  0.17299680561E+03 0.  0.
         24    2    3    3    0    0 -0.57191126836E+02 -0.58691523076E+01  0.14338646935E+02  0.99173414078E+02  0.79526708258E+02 0.  0.
         -6    2    1    2    0  503  0.75834757018E+02  0.17469638345E+02 -0.55190517122E+03  0.58297796025E+03  0.17090314648E+03 0.  0.
        -24    2    5    5    0    0  0.95830148322E+02  0.53086127274E+02 -0.31310315814E+03  0.34066237798E+03  0.77561033378E+02 0.  0.
          5    1    3    3  501    0 -0.18643630182E+02 -0.11600486037E+02 -0.11191564891E+03  0.11414621629E+03  0.47000000000E+01 0. -1.
        -11    1    4    4    0    0  0.91757440099E+01 -0.16103991530E+02  0.25062097143E+02  0.31171165114E+02  0.00000000000E+00 0.  1.
         12    1    4    4    0    0 -0.66366870846E+02  0.10234839222E+02 -0.10723450208E+02  0.68002248964E+02  0.00000000000E+00 0. -1.
         -5    1    5    5    0  503 -0.19995391304E+02 -0.35616488929E+02 -0.23880201309E+03  0.24231558227E+03  0.47000000000E+01 0.  1.
         11    1    6    6    0    0  0.60612095911E+00 -0.11098221319E+02 -0.56606781453E+01  0.12473218355E+02  0.00000000000E+00 0. -1.
        -12    1    6    6    0    0  0.95224027363E+02  0.64184348593E+02 -0.30744247999E+03  0.32818915963E+03  0.00000000000E+00 0.  1.
</event>
<event>
12    1  0.1683022E-002  0.2748554E+03  0.7818608E-02  0.1098689E+00
         21   -1    0    0  501  502  0.00000000000E+00  0.00000000000E+00  0.16372843177E+03  0.16372843177E+03  0.00000000000E+00 0. -1.
         21   -1    0    0  502  503 -0.00000000000E+00 -0.00000000000E+00 -0.80012008472E+03  0.80012008472E+03  0.00000000000E+00 0.  1.
          6    2    1    2  501    0  0.11581961475E+02  0.21406669604E+03 -0.34048012511E+01  0.27376314045E+03  0.17022330103E+03 0.  0.
         24    2    3    3    0    0  0.21636691925E+02  0.35007198899E+02 -0.25656427889E+02  0.92985304395E+02  0.79337028740E+02 0.  0.
         -6    2    1    2    0  503 -0.11581961475E+02 -0.21406669604E+03 -0.63298685170E+03  0.69008537604E+03  0.17200808010E+03 0.  0.
        -24    2    5    5    0    0  0.55517099574E+02 -0.94282779851E+02 -0.27081831834E+03  0.30273720304E+03  0.79598125832E+02 0.  0.
          5    1    3    3  501    0 -0.10054730451E+02  0.17905949714E+03  0.22251626638E+02  0.18077783606E+03  0.47000000000E+01 0. -1.
        -11    1    4    4    0    0  0.36426380756E+02  0.31685789853E+02  0.14216189396E+02  0.50328625399E+02  0.00000000000E+00 0.  1.
         12    1    4    4    0    0 -0.14789688831E+02  0.33214090462E+01 -0.39872617286E+02  0.42656678996E+02  0.00000000000E+00 0. -1.
         -5    1    5    5    0  503 -0.67099061049E+02 -0.11978391619E+03 -0.36216853336E+03  0.38734817300E+03  0.47000000000E+01 0.  1.
         13    1    6    6    0    0 -0.93013859890E+00 -0.43003011019E+01 -0.10949589806E+03  0.10958425726E+03  0.00000000000E+00 0. -1.
        -14    1    6    6    0    0  0.56447238173E+02 -0.89982478749E+02 -0.16132242028E+03  0.19315294578E+03  0.00000000000E+00 0.  1.
</event>
<event>
12    1  0.1683022E-002  0.2312897E+03  0.7818608E-02  0.1125970E+00
         21   -1    0    0  503  502  0.00000000000E+00  0.00000000000E+00  0.31046540425E+04  0.31046540425E+04  0.00000000000E+00 0. -1.
         21   -1    0    0  501  503 -0.00000000000E+00 -0.00000000000E+00 -0.18268091727E+02  0.18268091727E+02  0.00000000000E+00 0.  1.
          6    2    1    2  501    0  0.15213304159E+03  0.22425532964E+02  0.11578288201E+04  0.11807042482E+04  0.17276451622E+03 0.  0.
         24    2    3    3    0    0  0.49516177838E+02  0.67450643036E+02  0.50806544738E+03  0.52133181030E+03  0.81577671552E+02 0.  0.
         -6    2    1    2    0  502 -0.15213304159E+03 -0.22425532964E+02  0.19285571306E+04  0.19422178860E+04  0.17096883889E+03 0.  0.
        -24    2    5    5    0    0 -0.88538403955E+02 -0.72775661248E+02  0.93569136006E+03  0.94603319346E+03  0.79530723591E+02 0.  0.
          5    1    3    3  501    0  0.10261686375E+03 -0.45025110072E+02  0.64976337276E+03  0.65937243789E+03  0.47000000000E+01 0. -1.
        -11    1    4    4    0    0  0.20698724707E+02 -0.16810377213E+02  0.15048878872E+03  0.15283292027E+03  0.00000000000E+00 0.  1.
         12    1    4    4    0    0  0.28817453132E+02  0.84261020248E+02  0.35757665866E+03  0.36849889003E+03  0.00000000000E+00 0. -1.
         -5    1    5    5    0  502 -0.63594637631E+02  0.50350128284E+02  0.99286577056E+03  0.99618469256E+03  0.47000000000E+01 0.  1.
         11    1    6    6    0    0 -0.76205603150E+02 -0.26253923430E+02  0.74558947504E+03  0.74993348221E+03  0.00000000000E+00 0. -1.
        -12    1    6    6    0    0 -0.12332800804E+02 -0.46521737818E+02  0.19010188502E+03  0.19609971125E+03  0.00000000000E+00 0.  1.
</event>
<event>
12    1  0.1683022E-002  0.2403331E+03  0.7818608E-02  0.1119607E+00
         21   -1    0    0  503  502  0.00000000000E+00  0.00000000000E+00  0.87902627999E+02  0.87902627999E+02  0.00000000000E+00 0. -1.
         21   -1    0    0  501  503 -0.00000000000E+00 -0.00000000000E+00 -0.11982566817E+04  0.11982566817E+04  0.00000000000E+00 0.  1.
          6    2    1    2  501    0  0.17584731851E+02  0.16672650181E+03 -0.98771795377E+03  0.10165366455E+04  0.17220059862E+03 0.  0.
         24    2    3    3    0    0 -0.45814220975E+02  0.14782153902E+03 -0.72229200768E+03  0.74294964340E+03  0.79487596710E+02 0.  0.
         -6    2    1    2    0  502 -0.17584731851E+02 -0.16672650181E+03 -0.12263609988E+03  0.26962266419E+03  0.17190060748E+03 0.  0.
        -24    2    5    5    0    0 -0.43412524915E+02 -0.31941252681E+02 -0.23542870891E+02  0.10028366600E+03  0.81225956162E+02 0.  0.
          5    1    3    3  501    0  0.63398952826E+02  0.18904962784E+02 -0.26542594609E+03  0.27358700205E+03  0.47000000000E+01 0. -1.
        -13    1    4    4    0    0  0.11029701597E+02  0.75629081907E+02 -0.23646763574E+03  0.24851228360E+03  0.00000000000E+00 0.  1.
         14    1    4    4    0    0 -0.56843922572E+02  0.72192457114E+02 -0.48582437194E+03  0.49443735980E+03  0.00000000000E+00 0. -1.
         -5    1    5    5    0  502  0.25827793063E+02 -0.13478524912E+03 -0.99093228992E+02  0.16933899819E+03  0.47000000000E+01 0.  1.
         13    1    6    6    0    0 -0.28408057704E+02 -0.47266518674E+02 -0.44072588504E+02  0.70594154060E+02  0.00000000000E+00 0. -1.
        -14    1    6    6    0    0 -0.15004467211E+02  0.15325265992E+02  0.20529717613E+02  0.29689511941E+02  0.00000000000E+00 0.  1.
</event>
<event>
12    1  0.1683022E-002  0.2098752E+03  0.7818608E-02  0.1141721E+00
         21   -1    0    0  503  502  0.00000000000E+00  0.00000000000E+00  0.25669274502E+03  0.25669274502E+03  0.00000000000E+00 0. -1.
         21   -1    0    0  501  503 -0.00000000000E+00 -0.00000000000E+00 -0.22382341629E+03  0.22382341629E+03  0.00000000000E+00 0. -1.
          6    2    1    2  501    0  0.92671721062E+02  0.76294220894E+02 -0.99887597979E+02  0.23217770903E+03  0.17181414468E+03 0.  0.
         24    2    3    3    0    0  0.76210435820E+02  0.62597978054E+02  0.35911904028E+01  0.12640195271E+03  0.78981134557E+02 0.  0.
         -6    2    1    2    0  502 -0.92671721062E+02 -0.76294220894E+02  0.13275692671E+03  0.24833845228E+03  0.17215902319E+03 0.  0.
        -24    2    5    5    0    0 -0.56179995521E+02 -0.11329852268E+03  0.64986094688E+02  0.16280518357E+03  0.79306923756E+02 0.  0.
          5    1    3    3  501    0  0.16461285242E+02  0.13696242839E+02 -0.10347878838E+03  0.10577575632E+03  0.47000000000E+01 0. -1.
        -13    1    4    4    0    0  0.62942641303E+02  0.81670848640E+02  0.34087216987E+01  0.10316745124E+03  0.00000000000E+00 0.  1.
         14    1    4    4    0    0  0.13267794516E+02 -0.19072870585E+02  0.18246870406E+00  0.23234501469E+02  0.00000000000E+00 0. -1.
         -5    1    5    5    0  502 -0.36491725540E+02  0.37004301788E+02  0.67770832022E+02  0.85533268713E+02  0.47000000000E+01 0.  1.
         11    1    6    6    0    0  0.15797510809E+02 -0.26819530674E+02  0.34013603770E+02  0.46106114722E+02  0.00000000000E+00 0. -1.
        -12    1    6    6    0    0 -0.71977506330E+02 -0.86478992008E+02  0.30972490918E+02  0.11669906885E+03  0.00000000000E+00 0.  1.
</event>
<event>
12    1  0.1683022E-002  0.1933043E+03  0.7818608E-02  0.1155978E+00
         21   -1    0    0  501  502  0.00000000000E+00  0.00000000000E+00  0.17649182121E+03  0.17649182121E+03  0.00000000000E+00 0. -1.
         21   -1    0    0  502  503 -0.00000000000E+00 -0.00000000000E+00 -0.24096039376E+03  0.24096039376E+03  0.00000000000E+00 0. -1.
          6    2    1    2  501    0 -0.48460813674E+02  0.69465465945E+02  0.43412390710E+02  0.19608178046E+03  0.17143374096E+03 0.  0.
         24    2    3    3    0    0 -0.87617946335E+02  0.85151954327E+02  0.16227257801E+02  0.14567872096E+03  0.77660839543E+02 0.  0.
         -6    2    1    2    0  503  0.48460813674E+02 -0.69465465945E+02 -0.10788096326E+03  0.22137043451E+03  0.17376036839E+03 0.  0.
        -24    2    5    5    0    0  0.22406507546E+02 -0.40959328024E+01  0.10601080983E+02  0.83486107852E+02  0.79616072751E+02 0.  0.
          5    1    3    3  501    0  0.39157132661E+02 -0.15686488382E+02  0.27185132910E+02  0.50403059504E+02  0.47000000000E+01 0. -1.
        -13    1    4    4    0    0 -0.11230409723E+02  0.59997508944E+02 -0.82948952725E+01  0.61600555757E+02  0.00000000000E+00 0.  1.
         14    1    4    4    0    0 -0.76387536612E+02  0.25154445383E+02  0.24522153073E+02  0.84078165201E+02  0.00000000000E+00 0. -1.
         -5    1    5    5    0  503  0.26054306128E+02 -0.65369533142E+02 -0.11848204424E+03  0.13788432666E+03  0.47000000000E+01 0.  1.
         11    1    6    6    0    0  0.37867688890E+02  0.41564025303E+01 -0.23771466555E+02  0.44903453832E+02  0.00000000000E+00 0. -1.
        -12    1    6    6    0    0 -0.15461181344E+02 -0.82523353327E+01  0.34372547538E+02  0.38582654021E+02  0.00000000000E+00 0.  1.
</event>
<event>
12    1  0.1683022E-002  0.1742248E+03  0.7818608E-02  0.1173732E+00
         21   -1    0    0  503  502  0.00000000000E+00  0.00000000000E+00  0.83575248753E+02  0.83575248753E+02  0.00000000000E+00 0. -1.
         21   -1    0    0  501  503 -0.00000000000E+00 -0.00000000000E+00 -0.41893947862E+03  0.41893947862E+03  0.00000000000E+00 0. -1.
          6    2    1    2  501    0 -0.12447077017E+02 -0.22588279150E+02 -0.26116990747E+03  0.31394905741E+03  0.17230533944E+03 0.  0.
         24    2    3    3    0    0  0.83429238674E+01 -0.78715489924E+02 -0.15036138120E+03  0.18792085652E+03  0.80249427564E+02 0.  0.
         -6    2    1    2    0  502  0.12447077017E+02  0.22588279150E+02 -0.74194322394E+02  0.18856566996E+03  0.17142652750E+03 0.  0.
        -24    2    5    5    0    0 -0.43156383711E+02  0.28878890244E+02  0.12517957664E+01  0.94515027335E+02  0.78962393852E+02 0.  0.
          5    1    3    3  501    0 -0.20790000885E+02  0.56127210774E+02 -0.11080852627E+03  0.12602820089E+03  0.47000000000E+01 0. -1.
        -11    1    4    4    0    0  0.12607347899E+02  0.52839543977E+01  0.20691641814E+01  0.13825586264E+02  0.00000000000E+00 0.  1.
         12    1    4    4    0    0 -0.42644240315E+01 -0.83999444322E+02 -0.15243054538E+03  0.17409527025E+03  0.00000000000E+00 0. -1.
         -5    1    5    5    0  502  0.55603460729E+02 -0.62906110936E+01 -0.75446118161E+02  0.94050642626E+02  0.47000000000E+01 0.  1.
         11    1    6    6    0    0  0.22289190197E+02  0.16395034443E+02  0.32478828786E+01  0.27859538712E+02  0.00000000000E+00 0. -1.
        -12    1    6    6    0    0 -0.65445573909E+02  0.12483855800E+02 -0.19960871121E+01  0.66655488623E+02  0.00000000000E+00 0.  1.
</event>
<event>
12    1  0.1683022E-002  0.2017541E+03  0.7818608E-02  0.1148403E+00
         21   -1    0    0  503  502  0.00000000000E+00  0.00000000000E+00  0.25295925773E+02  0.25295925773E+02  0.00000000000E+00 0. -1.
         21   -1    0    0  501  503 -0.00000000000E+00 -0.00000000000E+00 -0.17913300197E+04  0.17913300197E+04  0.00000000000E+00 0. -1.
          6    2    1    2  501    0  0.96099064133E+02  0.41013177473E+02 -0.11755059856E+04  0.11925841444E+04  0.17182988284E+03 0.  0.
         24    2    3    3    0    0  0.21507938057E+02  0.42457346572E+02 -0.24581517590E+03  0.25989287008E+03  0.69670549996E+02 0.  0.
         -6    2    1    2    0  502 -0.96099064133E+02 -0.41013177473E+02 -0.59052810842E+03  0.62404180108E+03  0.17259087986E+03 0.  0.
        -24    2    5    5    0    0 -0.81141400770E+02  0.28791508457E+02 -0.25262212442E+03  0.27864497149E+03  0.80076241862E+02 0.  0.
          5    1    3    3  501    0  0.74591126076E+02 -0.14441690995E+01 -0.92969080965E+03  0.93269127435E+03  0.47000000000E+01 0. -1.
        -13    1    4    4    0    0  0.26775035114E+02  0.26253439138E+02 -0.45977867660E+02  0.59330513957E+02  0.00000000000E+00 0.  1.
         14    1    4    4    0    0 -0.52670970560E+01  0.16203907434E+02 -0.19983730824E+03  0.20056235612E+03  0.00000000000E+00 0. -1.
         -5    1    5    5    0  502 -0.14957663363E+02 -0.69804685929E+02 -0.33790598400E+03  0.34539682959E+03  0.47000000000E+01 0.  1.
         11    1    6    6    0    0 -0.85999156130E+02  0.25215756843E+01 -0.22153845102E+03  0.23765836506E+03  0.00000000000E+00 0. -1.
        -12    1    6    6    0    0  0.48577553599E+01  0.26269932772E+02 -0.31083673397E+02  0.40986606432E+02  0.00000000000E+00 0.  1.
</event>
<event>
12    1  0.1683022E-002  0.1842298E+03  0.7818608E-02  0.1163852E+00
         21   -1    0    0  501  502  0.00000000000E+00  0.00000000000E+00  0.85524589437E+03  0.85524589437E+03  0.00000000000E+00 0.  1.
         21   -1    0    0  502  503 -0.00000000000E+00 -0.00000000000E+00 -0.41929529697E+02  0.41929529697E+02  0.00000000000E+00 0.  1.
          6    2    1    2  501    0  0.64310754770E+02  0.13775922018E+01  0.51251356812E+03  0.54461985541E+03  0.17263504413E+03 0.  0.
         24    2    3    3    0    0  0.10378116786E+02  0.30391876082E+02  0.12297404878E+03  0.15026762043E+03  0.80164640805E+02 0.  0.
         -6    2    1    2    0  503 -0.64310754770E+02 -0.13775922018E+01  0.30080279655E+03  0.35255556865E+03  0.17226530596E+03 0.  0.
        -24    2    5    5    0    0 -0.28100555462E+01  0.30375422739E+02  0.25607225375E+03  0.27001163234E+03  0.80016996571E+02 0.  0.
          5    1    3    3  501    0  0.53932637985E+02 -0.29014283880E+02  0.38953951934E+03  0.39435223498E+03  0.47000000000E+01 0. -1.
        -11    1    4    4    0    0  0.11073626933E+02  0.44246285364E+02  0.12770930025E+03  0.13560982395E+03  0.00000000000E+00 0.  1.
         12    1    4    4    0    0 -0.69551014739E+00 -0.13854409282E+02 -0.47352514719E+01  0.14657796472E+02  0.00000000000E+00 0. -1.
         -5    1    5    5    0  503 -0.61500699224E+02 -0.31753014940E+02  0.44730542802E+02  0.82543936314E+02  0.47000000000E+01 0.  1.
         13    1    6    6    0    0  0.38186996195E+02  0.11666177992E+02  0.10395815900E+03  0.11136267422E+03  0.00000000000E+00 0. -1.
        -14    1    6    6    0    0 -0.40997051741E+02  0.18709244747E+02  0.15211409475E+03  0.15864895812E+03  0.00000000000E+00 0.  1.
</event>
<event>
12    1  0.1683022E-002  0.1774061E+03  0.7818608E-02  0.1170811E+00
         21   -1    0    0  503  502  0.00000000000E+00  0.00000000000E+00  0.11020460086E+04  0.11020460086E+04  0.00000000000E+00 0. -1.
         21   -1    0    0  501  503 -0.00000000000E+00 -0.00000000000E+00 -0.30006636021E+02  0.30006636021E+02  0.00000000000E+00 0. -1.
          6    2    1    2  501    0  0.36825998609E+02 -0.30843541250E+01  0.39640628012E+03  0.43351631992E+03  0.17155988254E+03 0.  0.
         24    2    3    3    0    0  0.86890248338E+02  0.20481184719E+02  0.27696946285E+03  0.30180069046E+03  0.80013619018E+02 0.  0.
         -6    2    1    2    0  502 -0.36825998609E+02  0.30843541250E+01  0.67563309244E+03  0.69853632469E+03  0.17351441985E+03 0.  0.
        -24    2    5    5    0    0  0.18248198374E+02 -0.50999921014E+01  0.15932273762E+03  0.17921116336E+03  0.79836706385E+02 0.  0.
          5    1    3    3  501    0 -0.50064249729E+02 -0.23565538844E+02  0.11943681727E+03  0.13171562945E+03  0.47000000000E+01 0. -1.
        -11    1    4    4    0    0 -0.13782557741E+02  0.12965390208E+02  0.42623720798E+02  0.46635199322E+02  0.00000000000E+00 0.  1.
         12    1    4    4    0    0  0.10067280608E+03  0.75157945107E+01  0.23434574205E+03  0.25516549114E+03  0.00000000000E+00 0. -1.
         -5    1    5    5    0  502 -0.55074196984E+02  0.81843462264E+01  0.51631035482E+03  0.51932516133E+03  0.47000000000E+01 0.  1.
         11    1    6    6    0    0  0.21208891584E+02  0.23437685579E+02  0.14247527159E+03  0.14593952584E+03  0.00000000000E+00 0. -1.
        -12    1    6    6    0    0 -0.29606932098E+01 -0.28537677680E+02  0.16847466031E+02  0.33271637521E+02  0.00000000000E+00 0.  1.
</event>
<event>
12    1  0.1683022E-002  0.1887902E+03  0.7818608E-02  0.1160401E+00
         21   -1    0    0  501  502  0.00000000000E+00  0.00000000000E+00  0.19787512095E+03  0.19787512095E+03  0.00000000000E+00 0. -1.
         21   -1    0    0  502  503 -0.00000000000E+00 -0.00000000000E+00 -0.19755871549E+03  0.19755871549E+03  0.00000000000E+00 0. -1.
          6    2    1    2  501    0 -0.21698356236E+02  0.66302256248E+02  0.64500881030E+02  0.19603123507E+03  0.17146741271E+03 0.  0.
         24    2    3    3    0    0 -0.20114288816E+02 -0.30589232404E+02  0.21858281861E+02  0.90055053277E+02  0.79321134518E+02 0.  0.
         -6    2    1    2    0  503  0.21698356236E+02 -0.66302256248E+02 -0.64184475564E+02  0.19940260138E+03  0.17542788457E+03 0.  0.
        -24    2    5    5    0    0  0.44770792110E+02  0.13795717228E+02  0.13011622897E+01  0.93296609948E+02  0.80671052828E+02 0.  0.
          5    1    3    3  501    0 -0.15840674198E+01  0.96891488651E+02  0.42642599168E+02  0.10597618179E+03  0.47000000000E+01 0. -1.
        -11    1    4    4    0    0 -0.48202388043E+02 -0.32286849320E+02  0.76082038061E+01  0.58513208912E+02  0.00000000000E+00 0.  1.
         12    1    4    4    0    0  0.28088099227E+02  0.16976169159E+01  0.14250078055E+02  0.31541844365E+02  0.00000000000E+00 0. -1.
         -5    1    5    5    0  503 -0.23072435875E+02 -0.80097973475E+02 -0.65485637854E+02  0.10610599143E+03  0.47000000000E+01 0.  1.
         11    1    6    6    0    0  0.66161821140E+02  0.21698560681E+02 -0.44733411892E+01  0.69772665805E+02  0.00000000000E+00 0. -1.
        -12    1    6    6    0    0 -0.21391029030E+02 -0.79028434526E+01  0.57745034790E+01  0.23523944143E+02  0.00000000000E+00 0.  1.
</event>
<event>
12    1  0.1683022E-002  0.1729609E+03  0.7818608E-02  0.1174820E+00
         21   -1    0    0  501  502  0.00000000000E+00  0.00000000000E+00  0.13526767035E+03  0.13526767035E+03  0.00000000000E+00 0.  1.
         21   -1    0    0  502  503 -0.00000000000E+00 -0.00000000000E+00 -0.34809077240E+03  0.34809077240E+03  0.00000000000E+00 0.  1.
          6    2    1    2  501    0  0.94938151817E+01  0.12578810289E+02  0.39622573566E+02  0.17734487382E+03  0.17214208358E+03 0.  0.
         24    2    3    3    0    0  0.35710667094E+02 -0.22632783833E+02  0.78087887285E+02  0.11878849036E+03  0.78901791190E+02 0.  0.
         -6    2    1    2    0  503 -0.94938151817E+01 -0.12578810289E+02 -0.25244567561E+03  0.30601356893E+03  0.17224147654E+03 0.  0.
        -24    2    5    5    0    0 -0.70662677662E+02 -0.20350383607E+02 -0.13676828275E+03  0.17484430306E+03  0.80359287078E+02 0.  0.
          5    1    3    3  501    0 -0.26216851912E+02  0.35211594122E+02 -0.38465313719E+02  0.58556383463E+02  0.47000000000E+01 0. -1.
        -11    1    4    4    0    0  0.58019533552E+02 -0.25629651900E+01  0.41046060693E+02  0.71116904900E+02  0.00000000000E+00 0.  1.
         12    1    4    4    0    0 -0.22308866458E+02 -0.20069818643E+02  0.37041826592E+02  0.47671585460E+02  0.00000000000E+00 0. -1.
         -5    1    5    5    0  503  0.61168862481E+02  0.77715733178E+01 -0.11567739286E+03  0.13116926587E+03  0.47000000000E+01 0.  1.
         13    1    6    6    0    0  0.67328595308E+01  0.20168505746E+02 -0.21821299602E+02  0.30467509544E+02  0.00000000000E+00 0. -1.
        -14    1    6    6    0    0 -0.77395537193E+02 -0.40518889353E+02 -0.11494698315E+03  0.14437679352E+03  0.00000000000E+00 0.  1.
</event>
<event>
12    1  0.1683022E-002  0.2132028E+03  0.7818608E-02  0.1139489E+00
         21   -1    0    0  503  502  0.00000000000E+00  0.00000000000E+00  0.14450027183E+03  0.14450027183E+03  0.00000000000E+00 0.  1.
         21   -1    0    0  501  503 -0.00000000000E+00 -0.00000000000E+00 -0.37737630517E+03  0.37737630517E+03  0.00000000000E+00 0.  1.
          6    2    1    2  501    0 -0.36502803694E+02 -0.11756574794E+03 -0.67453378482E+01  0.21108642960E+03  0.17134124259E+03 0.  0.
         24    2    3    3    0    0 -0.78106544779E+02 -0.11516422907E+03 -0.27416055872E+02  0.16433167424E+03  0.83004982032E+02 0.  0.
         -6    2    1    2    0  502  0.36502803694E+02  0.11756574794E+03 -0.22613069549E+03  0.31079014741E+03  0.17407258405E+03 0.  0.
        -24    2    5    5    0    0  0.40095500370E+01  0.12743688927E+03 -0.10358246110E+03  0.18353681458E+03  0.81854742194E+02 0.  0.
          5    1    3    3  501    0  0.41603741085E+02 -0.24015188616E+01  0.20670718024E+02  0.46754755359E+02  0.47000000000E+01 0. -1.
        -11    1    4    4    0    0 -0.32975577354E+02 -0.80434405960E+02  0.21172946597E+02  0.89472766983E+02  0.00000000000E+00 0.  1.
         12    1    4    4    0    0 -0.45130967425E+02 -0.34729823114E+02 -0.48589002469E+02  0.74858907254E+02  0.00000000000E+00 0. -1.
         -5    1    5    5    0  502  0.32493253657E+02 -0.98711413319E+01 -0.12254823439E+03  0.12725333283E+03  0.47000000000E+01 0.  1.
         11    1    6    6    0    0  0.33611474692E+02  0.11418976452E+03 -0.83303694500E+02  0.14528778018E+03  0.00000000000E+00 0. -1.
        -12    1    6    6    0    0 -0.29601924655E+02  0.13247124743E+02 -0.20278766602E+02  0.38249034394E+02  0.00000000000E+00 0.  1.
</event>
<event>
12    1  0.1683022E-002  0.2491847E+03  0.7818608E-02  0.1114671E+00
         21   -1    0    0  501  502  0.00000000000E+00  0.00000000000E+00  0.49495012283E+03  0.49495012283E+03  0.00000000000E+00 0. -1.
         21   -1    0    0  502  503 -0.00000000000E+00 -0.00000000000E+00 -0.18635036753E+03  0.18635036753E+03  0.00000000000E+00 0.  1.
          6    2    1    2  501    0 -0.71928672943E+01 -0.18053532179E+03 -0.43530297998E+02  0.25295828628E+03  0.17160497662E+03 0.  0.
         24    2    3    3    0    0  0.96509682345E+01 -0.10073645430E+02 -0.16438384358E+02  0.79473532807E+02  0.76493152742E+02 0.  0.
         -6    2    1    2    0  503  0.71928672943E+01  0.18053532179E+03  0.35213005330E+03  0.42834220408E+03  0.16381919791E+03 0.  0.
        -24    2    5    5    0    0  0.52058898927E+02  0.11608593467E+03  0.29606930086E+03  0.33174208886E+03  0.78801709556E+02 0.  0.
          5    1    3    3  501    0 -0.16843835529E+02 -0.17046167636E+03 -0.27091913640E+02  0.17348475348E+03  0.47000000000E+01 0. -1.
        -11    1    4    4    0    0  0.55263992121E+01 -0.42306878048E+02  0.82966290529E+00  0.42674364190E+02  0.00000000000E+00 0.  1.
         12    1    4    4    0    0  0.41245690224E+01  0.32233232618E+02 -0.17268047263E+02  0.36799168617E+02  0.00000000000E+00 0. -1.
         -5    1    5    5    0  503 -0.44866031633E+02  0.64449387126E+02  0.56060752445E+02  0.96600115218E+02  0.47000000000E+01 0.  1.
         11    1    6    6    0    0 -0.20174944531E+02  0.31270925286E+02  0.92038104755E+02  0.99276945370E+02  0.00000000000E+00 0. -1.
        -12    1    6    6    0    0  0.72233843458E+02  0.84815009382E+02  0.20403119610E+03  0.23246514349E+03  0.00000000000E+00 0.  1.
</event>
<event>
12    1  0.1683022E-002  0.1843376E+03  0.7818608E-02  0.1163700E+00
         21   -1    0    0  501  502  0.00000000000E+00  0.00000000000E+00  0.81095453151E+02  0.81095453151E+02  0.00000000000E+00 0. -1.
         21   -1    0    0  502  503 -0.00000000000E+00 -0.00000000000E+00 -0.53576135395E+03  0.53576135395E+03  0.00000000000E+00 0.  1.
          6    2    1    2  501    0  0.63963270450E+02  0.18446122577E+02 -0.83118305196E+02  0.20209427883E+03  0.17176112911E+03 0.  0.
         24    2    3    3    0    0 -0.25783940439E+02 -0.72715674851E+01 -0.61410346750E+02  0.10612924924E+03  0.82307348263E+02 0.  0.
         -6    2    1    2    0  503 -0.63963270450E+02 -0.18446122577E+02 -0.37154759560E+03  0.41476252827E+03  0.17189758478E+03 0.  0.
        -24    2    5    5    0    0  0.22286690769E+02  0.19852700608E+02 -0.22321464953E+03  0.23889152850E+03  0.79709198464E+02 0.  0.
          5    1    3    3  501    0  0.89747210889E+02  0.25717690062E+02 -0.21707958446E+02  0.95965029591E+02  0.47000000000E+01 0. -1.
        -11    1    4    4    0    0  0.17939896382E+01 -0.39218537844E+02 -0.47647612498E+02  0.61738214148E+02  0.00000000000E+00 0.  1.
         12    1    4    4    0    0 -0.27577930077E+02  0.31946970359E+02 -0.13762734252E+02  0.44391035092E+02  0.00000000000E+00 0. -1.
         -5    1    5    5    0  503 -0.86249961219E+02 -0.38298823185E+02 -0.14833294607E+03  0.17587099976E+03  0.47000000000E+01 0.  1.
         13    1    6    6    0    0  0.27292937092E+01  0.30949790846E+02 -0.21105172192E+03  0.21332643512E+03  0.00000000000E+00 0. -1.
        -14    1    6    6    0    0  0.19557397060E+02 -0.11097090238E+02 -0.12162927610E+02  0.25565093381E+02  0.00000000000E+00 0.  1.
</event>
<event>
12    1  0.1683022E-002  0.2336648E+03  0.7818608E-02  0.1124351E+00
         21   -1    0    0  503  502  0.00000000000E+00  0.00000000000E+00  0.55470585348E+02  0.55470585348E+02  0.00000000000E+00 0.  1.
         21   -1    0    0  501  503 -0.00000000000E+00 -0.00000000000E+00 -0.12625788036E+04  0.12625788036E+04  0.00000000000E+00 0.  1.
          6    2    1    2  501    0  0.74219112559E+02  0.13712567374E+03 -0.29213471875E+03  0.37408810880E+03  0.17403244576E+03 0.  0.
         24    2    3    3    0    0  0.68799116738E+02  0.16995343715E+03 -0.24576264778E+03  0.31682121285E+03  0.79742790300E+02 0.  0.
         -6    2    1    2    0  502 -0.74219112559E+02 -0.13712567374E+03 -0.91497349951E+03  0.94396128016E+03  0.17197228429E+03 0.  0.
        -24    2    5    5    0    0 -0.12339677068E+02 -0.45745008690E+00 -0.35142753387E+03  0.36076884769E+03  0.80624890781E+02 0.  0.
          5    1    3    3  501    0  0.54199958209E+01 -0.32827763411E+02 -0.46372070970E+02  0.57266895946E+02  0.47000000000E+01 0. -1.
        -13    1    4    4    0    0  0.44338711675E+02  0.32669581731E+02 -0.10564719205E+03  0.11914089186E+03  0.00000000000E+00 0.  1.
         14    1    4    4    0    0  0.24460405063E+02  0.13728385542E+03 -0.14011545573E+03  0.19768032100E+03  0.00000000000E+00 0. -1.
         -5    1    5    5    0  502 -0.61879435492E+02 -0.13666822366E+03 -0.56354596564E+03  0.58319243246E+03  0.47000000000E+01 0.  1.
         13    1    6    6    0    0 -0.38894699528E+02  0.13687506290E+02 -0.28341205202E+03  0.28639576936E+03  0.00000000000E+00 0. -1.
        -14    1    6    6    0    0  0.26555022460E+02 -0.14144956377E+02 -0.68015481849E+02  0.74373078328E+02  0.00000000000E+00 0.  1.
</event>
<event>
12    1  0.1683022E-002  0.2350693E+03  0.7818608E-02  0.1123154E+00
         21   -1    0    0  503  502  0.00000000000E+00  0.00000000000E+00  0.11265414825E+04  0.11265414825E+04  0.00000000000E+00 0. -1.
         21   -1    0    0  501  503 -0.00000000000E+00 -0.00000000000E+00 -0.49435895020E+02  0.49435895020E+02  0.00000000000E+00 0.  1.
          6    2    1    2  501    0  0.56169385004E+02  0.14985907865E+03  0.48386016018E+03  0.53785692488E+03  0.17192054490E+03 0.  0.
         24    2    3    3    0    0  0.83697139506E+01  0.13124232932E+03  0.21600656524E+03  0.26509506862E+03  0.79510741786E+02 0.  0.
         -6    2    1    2    0  502 -0.56169385004E+02 -0.14985907865E+03  0.59324542726E+03  0.63812045261E+03  0.17217674582E+03 0.  0.
        -24    2    5    5    0    0 -0.67227608093E+02 -0.75599125348E+02  0.50930819677E+03  0.52540677275E+03  0.80141490627E+02 0.  0.
          5    1    3    3  501    0  0.47799671053E+02  0.18616749332E+02  0.26785359494E+03  0.27276185626E+03  0.47000000000E+01 0. -1.
        -11    1    4    4    0    0  0.26353471176E+02  0.87263368900E+02  0.19045688324E+03  0.21114740199E+03  0.00000000000E+00 0.  1.
         12    1    4    4    0    0 -0.17983757225E+02  0.43978960422E+02  0.25549682003E+02  0.53947666624E+02  0.00000000000E+00 0. -1.
         -5    1    5    5    0  502  0.11058223089E+02 -0.74259953305E+02  0.83937230496E+02  0.11271367985E+03  0.47000000000E+01 0.  1.
         13    1    6    6    0    0 -0.49317288138E+02 -0.79857677678E+02  0.27901044410E+03  0.29437437305E+03  0.00000000000E+00 0. -1.
        -14    1    6    6    0    0 -0.17910319954E+02  0.42585523294E+01  0.23029775267E+03  0.23103239970E+03  0.00000000000E+00 0.  1.
</event>
<event>
12    1  0.1683022E-002  0.1743974E+03  0.7818608E-02  0.1173486E+00
         21   -1    0    0  501  502  0.00000000000E+00  0.00000000000E+00  0.20539088473E+03  0.20539088473E+03  0.00000000000E+00 0. -1.
         21   -1    0    0  502  503 -0.00000000000E+00 -0.00000000000E+00 -0.16639302670E+03  0.16639302670E+03  0.00000000000E+00 0. -1.
          6    2    1    2  501    0  0.29013359500E+02 -0.33273013897E+02  0.81967496335E+02  0.19217086391E+03  0.16811336056E+03 0.  0.
         24    2    3    3    0    0 -0.85605887201E+01  0.10216152863E+02  0.10315673865E+03  0.13073648266E+03  0.79202662262E+02 0.  0.
         -6    2    1    2    0  503 -0.29013359500E+02  0.33273013897E+02 -0.42969638304E+02  0.17961304751E+03  0.16871748142E+03 0.  0.
        -24    2    5    5    0    0  0.15817258198E+02 -0.61883691745E+01 -0.76411913736E+02  0.11100210944E+03  0.78703279275E+02 0.  0.
          5    1    3    3  501    0  0.37573948220E+02 -0.43489166760E+02 -0.21189242318E+02  0.61434381256E+02  0.47000000000E+01 0. -1.
        -11    1    4    4    0    0 -0.15773549198E+02  0.25872551184E+02  0.45584547947E+01  0.30642670725E+02  0.00000000000E+00 0.  1.
         12    1    4    4    0    0  0.72129604775E+01 -0.15656398321E+02  0.98598283858E+02  0.10009381193E+03  0.00000000000E+00 0. -1.
         -5    1    5    5    0  503 -0.44830617698E+02  0.39461383072E+02  0.33442275432E+02  0.68610938072E+02  0.47000000000E+01 0.  1.
         13    1    6    6    0    0 -0.30551053203E+02  0.87769757356E+01 -0.29577702348E+02  0.43419380823E+02  0.00000000000E+00 0. -1.
        -14    1    6    6    0    0  0.46368311401E+02 -0.14965344910E+02 -0.46834211387E+02  0.67582728613E+02  0.00000000000E+00 0.  1.
</event>
<event>
12    1  0.1683022E-002  0.2354555E+03  0.7818608E-02  0.1123312E+00
         21   -1    0    0  503  502  0.00000000000E+00  0.00000000000E+00  0.74003090867E+03  0.74003090867E+03  0.00000000000E+00 0. -1.
         21   -1    0    0  501  503 -0.00000000000E+00 -0.00000000000E+00 -0.74194359671E+02  0.74194359671E+02  0.00000000000E+00 0.  1.
          6    2    1    2  501    0  0.13837088530E+03 -0.80301503471E+02  0.31851381224E+03  0.39609387849E+03  0.17275554589E+03 0.  0.
         24    2    3    3    0    0  0.29316540343E+02 -0.91780248984E+02  0.15422237587E+03  0.19851255899E+03  0.79621738348E+02 0.  0.
         -6    2    1    2    0  502 -0.13837088530E+03  0.80301503471E+02  0.34732273677E+03  0.41813138985E+03  0.16913291326E+03 0.  0.
        -24    2    5    5    0    0 -0.14262968451E+03  0.22739758030E+02  0.30135029090E+03  0.34419190319E+03  0.82436308116E+02 0.  0.
          5    1    3    3  501    0  0.10905434495E+03  0.11478745513E+02  0.16429143637E+03  0.19758131950E+03  0.47000000000E+01 0. -1.
        -13    1    4    4    0    0  0.10300169320E+02  0.13512319939E+02  0.30742797650E+02  0.35125430752E+02  0.00000000000E+00 0.  1.
         14    1    4    4    0    0  0.19016371023E+02 -0.10529256892E+03  0.12347957822E+03  0.16338712824E+03  0.00000000000E+00 0. -1.
         -5    1    5    5    0  502  0.42587992183E+01  0.57561745441E+02  0.45972445864E+02  0.73939486661E+02  0.47000000000E+01 0.  1.
         13    1    6    6    0    0 -0.51814837518E+02 -0.22457653702E+02  0.16394466829E+03  0.17339832138E+03  0.00000000000E+00 0. -1.
        -14    1    6    6    0    0 -0.90814846997E+02  0.45197411733E+02  0.13740562261E+03  0.17079358181E+03  0.00000000000E+00 0.  1.
</event>
<event>
12    1  0.1683022E-002  0.1776420E+03  0.7818608E-02  0.1173885E+00
         21   -1    0    0  503  502  0.00000000000E+00  0.00000000000E+00  0.19072165078E+04  0.19072165078E+04  0.00000000000E+00 0.  1.
         21   -1    0    0  501  503 -0.00000000000E+00 -0.00000000000E+00 -0.15208298035E+02  0.15208298035E+02  0.00000000000E+00 0.  1.
          6    2    1    2  501    0  0.39658798035E+02  0.17378222632E+02  0.98838599731E+03  0.10042228680E+04  0.17228425967E+03 0.  0.
         24    2    3    3    0    0 -0.12896641132E+02 -0.40390616423E+02  0.43226693846E+03  0.44262709653E+03  0.85242684468E+02 0.  0.
         -6    2    1    2    0  502 -0.39658798035E+02 -0.17378222632E+02  0.90362221241E+03  0.91820193775E+03  0.15712056787E+03 0.  0.
        -24    2    5    5    0    0 -0.56973185201E+02  0.79409725939E+01  0.85416799809E+03  0.85981821601E+03  0.79846056603E+02 0.  0.
          5    1    3    3  501    0  0.52555439168E+02  0.57768839055E+02  0.55611905885E+03  0.56159577150E+03  0.47000000000E+01 0. -1.
        -13    1    4    4    0    0  0.25977611358E+02  0.57685076873E+01  0.23043056959E+03  0.23196197830E+03  0.00000000000E+00 0.  1.
         14    1    4    4    0    0 -0.38874252490E+02 -0.46159124110E+02  0.20183636887E+03  0.21066511824E+03  0.00000000000E+00 0. -1.
         -5    1    5    5    0  502  0.17314387165E+02 -0.25319195226E+02  0.49454214324E+02  0.58383721740E+02  0.47000000000E+01 0.  1.
         11    1    6    6    0    0 -0.60819173531E+01  0.10740250149E+02  0.62195810835E+03  0.62208056651E+03  0.00000000000E+00 0. -1.
        -12    1    6    6    0    0 -0.50891267847E+02 -0.27992775547E+01  0.23220988974E+03  0.23773764950E+03  0.00000000000E+00 0.  1.
</event>
<event>
12    1  0.1683022E-002  0.1925352E+03  0.7818608E-02  0.1156517E+00
         21   -1    0    0  503  502  0.00000000000E+00  0.00000000000E+00  0.19576073289E+03  0.19576073289E+03  0.00000000000E+00 0. -1.
         21   -1    0    0  501  503 -0.00000000000E+00 -0.00000000000E+00 -0.18870679693E+03  0.18870679693E+03  0.00000000000E+00 0. -1.
          6    2    1    2  501    0  0.26272867189E+02 -0.80233584548E+02  0.15784826171E+02  0.19318116954E+03  0.17303789148E+03 0.  0.
         24    2    3    3    0    0  0.12114253445E+02  0.23880849214E+02  0.24999555673E+02  0.87600475758E+02  0.79572705581E+02 0.  0.
         -6    2    1    2    0  502 -0.26272867189E+02  0.80233584548E+02 -0.87308902173E+01  0.19128636027E+03  0.17142506101E+03 0.  0.
        -24    2    5    5    0    0 -0.14263171993E+02  0.50916002798E+01 -0.58708616603E+02  0.10012488972E+03  0.79680169487E+02 0.  0.
          5    1    3    3  501    0  0.14158613744E+02 -0.10411443376E+03 -0.92147295017E+01  0.10558069379E+03  0.47000000000E+01 0. -1.
        -13    1    4    4    0    0 -0.30173544234E+02 -0.76418140833E+01  0.11213772845E+02  0.33084570354E+02  0.00000000000E+00 0.  1.
         14    1    4    4    0    0  0.42287797679E+02  0.31522663297E+02  0.13785782828E+02  0.54515905404E+02  0.00000000000E+00 0. -1.
         -5    1    5    5    0  502 -0.12009695196E+02  0.75141984268E+02  0.49977726386E+02  0.91161470552E+02  0.47000000000E+01 0.  1.
         13    1    6    6    0    0 -0.37429603536E+02  0.21217585107E+01 -0.59604603960E+00  0.37494430932E+02  0.00000000000E+00 0. -1.
        -14    1    6    6    0    0  0.23166431543E+02  0.29698417691E+01 -0.58112570564E+02  0.62630458789E+02  0.00000000000E+00 0.  1.
</event>
<event>
12    1  0.1683022E-002  0.2260945E+03  0.7818608E-02  0.1129822E+00
         21   -1    0    0  503  502  0.00000000000E+00  0.00000000000E+00  0.92671991904E+03  0.92671991904E+03  0.00000000000E+00 0.  1.
         21   -1    0    0  501  503 -0.00000000000E+00 -0.00000000000E+00 -0.12024835022E+03  0.12024835022E+03  0.00000000000E+00 0. -1.
          6    2    1    2  501    0  0.94079131974E+02 -0.10836455796E+03  0.79087764525E+03  0.82256075224E+03  0.17471399737E+03 0.  0.
         24    2    3    3    0    0 -0.12175032886E+02 -0.47932982415E+01  0.40172459109E+03  0.40605247747E+03  0.57660733958E+02 0.  0.
         -6    2    1    2    0  502 -0.94079131974E+02  0.10836455796E+03  0.15593923567E+02  0.22440751701E+03  0.17181909889E+03 0.  0.
        -24    2    5    5    0    0 -0.71867202769E+02  0.14417556693E+03  0.25012783926E+02  0.18097247249E+03  0.78574216547E+02 0.  0.
          5    1    3    3  501    0  0.10625416486E+03 -0.10357125972E+03  0.38915305416E+03  0.41650827477E+03  0.47000000000E+01 0. -1.
        -11    1    4    4    0    0  0.24127416574E+01 -0.25339329195E+02  0.30634046007E+03  0.30739612946E+03  0.00000000000E+00 0.  1.
         12    1    4    4    0    0 -0.14587774543E+02  0.20546030953E+02  0.95384131017E+02  0.98656348017E+02  0.00000000000E+00 0. -1.
         -5    1    5    5    0  502 -0.22211929205E+02 -0.35811008965E+02 -0.94188603592E+01  0.43435044522E+02  0.47000000000E+01 0.  1.
         11    1    6    6    0    0 -0.87437752114E+02  0.12857425356E+03  0.30041883476E+02  0.15836418136E+03  0.00000000000E+00 0. -1.
        -12    1    6    6    0    0  0.15570549345E+02  0.15601313364E+02 -0.50290995500E+01  0.22608291131E+02  0.00000000000E+00 0.  1.
</event>
<event>
12    1  0.1683022E-002  0.2371420E+03  0.7818608E-02  0.1121947E+00
         21   -1    0    0  503  502  0.00000000000E+00  0.00000000000E+00  0.10431138278E+03  0.10431138278E+03  0.00000000000E+00 0.  1.
         21   -1    0    0  501  503 -0.00000000000E+00 -0.00000000000E+00 -0.53634244524E+03  0.53634244524E+03  0.00000000000E+00 0. -1.
          6    2    1    2  501    0 -0.14191796548E+03  0.81698228770E+02 -0.22389757216E+03  0.32512907973E+03  0.16959801341E+03 0.  0.
         24    2    3    3    0    0 -0.14370547880E+03  0.70724990242E+02 -0.24313942728E+03  0.30241463154E+03  0.81759032459E+02 0.  0.
         -6    2    1    2    0  502  0.14191796548E+03 -0.81698228770E+02 -0.20813349031E+03  0.31552474829E+03  0.17152553013E+03 0.  0.
        -24    2    5    5    0    0  0.35036365170E+02 -0.18912421359E+02 -0.15954758579E+03  0.18230157382E+03  0.78696919386E+02 0.  0.
          5    1    3    3  501    0  0.17875133145E+01  0.10973238529E+02  0.19241855126E+02  0.22714448185E+02  0.47000000000E+01 0. -1.
        -11    1    4    4    0    0 -0.28952608866E+02  0.31617034840E+02 -0.17572258807E+02  0.46332221312E+02  0.00000000000E+00 0.  1.
         12    1    4    4    0    0 -0.11475286993E+03  0.39107955402E+02 -0.22556716848E+03  0.25608241023E+03  0.00000000000E+00 0. -1.
         -5    1    5    5    0  502  0.10688160031E+03 -0.62785807411E+02 -0.48585904520E+02  0.13322317447E+03  0.47000000000E+01 0.  1.
         13    1    6    6    0    0  0.59367406419E+02 -0.21951990376E+02 -0.12228061617E+03  0.13769142281E+03  0.00000000000E+00 0. -1.
        -14    1    6    6    0    0 -0.24331041250E+02  0.30395690166E+01 -0.37266969619E+02  0.44610151005E+02  0.00000000000E+00 0.  1.
</event>
<event>
12    1  0.1683022E-002  0.4574114E+03  0.7818608E-02  0.1025639E+00
         21   -1    0    0  501  502  0.00000000000E+00  0.00000000000E+00  0.15332635179E+03  0.15332635179E+03  0.00000000000E+00 0. -1.
         21   -1    0    0  502  503 -0.00000000000E+00 -0.00000000000E+00 -0.13657349944E+04  0.13657349944E+04  0.00000000000E+00 0.  1.
          6    2    1    2  501    0  0.19121264978E+02  0.42231129841E+03 -0.55753179528E+03  0.72025670872E+03  0.17092562171E+03 0.  0.
         24    2    3    3    0    0  0.90490688380E+01  0.16683102215E+03 -0.31197682665E+03  0.36572750919E+03  0.92263725352E+02 0.  0.
         -6    2    1    2    0  503 -0.19121264978E+02 -0.42231129841E+03 -0.65487684731E+03  0.79880463745E+03  0.17467887144E+03 0.  0.
        -24    2    5    5    0    0 -0.16926026423E+02 -0.11143167824E+03 -0.27685694658E+03  0.30934361483E+03  0.79625334437E+02 0.  0.
          5    1    3    3  501    0  0.10072196140E+02  0.25548027626E+03 -0.24555496863E+03  0.35452919952E+03  0.47000000000E+01 0. -1.
        -11    1    4    4    0    0  0.33305402479E+02  0.20941111519E+02 -0.98126912967E+02  0.10571977599E+03  0.00000000000E+00 0.  1.
         12    1    4    4    0    0 -0.24256333641E+02  0.14588991063E+03 -0.21384991368E+03  0.26000773321E+03  0.00000000000E+00 0. -1.
         -5    1    5    5    0  503 -0.21952385551E+01 -0.31087962017E+03 -0.37801990074E+03  0.48946102262E+03  0.47000000000E+01 0.  1.
         11    1    6    6    0    0  0.24211376114E+02 -0.76939949728E+01 -0.67093220558E+02  0.71741818605E+02  0.00000000000E+00 0. -1.
        -12    1    6    6    0    0 -0.41137402537E+02 -0.10373768327E+03 -0.20976372602E+03  0.23760179623E+03  0.00000000000E+00 0.  1.
</event>
<event>
12    1  0.1683022E-002  0.1907737E+03  0.7818608E-02  0.1158116E+00
         21   -1    0    0  501  502  0.00000000000E+00  0.00000000000E+00  0.10147971288E+03  0.10147971288E+03  0.00000000000E+00 0.  1.
         21   -1    0    0  502  503 -0.00000000000E+00 -0.00000000000E+00 -0.36330228483E+03  0.36330228483E+03  0.00000000000E+00 0.  1.
          6    2    1    2  501    0  0.17009980576E+02 -0.79050865287E+02 -0.97869326536E+02  0.21441320594E+03  0.17278958031E+03 0.  0.
         24    2    3    3    0    0  0.44617319646E+02 -0.99724735604E+02 -0.38788631081E+02  0.14584067019E+03  0.88482851876E+02 0.  0.
         -6    2    1    2    0  503 -0.17009980576E+02  0.79050865287E+02 -0.16395324541E+03  0.25036879176E+03  0.17107158287E+03 0.  0.
        -24    2    5    5    0    0  0.37036576772E+02  0.97826785397E+02 -0.10316966745E+03  0.16676078445E+03  0.78888471832E+02 0.  0.
          5    1    3    3  501    0 -0.27607339070E+02  0.20673870317E+02 -0.59080695456E+02  0.68572535755E+02  0.47000000000E+01 0. -1.
        -11    1    4    4    0    0 -0.44445628272E+01 -0.82595493806E+02 -0.30495726621E+01  0.82771188400E+02  0.00000000000E+00 0.  1.
         12    1    4    4    0    0  0.49061882474E+02 -0.17129241799E+02 -0.35739058419E+02  0.63069481789E+02  0.00000000000E+00 0. -1.
         -5    1    5    5    0  503 -0.54046557348E+02 -0.18775920110E+02 -0.60783577958E+02  0.83608007311E+02  0.47000000000E+01 0.  1.
         11    1    6    6    0    0 -0.26663291055E+01  0.34763409997E+02  0.51901662526E+01  0.35249706541E+02  0.00000000000E+00 0. -1.
        -12    1    6    6    0    0  0.39702905877E+02  0.63063375400E+02 -0.10835983371E+03  0.13151107791E+03  0.00000000000E+00 0.  1.
</event>
<event>
12    1  0.1683022E-002  0.2473363E+03  0.7818608E-02  0.1115102E+00
         21   -1    0    0  503  502  0.00000000000E+00  0.00000000000E+00  0.40678604417E+03  0.40678604417E+03  0.00000000000E+00 0. -1.
         21   -1    0    0  501  503 -0.00000000000E+00 -0.00000000000E+00 -0.16030113537E+03  0.16030113537E+03  0.00000000000E+00 0. -1.
          6    2    1    2  501    0 -0.16355146356E+03  0.73154757081E+02  0.51217958878E+02  0.25196115982E+03  0.16958905338E+03 0.  0.
         24    2    3    3    0    0 -0.83155088884E+02 -0.20713272013E+02  0.51613050457E+02  0.12827999696E+03  0.80299702354E+02 0.  0.
         -6    2    1    2    0  502  0.16355146356E+03 -0.73154757081E+02  0.19526694993E+03  0.31512601972E+03  0.17051254164E+03 0.  0.
        -24    2    5    5    0    0  0.86722727851E+02 -0.44590833047E+02  0.27844843618E+02  0.12865670839E+03  0.79170950356E+02 0.  0.
          5    1    3    3  501    0 -0.80396374681E+02  0.93868029093E+02 -0.39509157865E+00  0.12368116285E+03  0.47000000000E+01 0. -1.
        -13    1    4    4    0    0 -0.63202292155E+02  0.16334545622E+02  0.49804088060E+01  0.65468706924E+02  0.00000000000E+00 0.  1.
         14    1    4    4    0    0 -0.19952796728E+02 -0.37047817635E+02  0.46632641651E+02  0.62811290037E+02  0.00000000000E+00 0. -1.
         -5    1    5    5    0  502  0.76828735714E+02 -0.28563924034E+02  0.16742210631E+03  0.18646931133E+03  0.47000000000E+01 0.  1.
         13    1    6    6    0    0  0.57464336280E+02 -0.21081312640E+01 -0.17362529299E+02  0.60067059069E+02  0.00000000000E+00 0. -1.
        -14    1    6    6    0    0  0.29258391571E+02 -0.42482701783E+02  0.45207372917E+02  0.68589649322E+02  0.00000000000E+00 0.  1.
</event>
<event>
12    1  0.1683022E-002  0.2162569E+03  0.7818608E-02  0.1139663E+00
         21   -1    0    0  501  502  0.00000000000E+00  0.00000000000E+00  0.27250147547E+03  0.27250147547E+03  0.00000000000E+00 0. -1.
         21   -1    0    0  502  503 -0.00000000000E+00 -0.00000000000E+00 -0.16022762064E+03  0.16022762064E+03  0.00000000000E+00 0.  1.
          6    2    1    2  501    0 -0.42636403830E+02  0.12191568875E+03  0.45459976773E+02  0.20638607638E+03  0.15442572629E+03 0.  0.
         24    2    3    3    0    0 -0.37484189857E+02  0.14761096519E+03  0.49799020121E+02  0.17940997886E+03  0.80708962181E+02 0.  0.
         -6    2    1    2    0  503  0.42636403830E+02 -0.12191568875E+03  0.66813878055E+02  0.22634301973E+03  0.17345250123E+03 0.  0.
        -24    2    5    5    0    0  0.16234975380E+01 -0.39157311074E+01  0.63366628641E+02  0.10128294610E+03  0.78898269000E+02 0.  0.
          5    1    3    3  501    0 -0.51522139728E+01 -0.25695276437E+02 -0.43390433474E+01  0.26976097516E+02  0.47000000000E+01 0. -1.
        -13    1    4    4    0    0 -0.47083411683E+02  0.50311273877E+02 -0.16530628522E+01  0.68926080344E+02  0.00000000000E+00 0.  1.
         14    1    4    4    0    0  0.95992218252E+01  0.97299691315E+02  0.51452082973E+02  0.11048389852E+03  0.00000000000E+00 0. -1.
         -5    1    5    5    0  503  0.41012906292E+02 -0.11799995765E+03  0.34472494135E+01  0.12506007363E+03  0.47000000000E+01 0.  1.
         11    1    6    6    0    0  0.32775982827E+02 -0.22642049524E+02  0.46446819110E+02  0.61190150044E+02  0.00000000000E+00 0. -1.
        -12    1    6    6    0    0 -0.31152485289E+02  0.18726318417E+02  0.16919809531E+02  0.40092796057E+02  0.00000000000E+00 0.  1.
</event>
<event>
12    1  0.1683022E-002  0.2083643E+03  0.7818608E-02  0.1143014E+00
         21   -1    0    0  501  502  0.00000000000E+00  0.00000000000E+00  0.19842475140E+02  0.19842475140E+02  0.00000000000E+00 0.  1.
         21   -1    0    0  502  503 -0.00000000000E+00 -0.00000000000E+00 -0.24194456102E+04  0.24194456102E+04  0.00000000000E+00 0. -1.
          6    2    1    2  501    0 -0.11157871689E+03  0.34516229361E+02 -0.81829469580E+03  0.84440623182E+03  0.17255287600E+03 0.  0.
         24    2    3    3    0    0  0.64201427244E+01  0.39590917625E+02 -0.35942617614E+03  0.37055826922E+03  0.80731628244E+02 0.  0.
         -6    2    1    2    0  503  0.11157871689E+03 -0.34516229361E+02 -0.15813084392E+04  0.15948818535E+04  0.17166993460E+03 0.  0.
        -24    2    5    5    0    0  0.41811237374E+02 -0.35083784012E+02 -0.40551895628E+03  0.41701478903E+03  0.80477691909E+02 0.  0.
          5    1    3    3  501    0 -0.11799885962E+03 -0.50746882638E+01 -0.45886851966E+03  0.47384796261E+03  0.47000000000E+01 0. -1.
        -11    1    4    4    0    0 -0.15202400801E+02  0.51521056696E+02 -0.14350235642E+03  0.15322682067E+03  0.00000000000E+00 0.  1.
         12    1    4    4    0    0  0.21622543525E+02 -0.11930139071E+02 -0.21592381972E+03  0.21733144855E+03  0.00000000000E+00 0. -1.
         -5    1    5    5    0  503  0.69767479519E+02  0.56755465094E+00 -0.11757894829E+04  0.11778670644E+04  0.47000000000E+01 0.  1.
         13    1    6    6    0    0  0.15697689263E+02 -0.13253279675E+01 -0.32916742892E+03  0.32954418551E+03  0.00000000000E+00 0. -1.
        -14    1    6    6    0    0  0.26113548111E+02 -0.33758456045E+02 -0.76351527357E+02  0.87470603514E+02  0.00000000000E+00 0.  1.
</event>
<event>
12    1  0.1683022E-002  0.2068058E+03  0.7818608E-02  0.1144260E+00
         21   -1    0    0  503  502  0.00000000000E+00  0.00000000000E+00  0.83925711273E+02  0.83925711273E+02  0.00000000000E+00 0.  1.
         21   -1    0    0  501  503 -0.00000000000E+00 -0.00000000000E+00 -0.65358099123E+03  0.65358099123E+03  0.00000000000E+00 0.  1.
          6    2    1    2  501    0  0.15938949408E+02 -0.11314931767E+03 -0.45928628587E+03  0.50369885264E+03  0.17237117961E+03 0.  0.
         24    2    3    3    0    0  0.21366037468E+02 -0.13443139214E+03 -0.25823804112E+03  0.30139989886E+03  0.75011375168E+02 0.  0.
         -6    2    1    2    0  502 -0.15938949408E+02  0.11314931767E+03 -0.11036899408E+03  0.23380784986E+03  0.17154584695E+03 0.  0.
        -24    2    5    5    0    0  0.12602588204E+02  0.12492906549E+03 -0.13302630844E+03  0.19522254538E+03  0.68189052289E+02 0.  0.
          5    1    3    3  501    0 -0.54270880606E+01  0.21282074472E+02 -0.20104824476E+03  0.20229895378E+03  0.47000000000E+01 0. -1.
        -11    1    4    4    0    0 -0.40776972546E+01 -0.64134868480E+02 -0.18853559450E+03  0.19918729719E+03  0.00000000000E+00 0.  1.
         12    1    4    4    0    0  0.25443734723E+02 -0.70296523664E+02 -0.69702446617E+02  0.10221260167E+03  0.00000000000E+00 0. -1.
         -5    1    5    5    0  502 -0.28541537612E+02 -0.11779747820E+02  0.22657314362E+02  0.38585304483E+02  0.47000000000E+01 0.  1.
         13    1    6    6    0    0 -0.16612414930E+01  0.73667753148E+02 -0.11938278947E+03  0.14029236614E+03  0.00000000000E+00 0. -1.
        -14    1    6    6    0    0  0.14263829697E+02  0.51261312343E+02 -0.13643518976E+02  0.54930179235E+02  0.00000000000E+00 0.  1.
</event>
<event>
12    1  0.1683022E-002  0.2903844E+03  0.7818608E-02  0.1090177E+00
         21   -1    0    0  503  502  0.00000000000E+00  0.00000000000E+00  0.36387983854E+03  0.36387983854E+03  0.00000000000E+00 0. -1.
         21   -1    0    0  501  503 -0.00000000000E+00 -0.00000000000E+00 -0.23194025937E+03  0.23194025937E+03  0.00000000000E+00 0. -1.
          6    2    1    2  501    0 -0.22766948760E+02  0.23294235575E+03  0.53833156319E+02  0.29511471894E+03  0.17150572456E+03 0.  0.
         24    2    3    3    0    0 -0.37199785437E+02  0.18137607401E+03 -0.21730913573E+02  0.20238173211E+03  0.78772004091E+02 0.  0.
         -6    2    1    2    0  502  0.22766948760E+02 -0.23294235575E+03  0.78106422848E+02  0.30070537897E+03  0.17187971549E+03 0.  0.
        -24    2    5    5    0    0  0.72856291304E+02 -0.93956961851E+02  0.70145183508E+01  0.13668699330E+03  0.67068478490E+02 0.  0.
          5    1    3    3  501    0  0.14432836677E+02  0.51566281737E+02  0.75564069892E+02  0.92732986824E+02  0.47000000000E+01 0. -1.
        -11    1    4    4    0    0 -0.44618513941E+01 -0.59747738028E+01 -0.91113940072E+01  0.11773849864E+02  0.00000000000E+00 0.  1.
         12    1    4    4    0    0 -0.32737934043E+02  0.18735084781E+03 -0.12619519565E+02  0.19060788225E+03  0.00000000000E+00 0. -1.
         -5    1    5    5    0  502 -0.50089342544E+02 -0.13898539390E+03  0.71091904498E+02  0.16401838567E+03  0.47000000000E+01 0.  1.
         11    1    6    6    0    0  0.11124909585E+02 -0.63309810416E+02 -0.11552074998E+02  0.65309617553E+02  0.00000000000E+00 0. -1.
        -12    1    6    6    0    0  0.61731381719E+02 -0.30647151435E+02  0.18566593349E+02  0.71377375747E+02  0.00000000000E+00 0.  1.
</event>
<event>
12    1  0.1683022E-002  0.5784258E+03  0.7818608E-02  0.9951268E-01
         21   -1    0    0  501  502  0.00000000000E+00  0.00000000000E+00  0.94649189622E+03  0.94649189622E+03  0.00000000000E+00 0. -1.
         21   -1    0    0  502  503 -0.00000000000E+00 -0.00000000000E+00 -0.42211753127E+03  0.42211753127E+03  0.00000000000E+00 0.  1.
          6    2    1    2  501    0  0.55163893136E+03  0.21284032909E+02  0.53826877519E+03  0.79013272030E+03  0.17267866310E+03 0.  0.
         24    2    3    3    0    0  0.49242067732E+03  0.19651422163E+02  0.53338937165E+03  0.73050583367E+03  0.79184906387E+02 0.  0.
         -6    2    1    2    0  503 -0.55163893136E+03 -0.21284032909E+02 -0.13894410240E+02  0.57847670718E+03  0.17228965571E+03 0.  0.
        -24    2    5    5    0    0 -0.28439574165E+03 -0.83362774152E+01 -0.69139736986E+02  0.30523559946E+03  0.86244052318E+02 0.  0.
          5    1    3    3  501    0  0.59218254044E+02  0.16326107464E+01  0.48794035451E+01  0.59626886627E+02  0.47000000000E+01 0. -1.
        -13    1    4    4    0    0  0.79839697571E+01  0.92087553911E+01  0.27068033913E+02  0.29685407338E+02  0.00000000000E+00 0.  1.
         14    1    4    4    0    0  0.48443670756E+03  0.10442666772E+02  0.50632133774E+03  0.70082042634E+03  0.00000000000E+00 0. -1.
         -5    1    5    5    0  503 -0.26724318971E+03 -0.12947755494E+02  0.55245326745E+02  0.27324110772E+03  0.47000000000E+01 0.  1.
         13    1    6    6    0    0 -0.51182366948E+02 -0.10370511128E+02 -0.48215088627E+02  0.71076557027E+02  0.00000000000E+00 0. -1.
        -14    1    6    6    0    0 -0.23321337470E+03  0.20342337126E+01 -0.20924648359E+02  0.23415904244E+03  0.00000000000E+00 0.  1.
</event>
<event>
12    1  0.1683022E-002  0.2189515E+03  0.7818608E-02  0.1134881E+00
         21   -1    0    0  503  502  0.00000000000E+00  0.00000000000E+00  0.66237018765E+02  0.66237018765E+02  0.00000000000E+00 0. -1.
         21   -1    0    0  501  503 -0.00000000000E+00 -0.00000000000E+00 -0.72749692204E+03  0.72749692204E+03  0.00000000000E+00 0.  1.
          6    2    1    2  501    0  0.11854811044E+03 -0.64974446359E+02 -0.37175858297E+03  0.43144432704E+03  0.17223364989E+03 0.  0.
         24    2    3    3    0    0  0.12391967048E+03 -0.92419395210E+02 -0.23659764076E+03  0.29334056470E+03  0.78567257423E+02 0.  0.
         -6    2    1    2    0  502 -0.11854811044E+03  0.64974446359E+02 -0.28950132031E+03  0.36228961377E+03  0.17078470838E+03 0.  0.
        -24    2    5    5    0    0 -0.12616141770E+03  0.37820829699E+02 -0.13603355059E+03  0.20618154964E+03  0.81600159618E+02 0.  0.
          5    1    3    3  501    0 -0.53715600429E+01  0.27444948851E+02 -0.13516094221E+03  0.13810376234E+03  0.47000000000E+01 0. -1.
        -13    1    4    4    0    0  0.43544867657E+02 -0.77008185416E+02 -0.15033637225E+03  0.17443463229E+03  0.00000000000E+00 0.  1.
         14    1    4    4    0    0  0.80374802825E+02 -0.15411209794E+02 -0.86261268510E+02  0.11890593241E+03  0.00000000000E+00 0. -1.
         -5    1    5    5    0  502  0.76133072582E+01  0.27153616660E+02 -0.15346776972E+03  0.15610806413E+03  0.47000000000E+01 0.  1.
         11    1    6    6    0    0 -0.73161479700E+02 -0.17832667699E+01 -0.25764004230E+02  0.77585862541E+02  0.00000000000E+00 0. -1.
        -12    1    6    6    0    0 -0.52999937998E+02  0.39604096469E+02 -0.11026954636E+03  0.12859568710E+03  0.00000000000E+00 0.  1.
</event>
<event>
12    1  0.1683022E-002  0.1725695E+03  0.7818608E-02  0.1176162E+00
         21   -1    0    0  503  502  0.00000000000E+00  0.00000000000E+00  0.14120609092E+03  0.14120609092E+03  0.00000000000E+00 0. -1.
         21   -1    0    0  501  503 -0.00000000000E+00 -0.00000000000E+00 -0.21553122297E+03  0.21553122297E+03  0.00000000000E+00 0. -1.
          6    2    1    2  501    0  0.14320109359E+02 -0.69980797199E+01 -0.74840281123E+00  0.17257112661E+03  0.17183187999E+03 0.  0.
         24    2    3    3    0    0  0.30653893007E+01  0.32961747188E+02 -0.56207433533E+02  0.10313590083E+03  0.79886576257E+02 0.  0.
         -6    2    1    2    0  502 -0.14320109359E+02  0.69980797199E+01 -0.73576729237E+02  0.18416618729E+03  0.16807620535E+03 0.  0.
        -24    2    5    5    0    0 -0.46803289557E+02  0.28176507181E+02  0.23882944674E+01  0.98746882611E+02  0.82223958824E+02 0.  0.
          5    1    3    3  501    0  0.11254720058E+02 -0.39959826908E+02  0.55459030722E+02  0.69435225777E+02  0.47000000000E+01 0. -1.
        -11    1    4    4    0    0 -0.38059595501E+02  0.11118817158E+02 -0.21898353808E+02  0.45295681959E+02  0.00000000000E+00 0.  1.
         12    1    4    4    0    0  0.41124984802E+02  0.21842930030E+02 -0.34309079725E+02  0.57840218869E+02  0.00000000000E+00 0. -1.
         -5    1    5    5    0  502  0.32483180198E+02 -0.21178427461E+02 -0.75965023704E+02  0.85419304679E+02  0.47000000000E+01 0.  1.
         11    1    6    6    0    0  0.10587689081E+02  0.54516586691E+01 -0.27645673436E+02  0.30101544845E+02  0.00000000000E+00 0. -1.
        -12    1    6    6    0    0 -0.57390978639E+02  0.22724848512E+02  0.30033967903E+02  0.68645337766E+02  0.00000000000E+00 0.  1.
</event>
<event>
12    1  0.1683022E-002  0.2015512E+03  0.7818608E-02  0.1148477E+00
         21   -1    0    0  503  502  0.00000000000E+00  0.00000000000E+00  0.65945205999E+02  0.65945205999E+02  0.00000000000E+00 0. -1.
         21   -1    0    0  501  503 -0.00000000000E+00 -0.00000000000E+00 -0.76893101596E+03  0.76893101596E+03  0.00000000000E+00 0.  1.
          6    2    1    2  501    0 -0.82351610096E+02  0.64488398604E+02 -0.53814145888E+03  0.57464696082E+03  0.17228568883E+03 0.  0.
         24    2    3    3    0    0 -0.35806558726E+02  0.83578384472E+02 -0.23816339610E+03  0.27044341463E+03  0.90279462088E+02 0.  0.
         -6    2    1    2    0  502  0.82351610096E+02 -0.64488398604E+02 -0.16484435108E+03  0.26022926113E+03  0.17206123046E+03 0.  0.
        -24    2    5    5    0    0  0.41110143614E+01 -0.20492146492E+02 -0.75015940627E+01  0.79021937313E+02  0.75837748888E+02 0.  0.
          5    1    3    3  501    0 -0.46545051370E+02 -0.19089985869E+02 -0.29997806278E+03  0.30420354620E+03  0.47000000000E+01 0. -1.
        -11    1    4    4    0    0  0.41806817704E+01 -0.42437511194E+01  0.56611878639E+01  0.82180637415E+01  0.00000000000E+00 0.  1.
         12    1    4    4    0    0 -0.39987240496E+02  0.87822135592E+02 -0.24382458396E+03  0.26222535089E+03  0.00000000000E+00 0. -1.
         -5    1    5    5    0  502  0.78240595735E+02 -0.43996252112E+02 -0.15734275701E+03  0.18120732382E+03  0.47000000000E+01 0.  1.
         11    1    6    6    0    0  0.34608604108E+02  0.88064062411E+01 -0.85401836641E+01  0.36718428700E+02  0.00000000000E+00 0. -1.
        -12    1    6    6    0    0 -0.30497589747E+02 -0.29298552733E+02  0.10385896014E+01  0.42303508613E+02  0.00000000000E+00 0.  1.
</event>
<event>
12    1  0.1683022E-002  0.2007595E+03  0.7818608E-02  0.1150914E+00
         21   -1    0    0  501  502  0.00000000000E+00  0.00000000000E+00  0.27814774854E+03  0.27814774854E+03  0.00000000000E+00 0. -1.
         21   -1    0    0  502  503 -0.00000000000E+00 -0.00000000000E+00 -0.24534436307E+03  0.24534436307E+03  0.00000000000E+00 0.  1.
          6    2    1    2  501    0 -0.78384165608E+02 -0.35160005155E+02  0.18900858124E+03  0.27573290417E+03  0.18144995805E+03 0.  0.
         24    2    3    3    0    0 -0.85870813915E+02 -0.41056642348E+02  0.46469288124E+02  0.13279809275E+03  0.80103022015E+02 0.  0.
         -6    2    1    2    0  503  0.78384165608E+02  0.35160005155E+02 -0.15620519577E+03  0.24775920745E+03  0.17205888035E+03 0.  0.
        -24    2    5    5    0    0  0.67313853601E+02 -0.32335728408E+02 -0.13887900245E+03  0.17704490315E+03  0.80503206099E+02 0.  0.
          5    1    3    3  501    0  0.74866483063E+01  0.58966371924E+01  0.14253929312E+03  0.14293481142E+03  0.47000000000E+01 0. -1.
        -11    1    4    4    0    0 -0.37264167680E+02 -0.40517074594E+02  0.60899873050E+02  0.82091693027E+02  0.00000000000E+00 0.  1.
         12    1    4    4    0    0 -0.48606646234E+02 -0.53956775328E+00 -0.14430584926E+02  0.50706399722E+02  0.00000000000E+00 0. -1.
         -5    1    5    5    0  503  0.11070312007E+02  0.67495733564E+02 -0.17326193327E+02  0.70714304299E+02  0.47000000000E+01 0.  1.
         11    1    6    6    0    0  0.71998419328E+02 -0.72476928108E+01 -0.59560901120E+02  0.93721941823E+02  0.00000000000E+00 0. -1.
        -12    1    6    6    0    0 -0.46845657268E+01 -0.25088035598E+02 -0.79318101326E+02  0.83322961326E+02  0.00000000000E+00 0.  1.
</event>
<event>
12    1  0.1683022E-002  0.2016650E+03  0.7818608E-02  0.1148432E+00
         21   -1    0    0  503  502  0.00000000000E+00  0.00000000000E+00  0.21034040655E+03  0.21034040655E+03  0.00000000000E+00 0.  1.
         21   -1    0    0  501  503 -0.00000000000E+00 -0.00000000000E+00 -0.20151788433E+03  0.20151788433E+03  0.00000000000E+00 0.  1.
          6    2    1    2  501    0 -0.93244821032E+02 -0.46987915807E+02 -0.38082911680E+02  0.20522937328E+03  0.17252920510E+03 0.  0.
         24    2    3    3    0    0 -0.11864381322E+03 -0.47243456092E+02 -0.65068851460E+02  0.16787291399E+03  0.87401723450E+02 0.  0.
         -6    2    1    2    0  502  0.93244821032E+02  0.46987915807E+02  0.46905433901E+02  0.20662891761E+03  0.17202595439E+03 0.  0.
        -24    2    5    5    0    0  0.37336055364E+02  0.53948750741E+02 -0.34123074314E+02  0.10782632430E+03  0.78470907187E+02 0.  0.
          5    1    3    3  501    0  0.25398992184E+02  0.25554028490E+00  0.26985939780E+02  0.37356459289E+02  0.47000000000E+01 0. -1.
        -11    1    4    4    0    0 -0.31749510417E+02  0.71861907655E+01 -0.56211727230E+02  0.64957147626E+02  0.00000000000E+00 0.  1.
         12    1    4    4    0    0 -0.86894302799E+02 -0.54429646858E+02 -0.88571242297E+01  0.10291576636E+03  0.00000000000E+00 0. -1.
         -5    1    5    5    0  502  0.55908765669E+02 -0.69608349330E+01  0.81028508215E+02  0.98802593312E+02  0.47000000000E+01 0.  1.
         13    1    6    6    0    0  0.34296993778E+02  0.34274358136E+02 -0.58740059723E+02  0.76166987758E+02  0.00000000000E+00 0. -1.
        -14    1    6    6    0    0  0.30390615852E+01  0.19674392605E+02  0.24616985408E+02  0.31659336542E+02  0.00000000000E+00 0.  1.
</event>
<event>
12    1  0.1683022E-002  0.2372706E+03  0.7818608E-02  0.1121676E+00
         21   -1    0    0  503  502  0.00000000000E+00  0.00000000000E+00  0.10107296126E+04  0.10107296126E+04  0.00000000000E+00 0.  1.
         21   -1    0    0  501  503 -0.00000000000E+00 -0.00000000000E+00 -0.56885589605E+02  0.56885589605E+02  0.00000000000E+00 0.  1.
          6    2    1    2  501    0  0.11464669589E+03 -0.11583524231E+03  0.39725964522E+03  0.46256686931E+03  0.17202097146E+03 0.  0.
         24    2    3    3    0    0  0.10933691791E+03 -0.90143513479E+02  0.17187375196E+03  0.23561059697E+03  0.76755144144E+02 0.  0.
         -6    2    1    2    0  502 -0.11464669589E+03  0.11583524231E+03  0.55658437782E+03  0.60504833294E+03  0.17244027176E+03 0.  0.
        -24    2    5    5    0    0 -0.12936811045E+03  0.92631946294E+02  0.31456060812E+03  0.36142422065E+03  0.79764062176E+02 0.  0.
          5    1    3    3  501    0  0.53097779832E+01 -0.25691728826E+02  0.22538589326E+03  0.22695627234E+03  0.47000000000E+01 0. -1.
        -11    1    4    4    0    0  0.11869632291E+03 -0.67745525715E+02  0.14143877352E+03  0.19668045144E+03  0.00000000000E+00 0.  1.
         12    1    4    4    0    0 -0.93594050018E+01 -0.22397987765E+02  0.30434978446E+02  0.38930145529E+02  0.00000000000E+00 0. -1.
         -5    1    5    5    0  502  0.14721414557E+02  0.23203296012E+02  0.24202376970E+03  0.24362411229E+03  0.47000000000E+01 0.  1.
         11    1    6    6    0    0 -0.81392372416E+02  0.26300763293E+02  0.98949759316E+02  0.13079565477E+03  0.00000000000E+00 0. -1.
        -12    1    6    6    0    0 -0.47975738032E+02  0.66331183001E+02  0.21561084881E+03  0.23062856588E+03  0.00000000000E+00 0.  1.
</event>
<event>
12    1  0.1683022E-002  0.2106857E+03  0.7818608E-02  0.1141051E+00
         21   -1    0    0  501  502  0.00000000000E+00  0.00000000000E+00  0.68056476702E+02  0.68056476702E+02  0.00000000000E+00 0.  1.
         21   -1    0    0  502  503 -0.00000000000E+00 -0.00000000000E+00 -0.67460047931E+03  0.67460047931E+03  0.00000000000E+00 0.  1.
          6    2    1    2  501    0  0.11161221853E+03 -0.48276936746E+02 -0.23491287963E+03  0.31545892682E+03  0.17187880482E+03 0.  0.
         24    2    3    3    0    0  0.12307772745E+03 -0.14948663368E+02 -0.10265314563E+03  0.17850287934E+03  0.77162297116E+02 0.  0.
         -6    2    1    2    0  503 -0.11161221853E+03  0.48276936746E+02 -0.37163112297E+03  0.42719802919E+03  0.17204800097E+03 0.  0.
        -24    2    5    5    0    0 -0.11881934088E+02  0.57579337739E+02 -0.25798737652E+03  0.27564059650E+03  0.77224940919E+02 0.  0.
          5    1    3    3  501    0 -0.11465508919E+02 -0.33328273378E+02 -0.13225973400E+03  0.13695604747E+03  0.47000000000E+01 0. -1.
        -11    1    4    4    0    0  0.60915331849E+02 -0.32810824654E+02 -0.17133528238E+02  0.71279630040E+02  0.00000000000E+00 0.  1.
         12    1    4    4    0    0  0.62162395596E+02  0.17862161285E+02 -0.85519617393E+02  0.10722324930E+03  0.00000000000E+00 0. -1.
         -5    1    5    5    0  503 -0.99730284439E+02 -0.93024009928E+01 -0.11364374645E+03  0.15155743270E+03  0.47000000000E+01 0.  1.
         13    1    6    6    0    0 -0.90895500348E+01  0.19069963336E+02 -0.22153899552E+03  0.22254395062E+03  0.00000000000E+00 0. -1.
        -14    1    6    6    0    0 -0.27923840531E+01  0.38509374403E+02 -0.36448381001E+02  0.53096645875E+02  0.00000000000E+00 0.  1.
</event>
<event>
12    1  0.1683022E-002  0.1912726E+03  0.7818608E-02  0.1157631E+00
         21   -1    0    0  503  502  0.00000000000E+00  0.00000000000E+00  0.14569866184E+04  0.14569866184E+04  0.00000000000E+00 0. -1.
         21   -1    0    0  501  503 -0.00000000000E+00 -0.00000000000E+00 -0.30267928892E+02  0.30267928892E+02  0.00000000000E+00 0.  1.
          6    2    1    2  501    0 -0.76915838852E+02  0.41486249877E+02  0.40315233751E+03  0.44622527846E+03  0.17014122577E+03 0.  0.
         24    2    3    3    0    0  0.20553795254E+02 -0.53754671379E+01  0.19393115349E+03  0.21065799734E+03  0.79474180727E+02 0.  0.
         -6    2    1    2    0  502  0.76915838852E+02 -0.41486249877E+02  0.10235663520E+04  0.10410292688E+04  0.16857255535E+03 0.  0.
        -24    2    5    5    0    0  0.22903909621E+02 -0.78380925415E+02  0.47859930951E+03  0.49213066892E+03  0.80418515798E+02 0.  0.
          5    1    3    3  501    0 -0.97469634106E+02  0.46861717015E+02  0.20922118402E+03  0.23556728112E+03  0.47000000000E+01 0. -1.
        -13    1    4    4    0    0  0.22687180185E+02  0.15563424841E+02  0.16705611681E+02  0.32187043964E+02  0.00000000000E+00 0.  1.
         14    1    4    4    0    0 -0.21333849309E+01 -0.20938891979E+02  0.17722554181E+03  0.17847095338E+03  0.00000000000E+00 0. -1.
         -5    1    5    5    0  502  0.54011929231E+02  0.36894675538E+02  0.54496704251E+03  0.54889859993E+03  0.47000000000E+01 0.  1.
         13    1    6    6    0    0  0.18637875669E+02 -0.50481543458E+02  0.44503711318E+03  0.44827869540E+03  0.00000000000E+00 0. -1.
        -14    1    6    6    0    0  0.42660339512E+01 -0.27899381956E+02  0.33562196324E+02  0.43851973516E+02  0.00000000000E+00 0.  1.
</event>
<event>
12    1  0.1683022E-002  0.1906617E+03  0.7818608E-02  0.1159624E+00
         21   -1    0    0  503  502  0.00000000000E+00  0.00000000000E+00  0.17049397302E+03  0.17049397302E+03  0.00000000000E+00 0.  1.
         21   -1    0    0  501  503 -0.00000000000E+00 -0.00000000000E+00 -0.20624281787E+03  0.20624281787E+03  0.00000000000E+00 0.  1.
          6    2    1    2  501    0  0.10095686606E+02 -0.62153434369E+02 -0.21281263441E+01  0.19067356587E+03  0.17996362829E+03 0.  0.
         24    2    3    3    0    0  0.39224697770E+02 -0.26138664916E+02 -0.65105896100E+02  0.11235465121E+03  0.78504670064E+02 0.  0.
         -6    2    1    2    0  502 -0.10095686606E+02  0.62153434369E+02 -0.33620718502E+02  0.18606322502E+03  0.17182607107E+03 0.  0.
        -24    2    5    5    0    0  0.39756457916E+02  0.62480049752E+02  0.21682069977E+02  0.11145872512E+03  0.80427623891E+02 0.  0.
          5    1    3    3  501    0 -0.29129011164E+02 -0.36014769452E+02  0.62977769756E+02  0.78318914660E+02  0.47000000000E+01 0. -1.
        -11    1    4    4    0    0  0.40967088566E+02  0.17765022838E+02 -0.47006777647E+02  0.64834678427E+02  0.00000000000E+00 0.  1.
         12    1    4    4    0    0 -0.17423907958E+01 -0.43903687755E+02 -0.18099118454E+02  0.47519972779E+02  0.00000000000E+00 0. -1.
         -5    1    5    5    0  502 -0.49852144522E+02 -0.32661538316E+00 -0.55302788479E+02  0.74604499896E+02  0.47000000000E+01 0.  1.
         11    1    6    6    0    0  0.37781002421E+01  0.64375303992E+02 -0.77324214893E+01  0.64948011113E+02  0.00000000000E+00 0. -1.
        -12    1    6    6    0    0  0.35978357674E+02 -0.18952542400E+01  0.29414491467E+02  0.46510714011E+02  0.00000000000E+00 0.  1.
</event>
<event>
12    1  0.1683022E-002  0.2504964E+03  0.7818608E-02  0.1114780E+00
         21   -1    0    0  503  502  0.00000000000E+00  0.00000000000E+00  0.26555394169E+03  0.26555394169E+03  0.00000000000E+00 0. -1.
         21   -1    0    0  501  503 -0.00000000000E+00 -0.00000000000E+00 -0.22619982469E+03  0.22619982469E+03  0.00000000000E+00 0. -1.
          6    2    1    2  501    0  0.16305113453E+03 -0.31281046546E+02  0.27307995696E+02  0.24096793756E+03  0.17249824335E+03 0.  0.
         24    2    3    3    0    0  0.30740379294E+02 -0.27716427954E+02  0.34430693264E+02  0.10833436234E+03  0.94008989605E+02 0.  0.
         -6    2    1    2    0  502 -0.16305113453E+03  0.31281046546E+02  0.12046121300E+02  0.25078582881E+03  0.18757464261E+03 0.  0.
        -24    2    5    5    0    0 -0.12195014744E+03 -0.54176772879E+02  0.12120742727E+01  0.15522539445E+03  0.79287406170E+02 0.  0.
          5    1    3    3  501    0  0.13231075524E+03 -0.35646185927E+01 -0.71226975678E+01  0.13263357523E+03  0.47000000000E+01 0. -1.
        -13    1    4    4    0    0  0.62263214334E+01 -0.22862708955E+02 -0.30580024563E+02  0.38686023854E+02  0.00000000000E+00 0.  1.
         14    1    4    4    0    0  0.24514057861E+02 -0.48537189989E+01  0.65010717828E+02  0.69648338482E+02  0.00000000000E+00 0. -1.
         -5    1    5    5    0  502 -0.41100987088E+02  0.85457819426E+02  0.10834047027E+02  0.95560434363E+02  0.47000000000E+01 0.  1.
         13    1    6    6    0    0 -0.12219331934E+03 -0.44231752945E+02 -0.20296247161E+02  0.13152791684E+03  0.00000000000E+00 0. -1.
        -14    1    6    6    0    0  0.24317189793E+00 -0.99450199344E+01  0.21508321434E+02  0.23697477608E+02  0.00000000000E+00 0.  1.
</event>
<event>
12    1  0.1683022E-002  0.3316999E+03  0.7818608E-02  0.1070619E+00
         21   -1    0    0  501  502  0.00000000000E+00  0.00000000000E+00  0.15626253334E+04  0.15626253334E+04  0.00000000000E+00 0. -1.
         21   -1    0    0  502  503 -0.00000000000E+00 -0.00000000000E+00 -0.83880832590E+02  0.83880832590E+02  0.00000000000E+00 0.  1.
          6    2    1    2  501    0  0.16401875582E+03  0.23110721411E+03  0.10727247870E+04  0.11222192185E+04  0.16829975921E+03 0.  0.
         24    2    3    3    0    0  0.12362960126E+03  0.20395190988E+03  0.10189973215E+04  0.10495733314E+04  0.79799605129E+02 0.  0.
         -6    2    1    2    0  503 -0.16401875582E+03 -0.23110721411E+03  0.40601971381E+03  0.52428694754E+03  0.17237197765E+03 0.  0.
        -24    2    5    5    0    0 -0.10881050538E+03 -0.10702864144E+03  0.32000130072E+03  0.36346188574E+03  0.80055316809E+02 0.  0.
          5    1    3    3  501    0  0.40389154565E+02  0.27155304236E+02  0.53727465566E+02  0.72645887088E+02  0.47000000000E+01 0. -1.
        -11    1    4    4    0    0  0.19554451175E+02  0.20596699541E+02  0.26932552643E+03  0.27081883202E+03  0.00000000000E+00 0.  1.
         12    1    4    4    0    0  0.10407515008E+03  0.18335521034E+03  0.74967179505E+03  0.77875449939E+03  0.00000000000E+00 0. -1.
         -5    1    5    5    0  503 -0.55208250439E+02 -0.12407857267E+03  0.86018413088E+02  0.16082506180E+03  0.47000000000E+01 0.  1.
         13    1    6    6    0    0 -0.28742783373E+02 -0.82944148696E+02  0.18292991818E+03  0.20290203144E+03  0.00000000000E+00 0. -1.
        -14    1    6    6    0    0 -0.80067722009E+02 -0.24084492745E+02  0.13707138255E+03  0.16055985430E+03  0.00000000000E+00 0.  1.
</event>
<event>
12    1  0.1683022E-002  0.2117869E+03  0.7818608E-02  0.1140271E+00
         21   -1    0    0  501  502  0.00000000000E+00  0.00000000000E+00  0.60462837160E+03  0.60462837160E+03  0.00000000000E+00 0. -1.
         21   -1    0    0  502  503 -0.00000000000E+00 -0.00000000000E+00 -0.74535447986E+02  0.74535447986E+02  0.00000000000E+00 0.  1.
          6    2    1    2  501    0  0.11571528157E+03 -0.45403738721E+02  0.23619157223E+03  0.31723828488E+03  0.17147053602E+03 0.  0.
         24    2    3    3    0    0  0.13464069233E+03 -0.17542972577E+02  0.12537061347E+03  0.20131689616E+03  0.79842532756E+02 0.  0.
         -6    2    1    2    0  503 -0.11571528157E+03  0.45403738721E+02  0.29390135138E+03  0.36192553471E+03  0.17076464052E+03 0.  0.
        -24    2    5    5    0    0 -0.12974265761E+03 -0.51107912649E+01  0.17708289088E+03  0.23379619484E+03  0.80268506220E+02 0.  0.
          5    1    3    3  501    0 -0.18925410768E+02 -0.27860766144E+02  0.11082095876E+03  0.11592138872E+03  0.47000000000E+01 0. -1.
        -11    1    4    4    0    0  0.41891311032E+02 -0.16545249014E+02  0.92548028642E+02  0.10292601620E+03  0.00000000000E+00 0.  1.
         12    1    4    4    0    0  0.92749381303E+02 -0.99772356350E+00  0.32822584832E+02  0.98390879961E+02  0.00000000000E+00 0. -1.
         -5    1    5    5    0  503  0.14027376046E+02  0.50514529986E+02  0.11681846051E+03  0.12812933987E+03  0.47000000000E+01 0.  1.
         13    1    6    6    0    0 -0.10252923513E+03  0.31262045079E+02  0.12665379459E+03  0.16592390787E+03  0.00000000000E+00 0. -1.
        -14    1    6    6    0    0 -0.27213422485E+02 -0.36372836344E+02  0.50429096286E+02  0.67872286975E+02  0.00000000000E+00 0.  1.
</event>
<event>
12    1  0.1683022E-002  0.2266756E+03  0.7818608E-02  0.1129325E+00
         21   -1    0    0  503  502  0.00000000000E+00  0.00000000000E+00  0.46876825708E+04  0.46876825708E+04  0.00000000000E+00 0.  1.
         21   -1    0    0  501  503 -0.00000000000E+00 -0.00000000000E+00 -0.11943573002E+02  0.11943573002E+02  0.00000000000E+00 0.  1.
          6    2    1    2  501    0  0.75891587307E+00  0.14627875189E+03  0.16432935808E+04  0.16588537023E+04  0.17315820428E+03 0.  0.
         24    2    3    3    0    0  0.53508370048E+01  0.17584962127E+03  0.15000407136E+04  0.15124330889E+04  0.79874810125E+02 0.  0.
         -6    2    1    2    0  502 -0.75891587307E+00 -0.14627875189E+03  0.30324454170E+04  0.30407724415E+04  0.17080335112E+03 0.  0.
        -24    2    5    5    0    0  0.58709357656E+02 -0.13108583664E+03  0.22672083631E+04  0.22730634218E+04  0.77157454119E+02 0.  0.
          5    1    3    3  501    0 -0.45919211317E+01 -0.29570869376E+02  0.14325286722E+03  0.14642061337E+03  0.47000000000E+01 0. -1.
        -11    1    4    4    0    0 -0.30755852463E+02  0.11633582757E+03  0.80987655654E+03  0.81876735650E+03  0.00000000000E+00 0.  1.
         12    1    4    4    0    0  0.36106689468E+02  0.59513793696E+02  0.69016415702E+03  0.69366573240E+03  0.00000000000E+00 0. -1.
         -5    1    5    5    0  502 -0.59468273529E+02 -0.15192915255E+02  0.76523705391E+03  0.76770901969E+03  0.47000000000E+01 0.  1.
         13    1    6    6    0    0  0.18110315476E+02 -0.51337936803E+02  0.39696650388E+03  0.40068188440E+03  0.00000000000E+00 0. -1.
        -14    1    6    6    0    0  0.40599042180E+02 -0.79747899835E+02  0.18702418592E+04  0.18723815374E+04  0.00000000000E+00 0.  1.
</event>
<event>
12    1  0.1683022E-002  0.2254450E+03  0.7818608E-02  0.1130283E+00
         21   -1    0    0  503  502  0.00000000000E+00  0.00000000000E+00  0.10568277717E+04  0.10568277717E+04  0.00000000000E+00 0.  1.
         21   -1    0    0  501  503 -0.00000000000E+00 -0.00000000000E+00 -0.79984639221E+02  0.79984639221E+02  0.00000000000E+00 0.  1.
          6    2    1    2  501    0  0.10577230007E+03  0.99962486736E+02  0.12831640215E+03  0.25940424248E+03  0.17217776784E+03 0.  0.
         24    2    3    3    0    0  0.17384031893E+02  0.35226379758E+02 -0.18559396522E+01  0.89197961546E+02  0.80060785883E+02 0.  0.
         -6    2    1    2    0  502 -0.10577230007E+03 -0.99962486736E+02  0.84852673028E+03  0.87740816840E+03  0.16931392073E+03 0.  0.
        -24    2    5    5    0    0 -0.75156124914E+02 -0.12543311162E+03  0.78802008380E+03  0.80481858801E+03  0.73317109368E+02 0.  0.
          5    1    3    3  501    0  0.88388268175E+02  0.64736106978E+02  0.13017234180E+03  0.17020628093E+03  0.47000000000E+01 0. -1.
        -13    1    4    4    0    0  0.28738317700E+02  0.52258685967E+02  0.16310323095E+02  0.61829505923E+02  0.00000000000E+00 0.  1.
         14    1    4    4    0    0 -0.11354285807E+02 -0.17032306209E+02 -0.18166262747E+02  0.27368455623E+02  0.00000000000E+00 0. -1.
         -5    1    5    5    0  502 -0.30616175155E+02  0.25470624882E+02  0.60506646482E+02  0.72589580392E+02  0.47000000000E+01 0.  1.
         13    1    6    6    0    0 -0.41715625024E+01 -0.54948385838E+02  0.16871969192E+03  0.17749101803E+03  0.00000000000E+00 0. -1.
        -14    1    6    6    0    0 -0.70984562411E+02 -0.70484725780E+02  0.61930039188E+03  0.62732756998E+03  0.00000000000E+00 0.  1.
</event>
<event>
12    1  0.1683022E-002  0.3023398E+03  0.7818608E-02  0.1084407E+00
         21   -1    0    0  503  502  0.00000000000E+00  0.00000000000E+00  0.48959134537E+02  0.48959134537E+02  0.00000000000E+00 0.  1.
         21   -1    0    0  501  503 -0.00000000000E+00 -0.00000000000E+00 -0.18994767901E+04  0.18994767901E+04  0.00000000000E+00 0.  1.
          6    2    1    2  501    0  0.22643269146E+03  0.91349303261E+02 -0.76515224123E+03  0.82174721298E+03  0.17376441182E+03 0.  0.
         24    2    3    3    0    0  0.20160316872E+03  0.13062054577E+03 -0.64378002892E+03  0.69170091504E+03  0.79321280938E+02 0.  0.
         -6    2    1    2    0  502 -0.22643269146E+03 -0.91349303261E+02 -0.10853654143E+04  0.11266887117E+04  0.17830566837E+03 0.  0.
        -24    2    5    5    0    0 -0.10799880692E+03  0.19585169494E+02 -0.47791168437E+03  0.49791596551E+03  0.86448883680E+02 0.  0.
          5    1    3    3  501    0  0.24829522745E+02 -0.39271242514E+02 -0.12137221230E+03  0.13004629794E+03  0.47000000000E+01 0. -1.
        -11    1    4    4    0    0  0.11520247552E+02  0.12105054094E+02 -0.13188968283E+03  0.13294411185E+03  0.00000000000E+00 0.  1.
         12    1    4    4    0    0  0.19008292117E+03  0.11851549168E+03 -0.51189034609E+03  0.55875680319E+03  0.00000000000E+00 0. -1.
         -5    1    5    5    0  502 -0.11843388454E+03 -0.11093447275E+03 -0.60745372997E+03  0.62877274615E+03  0.47000000000E+01 0.  1.
         13    1    6    6    0    0 -0.77972065539E+02  0.88829181540E+01 -0.15795778621E+03  0.17637803566E+03  0.00000000000E+00 0. -1.
        -14    1    6    6    0    0 -0.30026741383E+02  0.10702251340E+02 -0.31995389817E+03  0.32153792986E+03  0.00000000000E+00 0.  1.
</event>
<event>
12    1  0.1683022E-002  0.1969053E+03  0.7818608E-02  0.1153207E+00
         21   -1    0    0  503  502  0.00000000000E+00  0.00000000000E+00  0.19886511604E+03  0.19886511604E+03  0.00000000000E+00 0.  1.
         21   -1    0    0  501  503 -0.00000000000E+00 -0.00000000000E+00 -0.28009887592E+03  0.28009887592E+03  0.00000000000E+00 0.  1.
          6    2    1    2  501    0  0.80436300148E+02 -0.48722523160E+02 -0.17525444424E+03  0.26076322921E+03  0.16864002738E+03 0.  0.
         24    2    3    3    0    0  0.47573451919E+02 -0.96481430789E+02 -0.10087115994E+03  0.16633948730E+03  0.76954105241E+02 0.  0.
         -6    2    1    2    0  502 -0.80436300148E+02  0.48722523160E+02  0.94020684363E+02  0.21820076276E+03  0.17299653504E+03 0.  0.
        -24    2    5    5    0    0  0.66180033560E+01 -0.20722363530E+02  0.25214513251E+02  0.87214415268E+02  0.80606254307E+02 0.  0.
          5    1    3    3  501    0  0.32862848228E+02  0.47758907629E+02 -0.74383284306E+02  0.94423741907E+02  0.47000000000E+01 0. -1.
        -13    1    4    4    0    0  0.28751357239E+02  0.44527013873E+01 -0.16502936526E+02  0.33448677204E+02  0.00000000000E+00 0.  1.
         14    1    4    4    0    0  0.18822094680E+02 -0.10093413218E+03 -0.84368223410E+02  0.13289081009E+03  0.00000000000E+00 0. -1.
         -5    1    5    5    0  502 -0.87054303504E+02  0.69444886690E+02  0.68806171111E+02  0.13098634749E+03  0.47000000000E+01 0.  1.
         11    1    6    6    0    0 -0.34090696186E+02 -0.15891963542E+02  0.26808718945E+02  0.46189148977E+02  0.00000000000E+00 0. -1.
        -12    1    6    6    0    0  0.40708699542E+02 -0.48303999878E+01 -0.15942056937E+01  0.41025266291E+02  0.00000000000E+00 0.  1.
</event>
<event>
12    1  0.1683022E-002  0.1758070E+03  0.7818608E-02  0.1172192E+00
         21   -1    0    0  501  502  0.00000000000E+00  0.00000000000E+00  0.35006238508E+02  0.35006238508E+02  0.00000000000E+00 0. -1.
         21   -1    0    0  502  503 -0.00000000000E+00 -0.00000000000E+00 -0.14578501417E+04  0.14578501417E+04  0.00000000000E+00 0. -1.
          6    2    1    2  501    0 -0.18127601344E+01  0.35608212979E+02 -0.24180485221E+03  0.29896100495E+03  0.17215360872E+03 0.  0.
         24    2    3    3    0    0 -0.64145428691E+02  0.10546476011E+02 -0.14620318954E+03  0.18201990809E+03  0.86775630976E+02 0.  0.
         -6    2    1    2    0  503  0.18127601344E+01 -0.35608212979E+02 -0.11810390509E+04  0.11938953752E+04  0.17106050446E+03 0.  0.
        -24    2    5    5    0    0  0.40670251344E+02  0.32517400784E+02 -0.51228133250E+03  0.52053812988E+03  0.76264869586E+02 0.  0.
          5    1    3    3  501    0  0.62332668557E+02  0.25061736967E+02 -0.95601662669E+02  0.11694109686E+03  0.47000000000E+01 0. -1.
        -13    1    4    4    0    0 -0.45507237779E+02 -0.23721462579E+02 -0.13003144878E+03  0.13979196740E+03  0.00000000000E+00 0.  1.
         14    1    4    4    0    0 -0.18638190912E+02  0.34267938590E+02 -0.16171740756E+02  0.42227940688E+02  0.00000000000E+00 0. -1.
         -5    1    5    5    0  503 -0.38857491210E+02 -0.68125613763E+02 -0.66875771845E+03  0.67335724534E+03  0.47000000000E+01 0.  1.
         13    1    6    6    0    0  0.21855581472E+02  0.14686638628E+02 -0.47137754235E+03  0.47211243494E+03  0.00000000000E+00 0. -1.
        -14    1    6    6    0    0  0.18814669872E+02  0.17830762157E+02 -0.40903790147E+02  0.48425694935E+02  0.00000000000E+00 0.  1.
</event>
<event>
12    1  0.1683022E-002  0.2796480E+03  0.7818608E-02  0.1095913E+00
         21   -1    0    0  501  502  0.00000000000E+00  0.00000000000E+00  0.43347175308E+03  0.43347175308E+03  0.00000000000E+00 0. -1.
         21   -1    0    0  502  503 -0.00000000000E+00 -0.00000000000E+00 -0.18026576232E+03  0.18026576232E+03  0.00000000000E+00 0.  1.
          6    2    1    2  501    0  0.16146510006E+03 -0.14963636725E+03  0.12517487437E+03  0.30617456327E+03  0.17208164655E+03 0.  0.
         24    2    3    3    0    0  0.17167379268E+03 -0.81129073684E+02  0.11579777661E+03  0.23612110769E+03  0.79311000115E+02 0.  0.
         -6    2    1    2    0  503 -0.16146510006E+03  0.14963636725E+03  0.12803111639E+03  0.30756295213E+03  0.17245573872E+03 0.  0.
        -24    2    5    5    0    0 -0.29961321897E+02  0.95901041588E+01  0.51864490781E+02  0.10085145189E+03  0.80569467144E+02 0.  0.
          5    1    3    3  501    0 -0.10208692618E+02 -0.68507293565E+02  0.93770977656E+01  0.70053455583E+02  0.47000000000E+01 0. -1.
        -11    1    4    4    0    0  0.47533794676E+02  0.13672498128E+02  0.31283488270E+02  0.58523973547E+02  0.00000000000E+00 0.  1.
         12    1    4    4    0    0  0.12413999800E+03 -0.94801571812E+02  0.84514288336E+02  0.17759713414E+03  0.00000000000E+00 0. -1.
         -5    1    5    5    0  503 -0.13150377816E+03  0.14004626309E+03  0.76166625607E+02  0.20671150024E+03  0.47000000000E+01 0.  1.
         13    1    6    6    0    0 -0.53340809522E+01  0.43168365075E+02  0.17590143163E+02  0.46918794735E+02  0.00000000000E+00 0. -1.
        -14    1    6    6    0    0 -0.24627240944E+02 -0.33578260916E+02  0.34274347617E+02  0.53932657150E+02  0.00000000000E+00 0.  1.
</event>
<event>
12    1  0.1683022E-002  0.2063505E+03  0.7818608E-02  0.1144690E+00
         21   -1    0    0  501  502  0.00000000000E+00  0.00000000000E+00  0.62840149701E+02  0.62840149701E+02  0.00000000000E+00 0. -1.
         21   -1    0    0  502  503 -0.00000000000E+00 -0.00000000000E+00 -0.71747564850E+03  0.71747564850E+03  0.00000000000E+00 0.  1.
          6    2    1    2  501    0  0.34429237580E+02 -0.10787352273E+03 -0.23091907105E+03  0.30902379793E+03  0.17131847830E+03 0.  0.
         24    2    3    3    0    0 -0.34118293054E+02 -0.39869554661E+02 -0.62490429441E+02  0.11482389849E+03  0.80782637882E+02 0.  0.
         -6    2    1    2    0  503 -0.34429237580E+02  0.10787352273E+03 -0.42371642776E+03  0.47129200027E+03  0.17250643196E+03 0.  0.
        -24    2    5    5    0    0  0.21479690974E+00 -0.86681025791E+01 -0.21557564328E+03  0.23019692418E+03  0.80265707409E+02 0.  0.
          5    1    3    3  501    0  0.68547530634E+02 -0.68003968068E+02 -0.16842864161E+03  0.19419989944E+03  0.47000000000E+01 0. -1.
        -13    1    4    4    0    0 -0.29091550144E+02  0.20302741029E+02 -0.28692712394E+02  0.45626651505E+02  0.00000000000E+00 0.  1.
         14    1    4    4    0    0 -0.50267429102E+01 -0.60172295690E+02 -0.33797717047E+02  0.69197246986E+02  0.00000000000E+00 0. -1.
         -5    1    5    5    0  503 -0.34644034489E+02  0.11654162531E+03 -0.20814078448E+03  0.24109507610E+03  0.47000000000E+01 0.  1.
         11    1    6    6    0    0  0.18566584004E+02  0.31476090905E+02 -0.10162970377E+03  0.10800027328E+03  0.00000000000E+00 0. -1.
        -12    1    6    6    0    0 -0.18351787094E+02 -0.40144193484E+02 -0.11394593950E+03  0.12219665089E+03  0.00000000000E+00 0.  1.
</event>
<event>
12    1  0.1683022E-002  0.1893388E+03  0.7818608E-02  0.1159089E+00
         21   -1    0    0  503  502  0.00000000000E+00  0.00000000000E+00  0.12888927924E+03  0.12888927924E+03  0.00000000000E+00 0. -1.
         21   -1    0    0  501  503 -0.00000000000E+00 -0.00000000000E+00 -0.33022337583E+03  0.33022337583E+03  0.00000000000E+00 0.  1.
          6    2    1    2  501    0 -0.74697465852E+02 -0.21813326776E+02 -0.19197333295E+03  0.26954260358E+03  0.17246426283E+03 0.  0.
         24    2    3    3    0    0 -0.79935005918E+02 -0.63241493048E+02 -0.18649770987E+03  0.22716575572E+03  0.80210929256E+02 0.  0.
         -6    2    1    2    0  502  0.74697465852E+02  0.21813326776E+02 -0.93607636356E+01  0.18957005148E+03  0.17260836566E+03 0.  0.
        -24    2    5    5    0    0  0.28409164748E+02  0.77788918321E+02  0.15864593386E+02  0.11253575844E+03  0.74527948779E+02 0.  0.
          5    1    3    3  501    0  0.52375400664E+01  0.41428166272E+02 -0.54756230845E+01  0.42376847863E+02  0.47000000000E+01 0. -1.
        -11    1    4    4    0    0 -0.31835271769E+01 -0.36408422249E+02 -0.19494247832E+02  0.41421416616E+02  0.00000000000E+00 0.  1.
         12    1    4    4    0    0 -0.76751478741E+02 -0.26833070799E+02 -0.16700346203E+03  0.18574433910E+03  0.00000000000E+00 0. -1.
         -5    1    5    5    0  502  0.46288301104E+02 -0.55975591546E+02 -0.25225357021E+02  0.77034293044E+02  0.47000000000E+01 0.  1.
         11    1    6    6    0    0  0.43172371437E+02  0.84386606216E+02  0.17096722810E+02  0.96318486777E+02  0.00000000000E+00 0. -1.
        -12    1    6    6    0    0 -0.14763206689E+02 -0.65976878943E+01 -0.12321294248E+01  0.16217271664E+02  0.00000000000E+00 0.  1.
</event>
<event>
12    1  0.1683022E-002  0.2296481E+03  0.7818608E-02  0.1126893E+00
         21   -1    0    0  501  502  0.00000000000E+00  0.00000000000E+00  0.45407213429E+03  0.45407213429E+03  0.00000000000E+00 0.  1.
         21   -1    0    0  502  503 -0.00000000000E+00 -0.00000000000E+00 -0.11622703390E+03  0.11622703390E+03  0.00000000000E+00 0.  1.
          6    2    1    2  501    0  0.12354037332E+03 -0.88435987950E+02  0.17717388846E+03  0.29004968996E+03  0.17220652743E+03 0.  0.
         24    2    3    3    0    0  0.58899694573E+02 -0.11941794956E+03  0.13983015183E+03  0.20908708156E+03  0.80219172375E+02 0.  0.
         -6    2    1    2    0  503 -0.12354037332E+03  0.88435987950E+02  0.16067121193E+03  0.28024947823E+03  0.17216673284E+03 0.  0.
        -24    2    5    5    0    0 -0.11992785192E+03  0.10473378261E+03  0.18040548967E+03  0.25397781783E+03  0.81281832913E+02 0.  0.
          5    1    3    3  501    0  0.64640678746E+02  0.30981961610E+02  0.37343736633E+02  0.80962608405E+02  0.47000000000E+01 0. -1.
        -13    1    4    4    0    0  0.53827647374E+01 -0.67771253706E+02  0.10924169944E+03  0.12866882249E+03  0.00000000000E+00 0.  1.
         14    1    4    4    0    0  0.53516929835E+02 -0.51646695854E+02  0.30588452386E+02  0.80418259065E+02  0.00000000000E+00 0. -1.
         -5    1    5    5    0  503 -0.36125214032E+01 -0.16297794664E+02 -0.19734277741E+02  0.26271660392E+02  0.47000000000E+01 0.  1.
         11    1    6    6    0    0 -0.39635310808E+02  0.15812551840E+02  0.10260605889E+03  0.11112604546E+03  0.00000000000E+00 0. -1.
        -12    1    6    6    0    0 -0.80292541108E+02  0.88921230774E+02  0.77799430779E+02  0.14285177237E+03  0.00000000000E+00 0.  1.
</event>
<event>
12    1  0.1683022E-002  0.2555275E+03  0.7818608E-02  0.1110092E+00
         21   -1    0    0  503  502  0.00000000000E+00  0.00000000000E+00  0.69538926527E+03  0.69538926527E+03  0.00000000000E+00 0. -1.
         21   -1    0    0  501  503 -0.00000000000E+00 -0.00000000000E+00 -0.10461877768E+03  0.10461877768E+03  0.00000000000E+00 0.  1.
          6    2    1    2  501    0  0.22258023789E+02  0.18623288638E+03  0.16485185380E+03  0.30408955365E+03  0.17354024129E+03 0.  0.
         24    2    3    3    0    0  0.15450462439E+02  0.14515948234E+03  0.35290602583E+02  0.16792210075E+03  0.75115998225E+02 0.  0.
         -6    2    1    2    0  502 -0.22258023789E+02 -0.18623288638E+03  0.42591863379E+03  0.49591848930E+03  0.17131946134E+03 0.  0.
        -24    2    5    5    0    0 -0.27490845417E+02 -0.21129985203E+03  0.37364371284E+03  0.43751906679E+03  0.80062073491E+02 0.  0.
          5    1    3    3  501    0  0.68075613493E+01  0.41073404040E+02  0.12956125122E+03  0.13616745289E+03  0.47000000000E+01 0. -1.
        -11    1    4    4    0    0 -0.11189904875E+02 -0.45373197000E+01  0.36688041600E+01  0.12619879759E+02  0.00000000000E+00 0.  1.
         12    1    4    4    0    0  0.26640367314E+02  0.14969680204E+03  0.31621798423E+02  0.15530222100E+03  0.00000000000E+00 0. -1.
         -5    1    5    5    0  502  0.52328216286E+01  0.25066965656E+02  0.52274920943E+02  0.58399422506E+02  0.47000000000E+01 0.  1.
         13    1    6    6    0    0 -0.14689596345E+02 -0.28727095244E+02  0.12302931851E+03  0.12718979305E+03  0.00000000000E+00 0. -1.
        -14    1    6    6    0    0 -0.12801249072E+02 -0.18257275679E+03  0.25061439433E+03  0.31032927375E+03  0.00000000000E+00 0.  1.
</event>
<event>
12    1  0.1683022E-002  0.3010086E+03  0.7818608E-02  0.1084928E+00
         21   -1    0    0  503  502  0.00000000000E+00  0.00000000000E+00  0.69439426381E+03  0.69439426381E+03  0.00000000000E+00 0. -1.
         21   -1    0    0  501  503 -0.00000000000E+00 -0.00000000000E+00 -0.23195853108E+03  0.23195853108E+03  0.00000000000E+00 0.  1.
          6    2    1    2  501    0  0.41378031885E+02 -0.24386060569E+03 -0.76463301006E+02  0.30908595018E+03  0.16884120252E+03 0.  0.
         24    2    3    3    0    0 -0.31430817701E+02 -0.15787208620E+03 -0.77616950892E+02  0.19630929049E+03  0.81249335780E+02 0.  0.
         -6    2    1    2    0  502 -0.41378031885E+02  0.24386060569E+03  0.53889903374E+03  0.61726684471E+03  0.17154023575E+03 0.  0.
        -24    2    5    5    0    0 -0.67276174587E+02  0.98323297812E+02  0.34220683432E+03  0.37117390882E+03  0.80442517218E+02 0.  0.
          5    1    3    3  501    0  0.72808849587E+02 -0.85988519490E+02  0.11536498861E+01  0.11277665969E+03  0.47000000000E+01 0. -1.
        -13    1    4    4    0    0  0.16802066734E+02 -0.11150008964E+03 -0.40614130027E+02  0.11985026906E+03  0.00000000000E+00 0.  1.
         14    1    4    4    0    0 -0.48232884436E+02 -0.46371996560E+02 -0.37002820865E+02  0.76459021430E+02  0.00000000000E+00 0. -1.
         -5    1    5    5    0  502  0.25898142702E+02  0.14553730788E+03  0.19669219942E+03  0.24609293589E+03  0.47000000000E+01 0.  1.
         11    1    6    6    0    0 -0.20294779813E+02  0.91860656863E+02  0.25671299924E+03  0.27340779496E+03  0.00000000000E+00 0. -1.
        -12    1    6    6    0    0 -0.46981394774E+02  0.64626409487E+01  0.85493835075E+02  0.97766113858E+02  0.00000000000E+00 0.  1.
</event>
<event>
12    1  0.1683022E-002  0.1790595E+03  0.7818608E-02  0.1169427E+00
         21   -1    0    0  501  502  0.00000000000E+00  0.00000000000E+00  0.26530151942E+02  0.26530151942E+02  0.00000000000E+00 0. -1.
         21   -1    0    0  502  503 -0.00000000000E+00 -0.00000000000E+00 -0.12031457032E+04  0.12031457032E+04  0.00000000000E+00 0. -1.
          6    2    1    2  501    0 -0.11748144814E+02 -0.35439412121E+02 -0.51709188939E+03  0.54627716952E+03  0.17216490068E+03 0.  0.
         24    2    3    3    0    0  0.23528237634E+01 -0.64086327618E+02 -0.17405198128E+03  0.20172245451E+03  0.79279652478E+02 0.  0.
         -6    2    1    2    0  503  0.11748144814E+02  0.35439412121E+02 -0.65952366191E+03  0.68339868566E+03  0.17512376227E+03 0.  0.
        -24    2    5    5    0    0 -0.74892517389E+00 -0.36804344106E+02 -0.22180447164E+03  0.23955691589E+03  0.82675097063E+02 0.  0.
          5    1    3    3  501    0 -0.14100968578E+02  0.28646915497E+02 -0.34303990811E+03  0.34455471501E+03  0.47000000000E+01 0. -1.
        -13    1    4    4    0    0 -0.37167801587E+02 -0.18551539241E+02 -0.76162310907E+02  0.86754266095E+02  0.00000000000E+00 0.  1.
         14    1    4    4    0    0  0.39520625350E+02 -0.45534788377E+02 -0.97889670377E+02  0.11496818841E+03  0.00000000000E+00 0. -1.
         -5    1    5    5    0  503  0.12497069988E+02  0.72243756227E+02 -0.43771919027E+03  0.44384176978E+03  0.47000000000E+01 0.  1.
         11    1    6    6    0    0 -0.14315863664E+02 -0.60922700945E+02 -0.14542625224E+03  0.15832029018E+03  0.00000000000E+00 0. -1.
        -12    1    6    6    0    0  0.13566938490E+02  0.24118356839E+02 -0.76378219404E+02  0.81236625705E+02  0.00000000000E+00 0.  1.
</event>
<event>
12    1  0.1683022E-002  0.2014725E+03  0.7818608E-02  0.1149575E+00
         21   -1    0    0  503  502  0.00000000000E+00  0.00000000000E+00  0.17552830076E+03  0.17552830076E+03  0.00000000000E+00 0. -1.
         21   -1    0    0  501  503 -0.00000000000E+00 -0.00000000000E+00 -0.35952332382E+03  0.35952332382E+03  0.00000000000E+00 0. -1.
          6    2    1    2  501    0  0.85242241783E+02  0.40192901743E+02 -0.25460970564E+03  0.32156251214E+03  0.17232132159E+03 0.  0.
         24    2    3    3    0    0  0.94644881185E+02  0.29863753472E+02 -0.27135905088E+03  0.29925261528E+03  0.77890281495E+02 0.  0.
         -6    2    1    2    0  502 -0.85242241783E+02 -0.40192901743E+02  0.70614682580E+02  0.21348911244E+03  0.17807149856E+03 0.  0.
        -24    2    5    5    0    0 -0.79294273999E+01  0.18054875201E+01  0.92526605007E+02  0.12269617046E+03  0.80168834389E+02 0.  0.
          5    1    3    3  501    0 -0.94026394021E+01  0.10329148270E+02  0.16749345244E+02  0.22309896858E+02  0.47000000000E+01 0. -1.
        -13    1    4    4    0    0  0.98030560653E+01  0.38908088854E+02 -0.72508573907E+02  0.82869973914E+02  0.00000000000E+00 0.  1.
         14    1    4    4    0    0  0.84841825119E+02 -0.90443353814E+01 -0.19885047698E+03  0.21638264137E+03  0.00000000000E+00 0. -1.
         -5    1    5    5    0  502 -0.77312814383E+02 -0.41998389263E+02 -0.21911922427E+02  0.90792941977E+02  0.47000000000E+01 0.  1.
         13    1    6    6    0    0  0.29189770313E+02 -0.20022300120E+02  0.55901386916E+02  0.66165702990E+02  0.00000000000E+00 0. -1.
        -14    1    6    6    0    0 -0.37119197713E+02  0.21827787640E+02  0.36625218091E+02  0.56530467470E+02  0.00000000000E+00 0.  1.
</event>
<event>
12    1  0.1683022E-002  0.1944929E+03  0.7818608E-02  0.1155259E+00
         21   -1    0    0  501  502  0.00000000000E+00  0.00000000000E+00  0.40688609915E+03  0.40688609915E+03  0.00000000000E+00 0.  1.
         21   -1    0    0  502  503 -0.00000000000E+00 -0.00000000000E+00 -0.99798590682E+02  0.99798590682E+02  0.00000000000E+00 0.  1.
          6    2    1    2  501    0  0.86528483558E+02 -0.23543887960E+01  0.22630320940E+03  0.29608174057E+03  0.17017206850E+03 0.  0.
         24    2    3    3    0    0  0.10090584210E+02 -0.41308918224E+02  0.17595600807E+03  0.19649690989E+03  0.76434757837E+02 0.  0.
         -6    2    1    2    0  503 -0.86528483558E+02  0.23543887960E+01  0.80784299068E+02  0.21060294927E+03  0.17416881940E+03 0.  0.
        -24    2    5    5    0    0 -0.49273638449E+02 -0.32259492529E+01 -0.25561024732E+02  0.97684919036E+02  0.80316120593E+02 0.  0.
          5    1    3    3  501    0  0.76437899348E+02  0.38954529428E+02  0.50347201337E+02  0.99584830683E+02  0.47000000000E+01 0. -1.
        -13    1    4    4    0    0  0.19717746779E+02 -0.59763968028E+02  0.10369685185E+03  0.12129945794E+03  0.00000000000E+00 0.  1.
         14    1    4    4    0    0 -0.96271625685E+01  0.18455049804E+02  0.72259156219E+02  0.75197451950E+02  0.00000000000E+00 0. -1.
         -5    1    5    5    0  503 -0.37254845110E+02  0.55803380489E+01  0.10634532380E+03  0.11291803023E+03  0.47000000000E+01 0.  1.
         11    1    6    6    0    0 -0.68126494786E+02 -0.15597377747E+02 -0.10762245257E+02  0.70712964917E+02  0.00000000000E+00 0. -1.
        -12    1    6    6    0    0  0.18852856337E+02  0.12371428494E+02 -0.14798779475E+02  0.26971954119E+02  0.00000000000E+00 0.  1.
</event>
<event>
12    1  0.1683022E-002  0.2215297E+03  0.7818608E-02  0.1132818E+00
         21   -1    0    0  501  502  0.00000000000E+00  0.00000000000E+00  0.12954277009E+04  0.12954277009E+04  0.00000000000E+00 0.  1.
         21   -1    0    0  502  503 -0.00000000000E+00 -0.00000000000E+00 -0.45004248634E+02  0.45004248634E+02  0.00000000000E+00 0.  1.
          6    2    1    2  501    0 -0.33582727886E+01  0.14013153550E+03  0.35785860830E+03  0.42087786978E+03  0.17154379178E+03 0.  0.
         24    2    3    3    0    0 -0.67195455274E+02  0.73271678525E+02  0.16500991901E+03  0.20696636167E+03  0.75649411146E+02 0.  0.
         -6    2    1    2    0  503  0.33582727886E+01 -0.14013153550E+03  0.89256484397E+03  0.91955407976E+03  0.17105431791E+03 0.  0.
        -24    2    5    5    0    0 -0.83028219842E+01 -0.17005698091E+03  0.79156125970E+03  0.81346295172E+03  0.78513899077E+02 0.  0.
          5    1    3    3  501    0  0.63837182485E+02  0.66859856971E+02  0.19284868929E+03  0.21391150811E+03  0.47000000000E+01 0. -1.
        -13    1    4    4    0    0 -0.46602856241E+02  0.80972282875E+02  0.93593622622E+02  0.13224259147E+03  0.00000000000E+00 0.  1.
         14    1    4    4    0    0 -0.20592599032E+02 -0.77006043508E+01  0.71416296389E+02  0.74723770195E+02  0.00000000000E+00 0. -1.
         -5    1    5    5    0  503  0.11661094773E+02  0.29925445410E+02  0.10100358427E+03  0.10609112805E+03  0.47000000000E+01 0.  1.
         11    1    6    6    0    0 -0.26485133869E+02 -0.32553777306E+02  0.10587210892E+03  0.11388640911E+03  0.00000000000E+00 0. -1.
        -12    1    6    6    0    0  0.18182311885E+02 -0.13750320360E+03  0.68568915078E+03  0.69957654260E+03  0.00000000000E+00 0.  1.
</event>
<event>
12    1  0.1683022E-002  0.2308487E+03  0.7818608E-02  0.1126065E+00
         21   -1    0    0  501  502  0.00000000000E+00  0.00000000000E+00  0.15284460147E+04  0.15284460147E+04  0.00000000000E+00 0.  1.
         21   -1    0    0  502  503 -0.00000000000E+00 -0.00000000000E+00 -0.35638975887E+02  0.35638975887E+02  0.00000000000E+00 0. -1.
          6    2    1    2  501    0  0.15277702194E+03 -0.10826753184E+02  0.86273973076E+03  0.89305896411E+03  0.17255849249E+03 0.  0.
         24    2    3    3    0    0  0.97175911014E+02 -0.74054027987E+02  0.57204224428E+03  0.59037713370E+03  0.79910412415E+02 0.  0.
         -6    2    1    2    0  503 -0.15277702194E+03  0.10826753184E+02  0.63006730802E+03  0.67102602644E+03  0.17272254777E+03 0.  0.
        -24    2    5    5    0    0 -0.63769536001E+02 -0.11994179452E+02  0.14922319254E+03  0.18145858378E+03  0.80307175110E+02 0.  0.
          5    1    3    3  501    0  0.55601110931E+02  0.63227274803E+02  0.29069748648E+03  0.30268183041E+03  0.47000000000E+01 0. -1.
        -13    1    4    4    0    0  0.10102651150E+03 -0.39679122343E+02  0.47819550818E+03  0.49035877969E+03  0.00000000000E+00 0.  1.
         14    1    4    4    0    0 -0.38506004871E+01 -0.34374905643E+02  0.93846736097E+02  0.10001835401E+03  0.00000000000E+00 0. -1.
         -5    1    5    5    0  503 -0.89007485944E+02  0.22820932636E+02  0.48084411548E+03  0.48956744266E+03  0.47000000000E+01 0.  1.
         11    1    6    6    0    0 -0.75666844551E+02  0.99012377609E+01  0.12649615543E+03  0.14773213331E+03  0.00000000000E+00 0. -1.
        -12    1    6    6    0    0  0.11897308550E+02 -0.21895417213E+02  0.22727037104E+02  0.33726450468E+02  0.00000000000E+00 0.  1.
</event>
<event>
12    1  0.1683022E-002  0.2587502E+03  0.7818608E-02  0.1108001E+00
         21   -1    0    0  503  502  0.00000000000E+00  0.00000000000E+00  0.28814588716E+03  0.28814588716E+03  0.00000000000E+00 0. -1.
         21   -1    0    0  501  503 -0.00000000000E+00 -0.00000000000E+00 -0.41278863824E+03  0.41278863824E+03  0.00000000000E+00 0. -1.
          6    2    1    2  501    0  0.14731948655E+02  0.19199108380E+03 -0.29438143933E+03  0.39147875340E+03  0.17180679838E+03 0.  0.
         24    2    3    3    0    0 -0.34738032248E+02  0.18920024855E+03 -0.22598080834E+03  0.30688676742E+03  0.78158155976E+02 0.  0.
         -6    2    1    2    0  502 -0.14731948655E+02 -0.19199108380E+03  0.16973868825E+03  0.30945577201E+03  0.17284110035E+03 0.  0.
        -24    2    5    5    0    0 -0.68773235443E+02 -0.15914474086E+03  0.96772311446E+02  0.21278351608E+03  0.76518873463E+02 0.  0.
          5    1    3    3  501    0  0.49469980903E+02  0.27908352573E+01 -0.68400630988E+02  0.84591985977E+02  0.47000000000E+01 0. -1.
        -13    1    4    4    0    0 -0.23507840740E+02  0.12223347631E+03 -0.85960664533E+02  0.15127087345E+03  0.00000000000E+00 0.  1.
         14    1    4    4    0    0 -0.11230191508E+02  0.66966772236E+02 -0.14002014380E+03  0.15561589397E+03  0.00000000000E+00 0. -1.
         -5    1    5    5    0  502  0.54041286788E+02 -0.32846342945E+02  0.72966376801E+02  0.96672255927E+02  0.47000000000E+01 0.  1.
         11    1    6    6    0    0  0.16772720515E+02 -0.23959359877E+02  0.19232917604E+02  0.35004002610E+02  0.00000000000E+00 0. -1.
        -12    1    6    6    0    0 -0.85545955958E+02 -0.13518538098E+03  0.77539393843E+02  0.17777951347E+03  0.00000000000E+00 0.  1.
</event>
<event>
12    1  0.1683022E-002  0.2609683E+03  0.7818608E-02  0.1107187E+00
         21   -1    0    0  503  502  0.00000000000E+00  0.00000000000E+00  0.46455649423E+03  0.46455649423E+03  0.00000000000E+00 0.  1.
         21   -1    0    0  501  503 -0.00000000000E+00 -0.00000000000E+00 -0.15893268902E+03  0.15893268902E+03  0.00000000000E+00 0. -1.
          6    2    1    2  501    0  0.17484141479E+03  0.94562792053E+02  0.59281259139E+02  0.26761677269E+03  0.16909413760E+03 0.  0.
         24    2    3    3    0    0  0.76630140444E+02  0.86292877355E+02  0.88704418286E+02  0.16465241870E+03  0.76963017443E+02 0.  0.
         -6    2    1    2    0  502 -0.17484141479E+03 -0.94562792053E+02  0.24634254607E+03  0.35587241056E+03  0.16263111827E+03 0.  0.
        -24    2    5    5    0    0 -0.11118253481E+03 -0.33291137720E+01  0.18151104393E+03  0.22702656965E+03  0.78880702393E+02 0.  0.
          5    1    3    3  501    0  0.98211274343E+02  0.82699146973E+01 -0.29423159147E+02  0.10296435398E+03  0.47000000000E+01 0. -1.
        -13    1    4    4    0    0  0.10006912736E+02  0.59156172694E+02  0.15390193306E+02  0.61939075875E+02  0.00000000000E+00 0.  1.
         14    1    4    4    0    0  0.66623227708E+02  0.27136704662E+02  0.73314224980E+02  0.10271334283E+03  0.00000000000E+00 0. -1.
         -5    1    5    5    0  502 -0.63658879975E+02 -0.91233678281E+02  0.64831502140E+02  0.12884584092E+03  0.47000000000E+01 0.  1.
         11    1    6    6    0    0 -0.27893638928E+02  0.45563868541E+01  0.11974401492E+03  0.12303432392E+03  0.00000000000E+00 0. -1.
        -12    1    6    6    0    0 -0.83288895884E+02 -0.78855006261E+01  0.61767029013E+02  0.10399224572E+03  0.00000000000E+00 0.  1.
</event>
<event>
12    1  0.1683022E-002  0.1851529E+03  0.7818608E-02  0.1163075E+00
         21   -1    0    0  501  502  0.00000000000E+00  0.00000000000E+00  0.75487913038E+03  0.75487913038E+03  0.00000000000E+00 0.  1.
         21   -1    0    0  502  503 -0.00000000000E+00 -0.00000000000E+00 -0.46720375586E+02  0.46720375586E+02  0.00000000000E+00 0.  1.
          6    2    1    2  501    0  0.61040961384E+02  0.20504836118E+02  0.28333692582E+03  0.33846922751E+03  0.17359480742E+03 0.  0.
         24    2    3    3    0    0  0.10338561960E+03  0.40788493468E+02  0.20638815831E+03  0.24820461841E+03  0.81591501807E+02 0.  0.
         -6    2    1    2    0  503 -0.61040961384E+02 -0.20504836118E+02  0.42482182897E+03  0.46313027846E+03  0.17282829972E+03 0.  0.
        -24    2    5    5    0    0 -0.82682262485E+02  0.19600663564E+02  0.38603940794E+03  0.40310559021E+03  0.79038913438E+02 0.  0.
          5    1    3    3  501    0 -0.42344658215E+02 -0.20283657350E+02  0.76948767512E+02  0.90264609103E+02  0.47000000000E+01 0. -1.
        -13    1    4    4    0    0  0.51339840306E+02 -0.11991892357E+02  0.40411772934E+02  0.66428127150E+02  0.00000000000E+00 0.  1.
         14    1    4    4    0    0  0.52045779293E+02  0.52780385825E+02  0.16597638538E+03  0.18177649126E+03  0.00000000000E+00 0. -1.
         -5    1    5    5    0  503  0.21641301101E+02 -0.40105499682E+02  0.38782421036E+02  0.60024688250E+02  0.47000000000E+01 0.  1.
         13    1    6    6    0    0 -0.33082858461E+02 -0.27703395110E+02  0.98976626651E+02  0.10797372943E+03  0.00000000000E+00 0. -1.
        -14    1    6    6    0    0 -0.49599404024E+02  0.47304058674E+02  0.28706278129E+03  0.29513186078E+03  0.00000000000E+00 0.  1.
</event>
<event>
12    1  0.1683022E-002  0.1900098E+03  0.7818608E-02  0.1158608E+00
         21   -1    0    0  503  502  0.00000000000E+00  0.00000000000E+00  0.10282940464E+03  0.10282940464E+03  0.00000000000E+00 0. -1.
         21   -1    0    0  501  503 -0.00000000000E+00 -0.00000000000E+00 -0.36262814784E+03  0.36262814784E+03  0.00000000000E+00 0. -1.
          6    2    1    2  501    0  0.80603143532E+02  0.18769591115E+02 -0.17339267850E+03  0.25672395160E+03  0.17027331579E+03 0.  0.
         24    2    3    3    0    0  0.55517977959E+02 -0.51844741871E+02 -0.13306669033E+03  0.17149528931E+03  0.77030948600E+02 0.  0.
         -6    2    1    2    0  502 -0.80603143532E+02 -0.18769591115E+02 -0.86406064698E+02  0.20873360088E+03  0.17103959723E+03 0.  0.
        -24    2    5    5    0    0 -0.75790905316E+02 -0.67803056470E+01 -0.12732686860E+03  0.16556529312E+03  0.73549309622E+02 0.  0.
          5    1    3    3  501    0  0.25085165573E+02  0.70614332986E+02 -0.40325988168E+02  0.85228662295E+02  0.47000000000E+01 0. -1.
        -11    1    4    4    0    0  0.52130083957E+02 -0.48981328473E+02 -0.47617489469E+02  0.85931027550E+02  0.00000000000E+00 0.  1.
         12    1    4    4    0    0  0.33878940020E+01 -0.28634133977E+01 -0.85449200862E+02  0.85564261757E+02  0.00000000000E+00 0. -1.
         -5    1    5    5    0  502 -0.48122382160E+01 -0.11989285468E+02  0.40920803903E+02  0.43168307758E+02  0.47000000000E+01 0.  1.
         13    1    6    6    0    0 -0.76555635432E+02 -0.27344297881E+02 -0.80451225142E+02  0.11437165545E+03  0.00000000000E+00 0. -1.
        -14    1    6    6    0    0  0.76473011587E+00  0.20563992234E+02 -0.46875643459E+02  0.51193637675E+02  0.00000000000E+00 0.  1.
</event>
<event>
12    1  0.1683022E-002  0.1760083E+03  0.7818608E-02  0.1172279E+00
         21   -1    0    0  503  502  0.00000000000E+00  0.00000000000E+00  0.14447623928E+03  0.14447623928E+03  0.00000000000E+00 0. -1.
         21   -1    0    0  501  503 -0.00000000000E+00 -0.00000000000E+00 -0.23683557088E+03  0.23683557088E+03  0.00000000000E+00 0.  1.
          6    2    1    2  501    0  0.30714782596E+02 -0.47464365588E+00 -0.10798892719E+03  0.20461092974E+03  0.17105671871E+03 0.  0.
         24    2    3    3    0    0 -0.23693673075E+02 -0.48789352132E+02 -0.84568513174E+02  0.12802635625E+03  0.79354416702E+02 0.  0.
         -6    2    1    2    0  502 -0.30714782596E+02  0.47464365588E+00  0.15629595588E+02  0.17670088042E+03  0.17330693502E+03 0.  0.
        -24    2    5    5    0    0 -0.70515908123E+02 -0.29481546287E+02  0.44974197098E+02  0.11869485878E+03  0.78893195053E+02 0.  0.
          5    1    3    3  501    0  0.54408455671E+02  0.48314708476E+02 -0.23420414018E+02  0.76584573488E+02  0.47000000000E+01 0. -1.
        -13    1    4    4    0    0  0.12645059275E+02  0.14343387757E+02 -0.35108165213E+02  0.39977663277E+02  0.00000000000E+00 0.  1.
         14    1    4    4    0    0 -0.36338732350E+02 -0.63132739889E+02 -0.49460347961E+02  0.88048692977E+02  0.00000000000E+00 0. -1.
         -5    1    5    5    0  502  0.39801125527E+02  0.29956189943E+02 -0.29344601510E+02  0.58006021643E+02  0.47000000000E+01 0.  1.
         13    1    6    6    0    0 -0.40221298737E+01 -0.28880666310E+01  0.46795954772E+02  0.47057197543E+02  0.00000000000E+00 0. -1.
        -14    1    6    6    0    0 -0.66493778249E+02 -0.26593479656E+02 -0.18217576741E+01  0.71637661234E+02  0.00000000000E+00 0.  1.
</event>
<event>
12    1  0.1683022E-002  0.2233038E+03  0.7818608E-02  0.1131788E+00
         21   -1    0    0  503  502  0.00000000000E+00  0.00000000000E+00  0.16414492062E+03  0.16414492062E+03  0.00000000000E+00 0. -1.
         21   -1    0    0  501  503 -0.00000000000E+00 -0.00000000000E+00 -0.35087547116E+03  0.35087547116E+03  0.00000000000E+00 0. -1.
          6    2    1    2  501    0  0.13395096146E+03  0.46547247946E+02  0.38265324823E+01  0.22146187132E+03  0.17006237600E+03 0.  0.
         24    2    3    3    0    0  0.56080790194E+02  0.72793647587E+02 -0.42440228219E+02  0.12704079203E+03  0.76773821786E+02 0.  0.
         -6    2    1    2    0  502 -0.13395096146E+03 -0.46547247946E+02 -0.19055708302E+03  0.29355852046E+03  0.17249665700E+03 0.  0.
        -24    2    5    5    0    0 -0.69641767748E+02 -0.13017719974E+01 -0.24011502222E+02  0.10932403407E+03  0.80768321522E+02 0.  0.
          5    1    3    3  501    0  0.77870171270E+02 -0.26246399642E+02  0.46266760702E+02  0.94421079286E+02  0.47000000000E+01 0. -1.
        -11    1    4    4    0    0  0.25879268995E+02  0.38516189764E+02  0.19282918634E+02  0.50250018793E+02  0.00000000000E+00 0.  1.
         12    1    4    4    0    0  0.30201521200E+02  0.34277457824E+02 -0.61723146853E+02  0.76790773242E+02  0.00000000000E+00 0. -1.
         -5    1    5    5    0  502 -0.64309193717E+02 -0.45245475948E+02 -0.16654558080E+03  0.18423448639E+03  0.47000000000E+01 0.  1.
         13    1    6    6    0    0 -0.40055326228E+02 -0.30376968316E+02  0.14916172615E+02  0.52437406198E+02  0.00000000000E+00 0. -1.
        -14    1    6    6    0    0 -0.29586441519E+02  0.29075196318E+02 -0.38927674836E+02  0.56886627874E+02  0.00000000000E+00 0.  1.
</event>
<event>
12    1  0.1683022E-002  0.1737753E+03  0.7818608E-02  0.1174121E+00
         21   -1    0    0  501  502  0.00000000000E+00  0.00000000000E+00  0.24528489862E+04  0.24528489862E+04  0.00000000000E+00 0.  1.
         21   -1    0    0  502  503 -0.00000000000E+00 -0.00000000000E+00 -0.12596391549E+02  0.12596391549E+02  0.00000000000E+00 0.  1.
          6    2    1    2  501    0  0.13420146576E+02 -0.18285737549E+02  0.10232648276E+04  0.10379155781E+04  0.17228862774E+03 0.  0.
         24    2    3    3    0    0  0.21605241181E+02 -0.47544098415E+01  0.23128239950E+03  0.24576133234E+03  0.80110506761E+02 0.  0.
         -6    2    1    2    0  503 -0.13420146576E+02  0.18285737549E+02  0.14169877670E+04  0.14275297997E+04  0.17167564909E+03 0.  0.
        -24    2    5    5    0    0 -0.22148742862E+02 -0.33642103602E+02  0.12346379058E+04  0.12376712972E+04  0.76662399233E+02 0.  0.
          5    1    3    3  501    0 -0.81850946046E+01 -0.13531327708E+02  0.79198242814E+03  0.79215424577E+03  0.47000000000E+01 0. -1.
        -13    1    4    4    0    0  0.24241025771E+02 -0.36690129025E+02  0.81678432449E+02  0.92763997465E+02  0.00000000000E+00 0.  1.
         14    1    4    4    0    0 -0.26357845898E+01  0.31935719184E+02  0.14960396705E+03  0.15299733487E+03  0.00000000000E+00 0. -1.
         -5    1    5    5    0  503  0.87285962861E+01  0.51927841151E+02  0.18234986124E+03  0.18985850251E+03  0.47000000000E+01 0.  1.
         13    1    6    6    0    0 -0.48011165999E+02 -0.12395887163E+02  0.55534251273E+03  0.55755182407E+03  0.00000000000E+00 0. -1.
        -14    1    6    6    0    0  0.25862423137E+02 -0.21246216439E+02  0.67929539305E+03  0.68011947308E+03  0.00000000000E+00 0.  1.
</event>
<event>
12    1  0.1683022E-002  0.3034380E+03  0.7818608E-02  0.1083578E+00
         21   -1    0    0  503  502  0.00000000000E+00  0.00000000000E+00  0.18342845128E+03  0.18342845128E+03  0.00000000000E+00 0. -1.
         21   -1    0    0  501  503 -0.00000000000E+00 -0.00000000000E+00 -0.55174899517E+03  0.55174899517E+03  0.00000000000E+00 0.  1.
          6    2    1    2  501    0 -0.20749182340E+03 -0.13902321056E+03 -0.29513052042E+03  0.42303740903E+03  0.17169250276E+03 0.  0.
         24    2    3    3    0    0 -0.19014916168E+03 -0.51583143701E+02 -0.19062061528E+03  0.28559308037E+03  0.80060378368E+02 0.  0.
         -6    2    1    2    0  502  0.20749182340E+03  0.13902321056E+03 -0.73190023473E+02  0.31214003742E+03  0.17232038061E+03 0.  0.
        -24    2    5    5    0    0  0.59094501063E+02  0.12617170041E+02  0.12860863086E+02  0.99003702100E+02  0.77362640819E+02 0.  0.
          5    1    3    3  501    0 -0.17342661715E+02 -0.87440066857E+02 -0.10450990514E+03  0.13744432866E+03  0.47000000000E+01 0. -1.
        -11    1    4    4    0    0 -0.13932079590E+03 -0.66265006896E+02 -0.16789238968E+03  0.22801138090E+03  0.00000000000E+00 0.  1.
         12    1    4    4    0    0 -0.50828365782E+02  0.14681863195E+02 -0.22728225604E+02  0.57581699472E+02  0.00000000000E+00 0. -1.
         -5    1    5    5    0  502  0.14839732233E+03  0.12640604052E+03 -0.86050886560E+02  0.21313633532E+03  0.47000000000E+01 0.  1.
         13    1    6    6    0    0  0.69600959782E+02  0.31543099130E+02  0.81317091476E+01  0.76846505444E+02  0.00000000000E+00 0. -1.
        -14    1    6    6    0    0 -0.10506458719E+02 -0.18925929089E+02  0.47291539389E+01  0.22157196656E+02  0.00000000000E+00 0.  1.
</event>
<event>
12    1  0.1683022E-002  0.1767282E+03  0.7818608E-02  0.1171130E+00
         21   -1    0    0  501  502  0.00000000000E+00  0.00000000000E+00  0.33373672827E+03  0.33373672827E+03  0.00000000000E+00 0. -1.
         21   -1    0    0  502  503 -0.00000000000E+00 -0.00000000000E+00 -0.11174164147E+03  0.11174164147E+03  0.00000000000E+00 0. -1.
          6    2    1    2  501    0 -0.13447283651E+01 -0.41929828702E+02  0.20155290693E+03  0.26806046708E+03  0.17167679194E+03 0.  0.
         24    2    3    3    0    0 -0.59818760181E+02  0.81234652756E+01  0.11019454323E+03  0.14850719338E+03  0.79166118829E+02 0.  0.
         -6    2    1    2    0  503  0.13447283651E+01  0.41929828702E+02  0.20442179872E+02  0.17741790266E+03  0.17117041402E+03 0.  0.
        -24    2    5    5    0    0 -0.49961710320E+02 -0.20229389820E+00 -0.23657377601E+02  0.97578517800E+02  0.80409465862E+02 0.  0.
          5    1    3    3  501    0  0.58474031816E+02 -0.50053293978E+02  0.91358363702E+02  0.11955327370E+03  0.47000000000E+01 0. -1.
        -13    1    4    4    0    0 -0.27438306515E+02 -0.53836857385E+01 -0.47191260602E+01  0.28356919566E+02  0.00000000000E+00 0.  1.
         14    1    4    4    0    0 -0.32380453666E+02  0.13507151014E+02  0.11491366929E+03  0.12015027381E+03  0.00000000000E+00 0. -1.
         -5    1    5    5    0  503  0.51306438685E+02  0.42132122600E+02  0.44099557473E+02  0.79839384859E+02  0.47000000000E+01 0.  1.
         13    1    6    6    0    0  0.17226003342E+02  0.16588415708E+02  0.13374885851E+01  0.23952027107E+02  0.00000000000E+00 0. -1.
        -14    1    6    6    0    0 -0.67187713661E+02 -0.16790709606E+02 -0.24994866186E+02  0.73626490693E+02  0.00000000000E+00 0.  1.
</event>
<event>
12    1  0.1683022E-002  0.1772917E+03  0.7818608E-02  0.1170706E+00
         21   -1    0    0  503  502  0.00000000000E+00  0.00000000000E+00  0.90156551126E+02  0.90156551126E+02  0.00000000000E+00 0. -1.
         21   -1    0    0  501  503 -0.00000000000E+00 -0.00000000000E+00 -0.12789752224E+04  0.12789752224E+04  0.00000000000E+00 0. -1.
          6    2    1    2  501    0  0.29802637754E+02  0.33642176368E+02 -0.11784273083E+04  0.11915358248E+04  0.17043094697E+03 0.  0.
         24    2    3    3    0    0 -0.22262827696E+02  0.51234842603E+02 -0.41898780788E+03  0.43009589984E+03  0.79442163291E+02 0.  0.
         -6    2    1    2    0  502 -0.29802637754E+02 -0.33642176368E+02 -0.10391362967E+02  0.17759594868E+03  0.17150028371E+03 0.  0.
        -24    2    5    5    0    0 -0.14110823487E+02 -0.75618726818E+02 -0.46141056723E+02  0.12007730451E+03  0.79826403896E+02 0.  0.
          5    1    3    3  501    0  0.52065465451E+02 -0.17592666235E+02 -0.75943950042E+03  0.76143992501E+03  0.47000000000E+01 0. -1.
        -11    1    4    4    0    0  0.23324667289E+02  0.95365866754E+01 -0.50207967134E+02  0.56176743883E+02  0.00000000000E+00 0.  1.
         12    1    4    4    0    0 -0.45587494985E+02  0.41698255928E+02 -0.36877984075E+03  0.37391915595E+03  0.00000000000E+00 0. -1.
         -5    1    5    5    0  502 -0.15691814267E+02  0.41976550450E+02  0.35749693756E+02  0.57518644162E+02  0.47000000000E+01 0.  1.
         11    1    6    6    0    0 -0.13483856448E+01  0.10090589112E+02  0.11991465486E+02  0.15730015162E+02  0.00000000000E+00 0. -1.
        -12    1    6    6    0    0 -0.12762437843E+02 -0.85709315930E+02 -0.58132522209E+02  0.10434728935E+03  0.00000000000E+00 0.  1.
</event>
<event>
12    1  0.1683022E-002  0.2108181E+03  0.7818608E-02  0.1143071E+00
         21   -1    0    0  501  502  0.00000000000E+00  0.00000000000E+00  0.20694000735E+03  0.20694000735E+03  0.00000000000E+00 0. -1.
         21   -1    0    0  502  503 -0.00000000000E+00 -0.00000000000E+00 -0.21055347361E+03  0.21055347361E+03  0.00000000000E+00 0.  1.
          6    2    1    2  501    0  0.11826841155E+03 -0.45190853512E+01 -0.38347956691E+02  0.20383313969E+03  0.16146065698E+03 0.  0.
         24    2    3    3    0    0  0.64387458030E+02 -0.63104646033E+02 -0.34632485138E+02  0.12401259220E+03  0.77793141702E+02 0.  0.
         -6    2    1    2    0  503 -0.11826841155E+03  0.45190853512E+01  0.34734490436E+02  0.21366034126E+03  0.17446036026E+03 0.  0.
        -24    2    5    5    0    0 -0.48801830435E+02 -0.53985299471E+02 -0.16430233852E+02  0.10931338181E+03  0.79896380685E+02 0.  0.
          5    1    3    3  501    0  0.53880953518E+02  0.58585560682E+02 -0.37154715524E+01  0.79820547488E+02  0.47000000000E+01 0. -1.
        -13    1    4    4    0    0  0.75541132711E+02 -0.29531472034E+02 -0.35703613684E+02  0.88618951708E+02  0.00000000000E+00 0.  1.
         14    1    4    4    0    0 -0.11153674681E+02 -0.33573173999E+02  0.10711285456E+01  0.35393640496E+02  0.00000000000E+00 0. -1.
         -5    1    5    5    0  503 -0.69466581114E+02  0.58504384823E+02  0.51164724288E+02  0.10434695945E+03  0.47000000000E+01 0.  1.
         11    1    6    6    0    0 -0.70502618454E+02 -0.37514243847E+02 -0.58107299200E+01  0.80073105862E+02  0.00000000000E+00 0. -1.
        -12    1    6    6    0    0  0.21700788019E+02 -0.16471055624E+02 -0.10619503932E+02  0.29240275952E+02  0.00000000000E+00 0.  1.
</event>
<event>
12    1  0.1683022E-002  0.1897818E+03  0.7818608E-02  0.1159757E+00
         21   -1    0    0  503  502  0.00000000000E+00  0.00000000000E+00  0.10803888589E+03  0.10803888589E+03  0.00000000000E+00 0. -1.
         21   -1    0    0  501  503 -0.00000000000E+00 -0.00000000000E+00 -0.32592221262E+03  0.32592221262E+03  0.00000000000E+00 0. -1.
          6    2    1    2  501    0 -0.79228315720E+02 -0.84233927282E+01 -0.11913632991E+03  0.22002630968E+03  0.16694320080E+03 0.  0.
         24    2    3    3    0    0 -0.90698726885E+02  0.18045102621E+02 -0.13883592853E+03  0.18477980965E+03  0.79475016306E+02 0.  0.
         -6    2    1    2    0  502  0.79228315720E+02  0.84233927282E+01 -0.98746996825E+02  0.21393478882E+03  0.17224704621E+03 0.  0.
        -24    2    5    5    0    0  0.97974798778E+02 -0.35903472931E+02 -0.10016466285E+03  0.16555709331E+03  0.80548562346E+02 0.  0.
          5    1    3    3  501    0  0.11470411165E+02 -0.26468495349E+02  0.19699598627E+02  0.35246500030E+02  0.47000000000E+01 0. -1.
        -11    1    4    4    0    0 -0.34722726280E+02  0.35154506275E+01 -0.11841227434E+03  0.12344834072E+03  0.00000000000E+00 0.  1.
         12    1    4    4    0    0 -0.55976000605E+02  0.14529651993E+02 -0.20423654199E+02  0.61331468934E+02  0.00000000000E+00 0. -1.
         -5    1    5    5    0  502 -0.18746483058E+02  0.44326865660E+02  0.14176660231E+01  0.48377695514E+02  0.47000000000E+01 0.  1.
         11    1    6    6    0    0  0.28757976308E+02  0.18239732480E+02 -0.59879216498E+02  0.68885627026E+02  0.00000000000E+00 0. -1.
        -12    1    6    6    0    0  0.69216822471E+02 -0.54143205411E+02 -0.40285446350E+02  0.96671466280E+02  0.00000000000E+00 0.  1.
</event>
<event>
12    1  0.1683022E-002  0.2018495E+03  0.7818608E-02  0.1149231E+00
         21   -1    0    0  501  502  0.00000000000E+00  0.00000000000E+00  0.84949522681E+03  0.84949522681E+03  0.00000000000E+00 0.  1.
         21   -1    0    0  502  503 -0.00000000000E+00 -0.00000000000E+00 -0.47748032803E+02  0.47748032803E+02  0.00000000000E+00 0.  1.
          6    2    1    2  501    0 -0.33683926104E+02  0.91247646475E+02  0.46911906387E+03  0.51070139908E+03  0.17686854743E+03 0.  0.
         24    2    3    3    0    0  0.19493661868E+02  0.80570465223E+01  0.10362310631E+03  0.13207504398E+03  0.79127430321E+02 0.  0.
         -6    2    1    2    0  503  0.33683926104E+02 -0.91247646475E+02  0.33262813013E+03  0.38654186053E+03  0.17120863623E+03 0.  0.
        -24    2    5    5    0    0 -0.29589876634E-01  0.90537576337E+01  0.20955383618E+03  0.22416469262E+03  0.79088733441E+02 0.  0.
          5    1    3    3  501    0 -0.53177587972E+02  0.83190599952E+02  0.36549595756E+03  0.37862635510E+03  0.47000000000E+01 0. -1.
        -11    1    4    4    0    0 -0.63924435108E+01  0.26170732235E+02  0.35986260611E+01  0.27179416279E+02  0.00000000000E+00 0.  1.
         12    1    4    4    0    0  0.25886105379E+02 -0.18113685713E+02  0.10002448025E+03  0.10489562770E+03  0.00000000000E+00 0. -1.
         -5    1    5    5    0  503  0.33713515981E+02 -0.10030140411E+03  0.12307429396E+03  0.16237716791E+03  0.47000000000E+01 0.  1.
         11    1    6    6    0    0  0.37124393662E+02  0.86334661784E+01  0.69495154323E+02  0.79261174716E+02  0.00000000000E+00 0. -1.
        -12    1    6    6    0    0 -0.37153983539E+02  0.42029145529E+00  0.14005868185E+03  0.14490351790E+03  0.00000000000E+00 0.  1.
</event>
<event>
12    1  0.1683022E-002  0.1984145E+03  0.7818608E-02  0.1151168E+00
         21   -1    0    0  501  502  0.00000000000E+00  0.00000000000E+00  0.85933394530E+02  0.85933394530E+02  0.00000000000E+00 0. -1.
         21   -1    0    0  502  503 -0.00000000000E+00 -0.00000000000E+00 -0.54250000637E+03  0.54250000637E+03  0.00000000000E+00 0. -1.
          6    2    1    2  501    0  0.74410401790E+02  0.63788398161E+02 -0.10350041136E+03  0.22343456452E+03  0.17206045983E+03 0.  0.
         24    2    3    3    0    0  0.10203167025E+03  0.93986285376E+02 -0.93668280776E+02  0.18108355916E+03  0.69091424964E+02 0.  0.
         -6    2    1    2    0  503 -0.74410401790E+02 -0.63788398161E+02 -0.35306620049E+03  0.40499883638E+03  0.17251796402E+03 0.  0.
        -24    2    5    5    0    0 -0.36453677122E+02  0.19989129241E+02 -0.25634847163E+03  0.27144811149E+03  0.79000648467E+02 0.  0.
          5    1    3    3  501    0 -0.27621268455E+02 -0.30197887214E+02 -0.98321305831E+01  0.42351005361E+02  0.47000000000E+01 0. -1.
        -11    1    4    4    0    0  0.79107123679E+02  0.56382232380E+02 -0.96531482301E+02  0.13694969960E+03  0.00000000000E+00 0.  1.
         12    1    4    4    0    0  0.22924546566E+02  0.37604052996E+02  0.28632015254E+01  0.44133859564E+02  0.00000000000E+00 0. -1.
         -5    1    5    5    0  503 -0.37956724668E+02 -0.83777527402E+02 -0.96717728855E+02  0.13355072490E+03  0.47000000000E+01 0.  1.
         13    1    6    6    0    0  0.19635901150E+02  0.19944482448E+02 -0.13347683214E+03  0.13637967485E+03  0.00000000000E+00 0. -1.
        -14    1    6    6    0    0 -0.56089578273E+02  0.44646793200E-01 -0.12287163949E+03  0.13506843664E+03  0.00000000000E+00 0.  1.
</event>
<event>
12    1  0.1683022E-002  0.1753600E+03  0.7818608E-02  0.1173469E+00
         21   -1    0    0  503  502  0.00000000000E+00  0.00000000000E+00  0.13780887992E+03  0.13780887992E+03  0.00000000000E+00 0.  1.
         21   -1    0    0  501  503 -0.00000000000E+00 -0.00000000000E+00 -0.28779400996E+03  0.28779400996E+03  0.00000000000E+00 0.  1.
          6    2    1    2  501    0  0.30289276197E+02 -0.99740064527E+01 -0.17932023387E+03  0.24780620323E+03  0.16803346996E+03 0.  0.
         24    2    3    3    0    0 -0.25937154514E+02 -0.29320980893E+02 -0.16331513322E+03  0.18604885405E+03  0.80061772724E+02 0.  0.
         -6    2    1    2    0  502 -0.30289276197E+02  0.99740064527E+01  0.29335103829E+02  0.17779668666E+03  0.17243605311E+03 0.  0.
        -24    2    5    5    0    0  0.47987073291E+02 -0.10434015059E+02  0.85678691939E+01  0.94148361716E+02  0.79867876885E+02 0.  0.
          5    1    3    3  501    0  0.56226430710E+02  0.19346974440E+02 -0.16005100648E+02  0.61757349176E+02  0.47000000000E+01 0. -1.
        -13    1    4    4    0    0 -0.15107271513E+01  0.25848739473E+02 -0.72801120723E+02  0.77268640518E+02  0.00000000000E+00 0.  1.
         14    1    4    4    0    0 -0.24426427363E+02 -0.55169720366E+02 -0.90514012494E+02  0.10878021354E+03  0.00000000000E+00 0. -1.
         -5    1    5    5    0  502 -0.78276349487E+02  0.20408021512E+02  0.20767234635E+02  0.83648324941E+02  0.47000000000E+01 0.  1.
         13    1    6    6    0    0 -0.10623825442E+02  0.20316291299E+02 -0.10575296938E+02  0.25247856632E+02  0.00000000000E+00 0. -1.
        -14    1    6    6    0    0  0.58610898733E+02 -0.30750306358E+02  0.19143166132E+02  0.68900505085E+02  0.00000000000E+00 0.  1.
</event>
<event>
12    1  0.1683022E-002  0.3862189E+03  0.7818608E-02  0.1048666E+00
         21   -1    0    0  501  502  0.00000000000E+00  0.00000000000E+00  0.12856725942E+03  0.12856725942E+03  0.00000000000E+00 0. -1.
         21   -1    0    0  502  503 -0.00000000000E+00 -0.00000000000E+00 -0.11743978989E+04  0.11743978989E+04  0.00000000000E+00 0.  1.
          6    2    1    2  501    0  0.34561303753E+03 -0.46788619634E+01 -0.45069542987E+03  0.59349284060E+03  0.17215434321E+03 0.  0.
         24    2    3    3    0    0  0.80555210145E+02  0.12388656653E+02 -0.18264504763E+03  0.21610703076E+03  0.81856060425E+02 0.  0.
         -6    2    1    2    0  503 -0.34561303753E+03  0.46788619634E+01 -0.59513520958E+03  0.70947231769E+03  0.17232175844E+03 0.  0.
        -24    2    5    5    0    0 -0.13499879845E+03 -0.48416629393E+02 -0.19640662708E+03  0.25539736639E+03  0.77996192278E+02 0.  0.
          5    1    3    3  501    0  0.26505782738E+03 -0.17067518616E+02 -0.26805038224E+03  0.37738580984E+03  0.47000000000E+01 0. -1.
        -13    1    4    4    0    0  0.45886068240E+02  0.11221763048E+00 -0.17171281966E+03  0.17773811152E+03  0.00000000000E+00 0.  1.
         14    1    4    4    0    0  0.34669141906E+02  0.12276439022E+02 -0.10932227964E+02  0.38368919242E+02  0.00000000000E+00 0. -1.
         -5    1    5    5    0  503 -0.21061423907E+03  0.53095491356E+02 -0.39872858249E+03  0.45407495130E+03  0.47000000000E+01 0.  1.
         11    1    6    6    0    0 -0.17557930194E+02  0.82292387562E+01 -0.74200854603E+02  0.76692686138E+02  0.00000000000E+00 0. -1.
        -12    1    6    6    0    0 -0.11744086826E+03 -0.56645868149E+02 -0.12220577248E+03  0.17870468025E+03  0.00000000000E+00 0.  1.
</event>
<event>
12    1  0.1683022E-002  0.1725401E+03  0.7818608E-02  0.1175225E+00
         21   -1    0    0  501  502  0.00000000000E+00  0.00000000000E+00  0.13731851493E+04  0.13731851493E+04  0.00000000000E+00 0. -1.
         21   -1    0    0  502  503 -0.00000000000E+00 -0.00000000000E+00 -0.22184525209E+02  0.22184525209E+02  0.00000000000E+00 0. -1.
          6    2    1    2  501    0  0.82405283590E+01 -0.11844427520E+02  0.78076897798E+03  0.79960610927E+03  0.17193468597E+03 0.  0.
         24    2    3    3    0    0 -0.34985297672E+02 -0.47675989664E+02  0.33869568569E+03  0.35395685410E+03  0.84105386355E+02 0.  0.
         -6    2    1    2    0  503 -0.82405283590E+01  0.11844427520E+02  0.57023164609E+03  0.59576356522E+03  0.17193573993E+03 0.  0.
        -24    2    5    5    0    0 -0.14570037762E+02  0.11924945966E+02  0.57852114611E+03  0.58432350477E+03  0.79954683379E+02 0.  0.
          5    1    3    3  501    0  0.43225826031E+02  0.35831562144E+02  0.44207329229E+03  0.44564925517E+03  0.47000000000E+01 0. -1.
        -13    1    4    4    0    0 -0.50620564416E+02 -0.16209681456E+02  0.28411586788E+03  0.28904501673E+03  0.00000000000E+00 0.  1.
         14    1    4    4    0    0  0.15635266743E+02 -0.31466308208E+02  0.54579817811E+02  0.64911837369E+02  0.00000000000E+00 0. -1.
         -5    1    5    5    0  503  0.63295094027E+01 -0.80518446033E-01 -0.82895000174E+01  0.11440060447E+02  0.47000000000E+01 0.  1.
         11    1    6    6    0    0 -0.39067999654E+01 -0.23081736777E+02  0.58410703831E+02  0.62927259440E+02  0.00000000000E+00 0. -1.
        -12    1    6    6    0    0 -0.10663237796E+02  0.35006682743E+02  0.52011044228E+03  0.52139624533E+03  0.00000000000E+00 0.  1.
</event>
<event>
12    1  0.1683022E-002  0.1891918E+03  0.7818608E-02  0.1159853E+00
         21   -1    0    0  501  502  0.00000000000E+00  0.00000000000E+00  0.12398297879E+03  0.12398297879E+03  0.00000000000E+00 0. -1.
         21   -1    0    0  502  503 -0.00000000000E+00 -0.00000000000E+00 -0.29893218338E+03  0.29893218338E+03  0.00000000000E+00 0. -1.
          6    2    1    2  501    0 -0.12045653468E+02  0.71703279995E+02 -0.13489044527E+03  0.23235529283E+03  0.17466279441E+03 0.  0.
         24    2    3    3    0    0  0.27998153973E+02  0.19113393478E+02 -0.53989373157E+01  0.86892777689E+02  0.79824732096E+02 0.  0.
         -6    2    1    2    0  503  0.12045653468E+02 -0.71703279995E+02 -0.40058759320E+02  0.19055986934E+03  0.17152813610E+03 0.  0.
        -24    2    5    5    0    0  0.72865742276E+02 -0.45352443365E+02 -0.36759520422E+02  0.12402848749E+03  0.81642775858E+02 0.  0.
          5    1    3    3  501    0 -0.40043807440E+02  0.52589886517E+02 -0.12949150795E+03  0.14546251514E+03  0.47000000000E+01 0. -1.
        -13    1    4    4    0    0  0.19555118834E+01 -0.29356285261E+02  0.75332682743E+01  0.30370473193E+02  0.00000000000E+00 0.  1.
         14    1    4    4    0    0  0.26042642089E+02  0.48469678739E+02 -0.12932205590E+02  0.56522304496E+02  0.00000000000E+00 0. -1.
         -5    1    5    5    0  503 -0.60820088809E+02 -0.26350836630E+02 -0.32992388975E+01  0.66531381852E+02  0.47000000000E+01 0.  1.
         11    1    6    6    0    0  0.65788743768E+02 -0.59578858945E+02 -0.51278165714E+02  0.10250487559E+03  0.00000000000E+00 0. -1.
        -12    1    6    6    0    0  0.70769985081E+01  0.14226415581E+02  0.14518645291E+02  0.21523611901E+02  0.00000000000E+00 0.  1.
</event>
<event>
12    1  0.1683022E-002  0.2194147E+03  0.7818608E-02  0.1135199E+00
         21   -1    0    0  501  502  0.00000000000E+00  0.00000000000E+00  0.53112476542E+03  0.53112476542E+03  0.00000000000E+00 0. -1.
         21   -1    0    0  502  503 -0.00000000000E+00 -0.00000000000E+00 -0.89602586039E+02  0.89602586039E+02  0.00000000000E+00 0.  1.
          6    2    1    2  501    0 -0.10935187688E+03  0.68097527235E+02  0.19255210826E+03  0.29192312975E+03  0.17761670275E+03 0.  0.
         24    2    3    3    0    0 -0.79696611324E+02  0.75258375849E+02  0.21500110153E+03  0.25375560655E+03  0.78428701418E+02 0.  0.
         -6    2    1    2    0  503  0.10935187688E+03 -0.68097527235E+02  0.24897007112E+03  0.32880422171E+03  0.17184590104E+03 0.  0.
        -24    2    5    5    0    0  0.11537659788E+02  0.18506297083E+02  0.71004195749E+02  0.10798351106E+03  0.78378837848E+02 0.  0.
          5    1    3    3  501    0 -0.29655265557E+02 -0.71608486137E+01 -0.22448993272E+02  0.38167523198E+02  0.47000000000E+01 0. -1.
        -11    1    4    4    0    0 -0.63605933686E+02  0.89736551350E+02  0.15574238480E+03  0.19066739069E+03  0.00000000000E+00 0.  1.
         12    1    4    4    0    0 -0.16090677638E+02 -0.14478175501E+02  0.59258716727E+02  0.63088215864E+02  0.00000000000E+00 0. -1.
         -5    1    5    5    0  503  0.97814217093E+02 -0.86603824318E+02  0.17796587537E+03  0.22082071064E+03  0.47000000000E+01 0.  1.
         13    1    6    6    0    0  0.29283088427E+02  0.70627835981E+01  0.79658362518E+02  0.85163589045E+02  0.00000000000E+00 0. -1.
        -14    1    6    6    0    0 -0.17745428640E+02  0.11443513485E+02 -0.86541667682E+01  0.22819922019E+02  0.00000000000E+00 0.  1.
</event>
<event>
12    1  0.1683022E-002  0.1893123E+03  0.7818608E-02  0.1161994E+00
         21   -1    0    0  503  502  0.00000000000E+00  0.00000000000E+00  0.19663986421E+03  0.19663986421E+03  0.00000000000E+00 0. -1.
         21   -1    0    0  501  503 -0.00000000000E+00 -0.00000000000E+00 -0.17100004465E+03  0.17100004465E+03  0.00000000000E+00 0. -1.
          6    2    1    2  501    0 -0.31604046399E+02 -0.30350629535E+02  0.22940426471E+02  0.19069713482E+03  0.18417154394E+03 0.  0.
         24    2    3    3    0    0  0.47775021025E+01 -0.48151260640E+02  0.80145519296E+02  0.12044763529E+03  0.75782320864E+02 0.  0.
         -6    2    1    2    0  502  0.31604046399E+02  0.30350629535E+02  0.26993930934E+01  0.17694277404E+03  0.17141027420E+03 0.  0.
        -24    2    5    5    0    0 -0.14296541388E+02  0.16472777690E+02 -0.56114440186E+02  0.10091241356E+03  0.80986056280E+02 0.  0.
          5    1    3    3  501    0 -0.36381548502E+02  0.17800631105E+02 -0.57205092825E+02  0.70249499530E+02  0.47000000000E+01 0. -1.
        -13    1    4    4    0    0  0.33381917067E+02 -0.72311312704E+01  0.12497449622E+02  0.36370701032E+02  0.00000000000E+00 0.  1.
         14    1    4    4    0    0 -0.28604414965E+02 -0.40920129370E+02  0.67648069673E+02  0.84076934255E+02  0.00000000000E+00 0. -1.
         -5    1    5    5    0  502  0.45900587787E+02  0.13877851845E+02  0.58813833279E+02  0.76030360489E+02  0.47000000000E+01 0.  1.
         11    1    6    6    0    0  0.14903218076E+01 -0.32347156303E+02 -0.18508146338E+02  0.37297601275E+02  0.00000000000E+00 0. -1.
        -12    1    6    6    0    0 -0.15786863196E+02  0.48819933992E+02 -0.37606293848E+02  0.63614812281E+02  0.00000000000E+00 0.  1.
</event>
<event>
12    1  0.1683022E-002  0.1746679E+03  0.7818608E-02  0.1173260E+00
         21   -1    0    0  501  502  0.00000000000E+00  0.00000000000E+00  0.43256760858E+03  0.43256760858E+03  0.00000000000E+00 0.  1.
         21   -1    0    0  502  503 -0.00000000000E+00 -0.00000000000E+00 -0.70258325477E+02  0.70258325477E+02  0.00000000000E+00 0. -1.
          6    2    1    2  501    0 -0.15810881019E+02 -0.24561313289E+02  0.17485162021E+03  0.24660483623E+03  0.17142816016E+03 0.  0.
         24    2    3    3    0    0 -0.85090719241E+01 -0.72465871619E+02  0.64610614701E+02  0.12609204679E+03  0.80006036502E+02 0.  0.
         -6    2    1    2    0  503  0.15810881019E+02  0.24561313289E+02  0.18745766289E+03  0.25622109782E+03  0.17220811108E+03 0.  0.
        -24    2    5    5    0    0  0.34361437071E+02 -0.48782745462E+02  0.89337524707E+02  0.13223268868E+03  0.77096212761E+02 0.  0.
          5    1    3    3  501    0 -0.73018090948E+01  0.47904558330E+02  0.11024100551E+03  0.12051278944E+03  0.47000000000E+01 0. -1.
        -13    1    4    4    0    0  0.33553361709E+01 -0.65956751608E+01  0.58408193019E+02  0.58875106993E+02  0.00000000000E+00 0.  1.
         14    1    4    4    0    0 -0.11864408095E+02 -0.65870196458E+02  0.62024216825E+01  0.67216939796E+02  0.00000000000E+00 0. -1.
         -5    1    5    5    0  503 -0.18550556052E+02  0.73344058751E+02  0.98120138185E+02  0.12398840914E+03  0.47000000000E+01 0.  1.
         11    1    6    6    0    0 -0.17462408963E+02 -0.96997014845E+01 -0.21143446127E+01  0.20087070190E+02  0.00000000000E+00 0. -1.
        -12    1    6    6    0    0  0.51823846034E+02 -0.39083043977E+02  0.91451869320E+02  0.11214561849E+03  0.00000000000E+00 0.  1.
</event>
<event>
12    1  0.1683022E-002  0.2123361E+03  0.7818608E-02  0.1139943E+00
         21   -1    0    0  501  502  0.00000000000E+00  0.00000000000E+00  0.10713323318E+04  0.10713323318E+04  0.00000000000E+00 0.  1.
         21   -1    0    0  502  503 -0.00000000000E+00 -0.00000000000E+00 -0.43144099456E+02  0.43144099456E+02  0.00000000000E+00 0.  1.
          6    2    1    2  501    0  0.18118384823E+02 -0.12135855897E+03  0.60862121663E+03  0.64423913034E+03  0.17195376130E+03 0.  0.
         24    2    3    3    0    0 -0.19746132685E+02 -0.14368975484E+03  0.45123225439E+03  0.48075891921E+03  0.80510468873E+02 0.  0.
         -6    2    1    2    0  503 -0.18118384823E+02  0.12135855897E+03  0.41956701573E+03  0.47023730093E+03  0.17329299696E+03 0.  0.
        -24    2    5    5    0    0  0.39097584238E+02  0.12382906501E+03  0.31827374176E+03  0.35378049406E+03  0.83667226837E+02 0.  0.
          5    1    3    3  501    0  0.37864517508E+02  0.22331195872E+02  0.15738896224E+03  0.16348021113E+03  0.47000000000E+01 0. -1.
        -11    1    4    4    0    0 -0.94179085668E+01 -0.11331807046E+03  0.42302761684E+03  0.43804343016E+03  0.00000000000E+00 0.  1.
         12    1    4    4    0    0 -0.10328224118E+02 -0.30371684387E+02  0.28204637547E+02  0.42715489054E+02  0.00000000000E+00 0. -1.
         -5    1    5    5    0  503 -0.57215969061E+02 -0.24705060440E+01  0.10129327397E+03  0.11645680687E+03  0.47000000000E+01 0.  1.
         11    1    6    6    0    0  0.41811818457E+02  0.74506016787E+02  0.27547977605E+03  0.28842413511E+03  0.00000000000E+00 0. -1.
        -12    1    6    6    0    0 -0.27142342193E+01  0.49323048228E+02  0.42793965705E+02  0.65356358946E+02  0.00000000000E+00 0.  1.
</event>
<event>
12    1  0.1683022E-002  0.2070639E+03  0.7818608E-02  0.1144073E+00
         21   -1    0    0  501  502  0.00000000000E+00  0.00000000000E+00  0.12581790075E+04  0.12581790075E+04  0.00000000000E+00 0.  1.
         21   -1    0    0  502  503 -0.00000000000E+00 -0.00000000000E+00 -0.46335393516E+02  0.46335393516E+02  0.00000000000E+00 0. -1.
          6    2    1    2  501    0  0.10806057186E+03  0.42572358665E+02  0.94233653021E+03  0.96464745974E+03  0.17046141056E+03 0.  0.
         24    2    3    3    0    0  0.10479915956E+03  0.38936676146E+02  0.41677685710E+03  0.43904407789E+03  0.80980399656E+02 0.  0.
         -6    2    1    2    0  503 -0.10806057186E+03 -0.42572358665E+02  0.26950708382E+03  0.33986694133E+03  0.17142338424E+03 0.  0.
        -24    2    5    5    0    0 -0.75463526669E+02 -0.41627644162E+02  0.73778978410E+02  0.14138510063E+03  0.84373007581E+02 0.  0.
          5    1    3    3  501    0  0.32614122959E+01  0.36356825190E+01  0.52555967311E+03  0.52560338184E+03  0.47000000000E+01 0. -1.
        -11    1    4    4    0    0  0.33053660404E+02  0.49704121231E+02  0.12707448399E+03  0.14039575711E+03  0.00000000000E+00 0.  1.
         12    1    4    4    0    0  0.71745499160E+02 -0.10767445085E+02  0.28970237311E+03  0.29864832078E+03  0.00000000000E+00 0. -1.
         -5    1    5    5    0  503 -0.32597045191E+02 -0.94471450340E+00  0.19572810541E+03  0.19848184070E+03  0.47000000000E+01 0.  1.
         13    1    6    6    0    0 -0.66695599675E+02 -0.87735352588E+01  0.85320729159E+01  0.67809101197E+02  0.00000000000E+00 0. -1.
        -14    1    6    6    0    0 -0.87679269949E+01 -0.32854108903E+02  0.65246905494E+02  0.73575999430E+02  0.00000000000E+00 0.  1.
</event>
<event>
12    1  0.1683022E-002  0.1915263E+03  0.7818608E-02  0.1157130E+00
         21   -1    0    0  503  502  0.00000000000E+00  0.00000000000E+00  0.14181156247E+03  0.14181156247E+03  0.00000000000E+00 0. -1.
         21   -1    0    0  501  503 -0.00000000000E+00 -0.00000000000E+00 -0.43571410126E+03  0.43571410126E+03  0.00000000000E+00 0. -1.
          6    2    1    2  501    0  0.66833310375E+02  0.50993020837E+02 -0.33117947686E+03  0.38257311230E+03  0.17209114099E+03 0.  0.
         24    2    3    3    0    0  0.19060421558E+02  0.84595972505E+02 -0.28387103137E+03  0.30726317748E+03  0.79423671231E+02 0.  0.
         -6    2    1    2    0  502 -0.66833310375E+02 -0.50993020837E+02  0.37276938073E+02  0.19495255143E+03  0.17190098211E+03 0.  0.
        -24    2    5    5    0    0 -0.70541450104E+02  0.28371951296E+02  0.72541599432E+01  0.10988783308E+03  0.79004108877E+02 0.  0.
          5    1    3    3  501    0  0.47772888817E+02 -0.33602951668E+02 -0.47308445497E+02  0.75309934817E+02  0.47000000000E+01 0. -1.
        -13    1    4    4    0    0 -0.15173528882E+02  0.66214984186E+02 -0.23613464134E+03  0.24571167849E+03  0.00000000000E+00 0.  1.
         14    1    4    4    0    0  0.34233950439E+02  0.18380988319E+02 -0.47736390032E+02  0.61551498987E+02  0.00000000000E+00 0. -1.
         -5    1    5    5    0  502  0.37081397294E+01 -0.79364972133E+02  0.30022778130E+02  0.85064718353E+02  0.47000000000E+01 0.  1.
         11    1    6    6    0    0 -0.84570536271E+02  0.20014385954E+02  0.19993337667E+02  0.89176705486E+02  0.00000000000E+00 0. -1.
        -12    1    6    6    0    0  0.14029086167E+02  0.83575653428E+01 -0.12739177724E+02  0.20711127594E+02  0.00000000000E+00 0.  1.
</event>
<event>
12    1  0.1683022E-002  0.1901658E+03  0.7818608E-02  0.1160005E+00
         21   -1    0    0  503  502  0.00000000000E+00  0.00000000000E+00  0.18068848818E+02  0.18068848818E+02  0.00000000000E+00 0.  1.
         21   -1    0    0  501  503 -0.00000000000E+00 -0.00000000000E+00 -0.19248904387E+04  0.19248904387E+04  0.00000000000E+00 0.  1.
          6    2    1    2  501    0 -0.35085862805E+00  0.62981136176E+02 -0.92496458055E+03  0.94285618602E+03  0.17161458455E+03 0.  0.
         24    2    3    3    0    0  0.31151001427E+02  0.69484204570E+02 -0.88332380325E+03  0.89002909619E+03  0.78053898727E+02 0.  0.
         -6    2    1    2    0  502  0.35085862805E+00 -0.62981136176E+02 -0.98185700938E+03  0.10001031015E+04  0.17943321944E+03 0.  0.
        -24    2    5    5    0    0  0.62804516112E+02 -0.12599187558E+02 -0.40671221173E+03  0.41936871446E+03  0.79700368425E+02 0.  0.
          5    1    3    3  501    0 -0.31501860055E+02 -0.65030683932E+01 -0.41640777296E+02  0.52827089824E+02  0.47000000000E+01 0. -1.
        -11    1    4    4    0    0  0.56754806143E+02  0.40487046432E+02 -0.52023777454E+03  0.52488822716E+03  0.00000000000E+00 0.  1.
         12    1    4    4    0    0 -0.25603804716E+02  0.28997158138E+02 -0.36308602871E+03  0.36514086903E+03  0.00000000000E+00 0. -1.
         -5    1    5    5    0  502 -0.62453657484E+02 -0.50381948618E+02 -0.57514479765E+03  0.58073438709E+03  0.47000000000E+01 0.  1.
         13    1    6    6    0    0 -0.49047161391E+01 -0.64236163806E+01 -0.11695875939E+01  0.81662122768E+01  0.00000000000E+00 0. -1.
        -14    1    6    6    0    0  0.67709232252E+02 -0.61755711778E+01 -0.40554262413E+03  0.41120250218E+03  0.00000000000E+00 0.  1.
</event>
<event>
12    1  0.1683022E-002  0.2225171E+03  0.7818608E-02  0.1132200E+00
         21   -1    0    0  503  502  0.00000000000E+00  0.00000000000E+00  0.13326734081E+03  0.13326734081E+03  0.00000000000E+00 0.  1.
         21   -1    0    0  501  503 -0.00000000000E+00 -0.00000000000E+00 -0.38285988569E+03  0.38285988569E+03  0.00000000000E+00 0.  1.
          6    2    1    2  501    0 -0.54268233272E+01 -0.13832927693E+03 -0.17252991912E+03  0.28156782728E+03  0.17421087538E+03 0.  0.
         24    2    3    3    0    0 -0.29112968908E+02 -0.15547709003E+03 -0.17850030010E+03  0.25135497512E+03  0.79349076249E+02 0.  0.
         -6    2    1    2    0  502  0.54268233272E+01  0.13832927693E+03 -0.77062625751E+02  0.23455939922E+03  0.17295960282E+03 0.  0.
        -24    2    5    5    0    0 -0.64821827592E+02  0.76248052703E+02 -0.59354010940E+02  0.13903643656E+03  0.76109113797E+02 0.  0.
          5    1    3    3  501    0  0.23686145581E+02  0.17147813099E+02  0.59703809735E+01  0.30212852158E+02  0.47000000000E+01 0. -1.
        -11    1    4    4    0    0  0.21762700612E+02 -0.51877582182E+02 -0.31558543455E+02  0.64504576085E+02  0.00000000000E+00 0.  1.
         12    1    4    4    0    0 -0.50875669519E+02 -0.10359950785E+03 -0.14694175664E+03  0.18685039904E+03  0.00000000000E+00 0. -1.
         -5    1    5    5    0  502  0.70248650919E+02  0.62081224225E+02 -0.17708614812E+02  0.95522962662E+02  0.47000000000E+01 0.  1.
         13    1    6    6    0    0 -0.51480142213E+02  0.36416945390E+02 -0.71475784528E+02  0.95316245875E+02  0.00000000000E+00 0. -1.
        -14    1    6    6    0    0 -0.13341685379E+02  0.39831107313E+02  0.12121773588E+02  0.43720190684E+02  0.00000000000E+00 0.  1.
</event>
<event>
12    1  0.1683022E-002  0.2052200E+03  0.7818608E-02  0.1145508E+00
         21   -1    0    0  503  502  0.00000000000E+00  0.00000000000E+00  0.40334359288E+03  0.40334359288E+03  0.00000000000E+00 0.  1.
         21   -1    0    0  501  503 -0.00000000000E+00 -0.00000000000E+00 -0.10426977212E+03  0.10426977212E+03  0.00000000000E+00 0.  1.
          6    2    1    2  501    0 -0.88852870802E+02 -0.67394084163E+02  0.14140018489E+03  0.24881573174E+03  0.17169292602E+03 0.  0.
         24    2    3    3    0    0 -0.98228683123E+02  0.18773268244E+01  0.12107782708E+03  0.17586696572E+03  0.81344642590E+02 0.  0.
         -6    2    1    2    0  502  0.88852870802E+02  0.67394084163E+02  0.15767363586E+03  0.25879763326E+03  0.17227432863E+03 0.  0.
        -24    2    5    5    0    0  0.46398067979E+02  0.11011451740E+03  0.12501625096E+03  0.19012419962E+03  0.78994687302E+02 0.  0.
          5    1    3    3  501    0  0.93758123204E+01 -0.69271410988E+02  0.20322357812E+02  0.72948766020E+02  0.47000000000E+01 0. -1.
        -11    1    4    4    0    0 -0.48060771941E+02 -0.39744455951E+02  0.59207401969E+02  0.85994046459E+02  0.00000000000E+00 0.  1.
         12    1    4    4    0    0 -0.50167911182E+02  0.41621782775E+02  0.61870425108E+02  0.89872919263E+02  0.00000000000E+00 0. -1.
         -5    1    5    5    0  502  0.42454802823E+02 -0.42720433240E+02  0.32657384902E+02  0.68673433638E+02  0.47000000000E+01 0.  1.
         11    1    6    6    0    0  0.73499015170E+01  0.94325486888E+02  0.58010542364E+02  0.11097991509E+03  0.00000000000E+00 0. -1.
        -12    1    6    6    0    0  0.39048166462E+02  0.15789030515E+02  0.67005708596E+02  0.79144284526E+02  0.00000000000E+00 0.  1.
</event>
<event>
12    1  0.1683022E-002  0.1873458E+03  0.7818608E-02  0.1161668E+00
         21   -1    0    0  503  502  0.00000000000E+00  0.00000000000E+00  0.99686610641E+02  0.99686610641E+02  0.00000000000E+00 0. -1.
         21   -1    0    0  501  503 -0.00000000000E+00 -0.00000000000E+00 -0.36034637858E+03  0.36034637858E+03  0.00000000000E+00 0. -1.
          6    2    1    2  501    0 -0.43277081419E+02 -0.57823376561E+02 -0.17553795455E+03  0.25425597789E+03  0.16916288053E+03 0.  0.
         24    2    3    3    0    0  0.13372576776E+02 -0.61980362915E+02 -0.16795323464E+03  0.19675743629E+03  0.80528308765E+02 0.  0.
         -6    2    1    2    0  502  0.43277081419E+02  0.57823376561E+02 -0.85121813395E+02  0.20577701134E+03  0.17286412765E+03 0.  0.
        -24    2    5    5    0    0 -0.66312503418E+00  0.17205120461E+01  0.15843996471E+02  0.82106247163E+02  0.80541937539E+02 0.  0.
          5    1    3    3  501    0 -0.56649658196E+02  0.41569863540E+01 -0.75847199035E+01  0.57498541592E+02  0.47000000000E+01 0. -1.
        -11    1    4    4    0    0  0.21940825299E+02  0.66123851052E+01 -0.11341476242E+02  0.25568584923E+02  0.00000000000E+00 0.  1.
         12    1    4    4    0    0 -0.85682485231E+01 -0.68592748020E+02 -0.15661175840E+03  0.17118885137E+03  0.00000000000E+00 0. -1.
         -5    1    5    5    0  502  0.43940206454E+02  0.56102864515E+02 -0.10096580987E+03  0.12367076418E+03  0.47000000000E+01 0.  1.
         11    1    6    6    0    0  0.26363934141E+02  0.20031677717E+02  0.31677260082E+02  0.45823290386E+02  0.00000000000E+00 0. -1.
        -12    1    6    6    0    0 -0.27027059175E+02 -0.18311165671E+02 -0.15833263611E+02  0.36282956777E+02  0.00000000000E+00 0.  1.
</event>
<event>
12    1  0.1683022E-002  0.1846180E+03  0.7818608E-02  0.1164124E+00
         21   -1    0    0  503  502  0.00000000000E+00  0.00000000000E+00  0.14345246991E+03  0.14345246991E+03  0.00000000000E+00 0. -1.
         21   -1    0    0  501  503 -0.00000000000E+00 -0.00000000000E+00 -0.32544327128E+03  0.32544327128E+03  0.00000000000E+00 0. -1.
          6    2    1    2  501    0  0.58250680795E+02 -0.18867650482E+02 -0.21492427593E+03  0.28136328286E+03  0.17094947356E+03 0.  0.
         24    2    3    3    0    0  0.93342745690E+02 -0.97983646235E+01 -0.21104711285E+03  0.24460967953E+03  0.80524129024E+02 0.  0.
         -6    2    1    2    0  502 -0.58250680795E+02  0.18867650482E+02  0.32933474565E+02  0.18753245832E+03  0.17416853656E+03 0.  0.
        -24    2    5    5    0    0 -0.10144166062E+03  0.45611493730E+01 -0.89573724793E+01  0.12550770698E+03  0.73217043088E+02 0.  0.
          5    1    3    3  501    0 -0.35092064896E+02 -0.90692858583E+01 -0.38771630867E+01  0.36753603336E+02  0.47000000000E+01 0. -1.
        -13    1    4    4    0    0  0.48502056257E+02 -0.43642654662E+02 -0.90015864523E+02  0.11117547676E+03  0.00000000000E+00 0.  1.
         14    1    4    4    0    0  0.44840689433E+02  0.33844290039E+02 -0.12103124833E+03  0.13343420277E+03  0.00000000000E+00 0. -1.
         -5    1    5    5    0  502  0.43190979821E+02  0.14306501109E+02  0.41890847044E+02  0.62024751334E+02  0.47000000000E+01 0.  1.
         11    1    6    6    0    0 -0.77040262327E+02  0.35492076926E+02  0.11652988104E+01  0.84830698837E+02  0.00000000000E+00 0. -1.
        -12    1    6    6    0    0 -0.24401398289E+02 -0.30930927553E+02 -0.10122671290E+02  0.40677008147E+02  0.00000000000E+00 0.  1.
</event>
<event>
12    1  0.1683022E-002  0.2103576E+03  0.7818608E-02  0.1141304E+00
         21   -1    0    0  503  502  0.00000000000E+00  0.00000000000E+00  0.24231481106E+03  0.24231481106E+03  0.00000000000E+00 0.  1.
         21   -1    0    0  501  503 -0.00000000000E+00 -0.00000000000E+00 -0.22682075483E+03  0.22682075483E+03  0.00000000000E+00 0. -1.
          6    2    1    2  501    0 -0.10945349332E+03  0.50705464685E+02 -0.95914246483E+02  0.23119229167E+03  0.17233462131E+03 0.  0.
         24    2    3    3    0    0  0.17915177911E+01  0.49969125355E+02 -0.59690248085E+02  0.11410146047E+03  0.83403204610E+02 0.  0.
         -6    2    1    2    0  502  0.10945349332E+03 -0.50705464685E+02  0.11140830272E+03  0.23794327422E+03  0.17220360183E+03 0.  0.
        -24    2    5    5    0    0  0.12434274050E+02  0.27241075878E+02  0.48634400660E+02  0.98476271407E+02  0.80222089954E+02 0.  0.
          5    1    3    3  501    0 -0.11124501111E+03  0.73633932931E+00 -0.36223998399E+02  0.11709083120E+03  0.47000000000E+01 0. -1.
        -13    1    4    4    0    0  0.21060855489E+02  0.42832707934E+01 -0.60819621352E+02  0.64505289581E+02  0.00000000000E+00 0.  1.
         14    1    4    4    0    0 -0.19269337698E+02  0.45685854562E+02  0.11293732670E+01  0.49596170884E+02  0.00000000000E+00 0. -1.
         -5    1    5    5    0  502  0.97019219267E+02 -0.77946540562E+02  0.62773902058E+02  0.13946700281E+03  0.47000000000E+01 0.  1.
         11    1    6    6    0    0  0.12235182438E+01 -0.21577856405E+02 -0.78385611611E+01  0.22990083188E+02  0.00000000000E+00 0. -1.
        -12    1    6    6    0    0  0.11210755807E+02  0.48818932283E+02  0.56472961821E+02  0.75486188219E+02  0.00000000000E+00 0.  1.
</event>
<event>
12    1  0.1683022E-002  0.3191181E+03  0.7818608E-02  0.1076160E+00
         21   -1    0    0  501  502  0.00000000000E+00  0.00000000000E+00  0.89585444823E+02  0.89585444823E+02  0.00000000000E+00 0. -1.
         21   -1    0    0  502  503 -0.00000000000E+00 -0.00000000000E+00 -0.12397564226E+04  0.12397564226E+04  0.00000000000E+00 0.  1.
          6    2    1    2  501    0  0.87945443598E+02  0.25271322516E+03 -0.38127357912E+03  0.49719805775E+03  0.17389074523E+03 0.  0.
         24    2    3    3    0    0  0.22463738351E+02  0.14451849132E+03 -0.30900114769E+03  0.35146079931E+03  0.81564516214E+02 0.  0.
         -6    2    1    2    0  503 -0.87945443598E+02 -0.25271322516E+03 -0.76889739867E+03  0.83214380969E+03  0.17222582587E+03 0.  0.
        -24    2    5    5    0    0 -0.38306397066E+02 -0.12758793390E+03 -0.58270317134E+03  0.60233790519E+03  0.74309522942E+02 0.  0.
          5    1    3    3  501    0  0.65481705247E+02  0.10819473384E+03 -0.72272431435E+02  0.14573725844E+03  0.47000000000E+01 0. -1.
        -13    1    4    4    0    0 -0.44832598917E+01  0.13527521988E+03 -0.27894947167E+03  0.31005208027E+03  0.00000000000E+00 0.  1.
         14    1    4    4    0    0  0.26946998243E+02  0.92432714383E+01 -0.30051676011E+02  0.41408719037E+02  0.00000000000E+00 0. -1.
         -5    1    5    5    0  503 -0.49639046531E+02 -0.12512529126E+03 -0.18619422733E+03  0.22980590451E+03  0.47000000000E+01 0.  1.
         13    1    6    6    0    0  0.16807462454E+02 -0.96326845364E+01 -0.43157427866E+02  0.47305845152E+02  0.00000000000E+00 0. -1.
        -14    1    6    6    0    0 -0.55113859521E+02 -0.11795524937E+03 -0.53954574347E+03  0.55503206003E+03  0.00000000000E+00 0.  1.
</event>
<event>
12    1  0.1683022E-002  0.2228718E+03  0.7818608E-02  0.1131811E+00
         21   -1    0    0  501  502  0.00000000000E+00  0.00000000000E+00  0.79606731477E+03  0.79606731477E+03  0.00000000000E+00 0.  1.
         21   -1    0    0  502  503 -0.00000000000E+00 -0.00000000000E+00 -0.98581683945E+02  0.98581683945E+02  0.00000000000E+00 0.  1.
          6    2    1    2  501    0  0.84784263372E+02 -0.11360069062E+03  0.61990950345E+03  0.65866191878E+03  0.17162238362E+03 0.  0.
         24    2    3    3    0    0  0.62382723811E+02 -0.12976851627E+03  0.37292722451E+03  0.41009489830E+03  0.91496659965E+02 0.  0.
         -6    2    1    2    0  503 -0.84784263372E+02  0.11360069062E+03  0.77576127379E+02  0.23598707994E+03  0.17198359844E+03 0.  0.
        -24    2    5    5    0    0 -0.44356627561E+02  0.17616766753E+02 -0.15479804082E+02  0.96241583558E+02  0.82127688339E+02 0.  0.
          5    1    3    3  501    0  0.22401539561E+02  0.16167825648E+02  0.24698227894E+03  0.24856702048E+03  0.47000000000E+01 0. -1.
        -11    1    4    4    0    0 -0.75841272157E+01 -0.57664934567E+02  0.21654241096E+03  0.22421725939E+03  0.00000000000E+00 0.  1.
         12    1    4    4    0    0  0.69966851026E+02 -0.72103581702E+02  0.15638481355E+03  0.18587763891E+03  0.00000000000E+00 0. -1.
         -5    1    5    5    0  503 -0.40427635811E+02  0.95983923869E+02  0.93055931461E+02  0.13974549638E+03  0.47000000000E+01 0.  1.
         11    1    6    6    0    0  0.14584814479E+02  0.64481834139E+01 -0.30484336495E+02  0.34403352370E+02  0.00000000000E+00 0. -1.
        -12    1    6    6    0    0 -0.58941442039E+02  0.11168583339E+02  0.15004532414E+02  0.61838231188E+02  0.00000000000E+00 0.  1.
</event>
<event>
12    1  0.1683022E-002  0.2342219E+03  0.7818608E-02  0.1124049E+00
         21   -1    0    0  501  502  0.00000000000E+00  0.00000000000E+00  0.35594687328E+03  0.35594687328E+03  0.00000000000E+00 0.  1.
         21   -1    0    0  502  503 -0.00000000000E+00 -0.00000000000E+00 -0.15449380657E+03  0.15449380657E+03  0.00000000000E+00 0. -1.
          6    2    1    2  501    0  0.60615445885E+02 -0.14336184770E+03  0.12781942424E+03  0.26682899881E+03  0.17502302059E+03 0.  0.
         24    2    3    3    0    0  0.96466817977E+02 -0.14868243219E+03  0.93258664046E+02  0.21652824687E+03  0.82310331452E+02 0.  0.
         -6    2    1    2    0  503 -0.60615445885E+02  0.14336184770E+03  0.73633642464E+02  0.24361168103E+03  0.17233074646E+03 0.  0.
        -24    2    5    5    0    0 -0.64854136635E+02  0.86853493790E+02 -0.18358653301E+02  0.13546440625E+03  0.79145289110E+02 0.  0.
          5    1    3    3  501    0 -0.35851372093E+02  0.53205844816E+01  0.34560760198E+02  0.50300751939E+02  0.47000000000E+01 0. -1.
        -13    1    4    4    0    0  0.51024662008E+02 -0.13636328679E+03  0.54214925660E+02  0.15536318831E+03  0.00000000000E+00 0.  1.
         14    1    4    4    0    0  0.45442155970E+02 -0.12319145398E+02  0.39043738385E+02  0.61165058568E+02  0.00000000000E+00 0. -1.
         -5    1    5    5    0  503  0.42386907499E+01  0.56508353915E+02  0.91992295765E+02  0.10814727478E+03  0.47000000000E+01 0.  1.
         13    1    6    6    0    0 -0.68119373443E+02  0.44270264422E+02  0.13272624754E+02  0.82318089860E+02  0.00000000000E+00 0. -1.
        -14    1    6    6    0    0  0.32652368083E+01  0.42583229368E+02 -0.31631278054E+02  0.53146316393E+02  0.00000000000E+00 0.  1.
</event>
<event>
12    1  0.1683022E-002  0.2224654E+03  0.7818608E-02  0.1132824E+00
         21   -1    0    0  501  502  0.00000000000E+00  0.00000000000E+00  0.10632859237E+03  0.10632859237E+03  0.00000000000E+00 0.  1.
         21   -1    0    0  502  503 -0.00000000000E+00 -0.00000000000E+00 -0.50664555853E+03  0.50664555853E+03  0.00000000000E+00 0.  1.
          6    2    1    2  501    0 -0.12734467732E+03 -0.47243853357E+02 -0.10239519571E+03  0.24115665100E+03  0.17094766947E+03 0.  0.
         24    2    3    3    0    0 -0.10926195501E+02 -0.12794941753E+02 -0.67248288380E+01  0.86512221690E+02  0.84593432938E+02 0.  0.
         -6    2    1    2    0  503  0.12734467732E+03  0.47243853357E+02 -0.29792177046E+03  0.37181749990E+03  0.17618803421E+03 0.  0.
        -24    2    5    5    0    0  0.10039542263E+03  0.99016981361E+02 -0.23967707748E+03  0.28922662043E+03  0.79519387664E+02 0.  0.
          5    1    3    3  501    0 -0.11641848181E+03 -0.34448911604E+02 -0.95670366873E+02  0.15464442931E+03  0.47000000000E+01 0. -1.
        -13    1    4    4    0    0 -0.45928362129E+02 -0.65758775318E+00  0.80402744552E+01  0.46631458082E+02  0.00000000000E+00 0.  1.
         14    1    4    4    0    0  0.35002166628E+02 -0.12137353999E+02 -0.14765103293E+02  0.39880763609E+02  0.00000000000E+00 0. -1.
         -5    1    5    5    0  503  0.26949254685E+02 -0.51773128004E+02 -0.58244692980E+02  0.82590879471E+02  0.47000000000E+01 0.  1.
         13    1    6    6    0    0  0.74940509852E+02  0.25032749698E+02 -0.86039835344E+02  0.11681426214E+03  0.00000000000E+00 0. -1.
        -14    1    6    6    0    0  0.25454912778E+02  0.73984231662E+02 -0.15363724213E+03  0.17241235829E+03  0.00000000000E+00 0.  1.
</event>
<event>
12    1  0.1683022E-002  0.2113417E+03  0.7818608E-02  0.1140689E+00
         21   -1    0    0  503  502  0.00000000000E+00  0.00000000000E+00  0.14861957756E+03  0.14861957756E+03  0.00000000000E+00 0.  1.
         21   -1    0    0  501  503 -0.00000000000E+00 -0.00000000000E+00 -0.30777119202E+03  0.30777119202E+03  0.00000000000E+00 0. -1.
          6    2    1    2  501    0  0.93501304503E+02  0.78884442711E+02 -0.11776605957E+03  0.24193835617E+03  0.17233709454E+03 0.  0.
         24    2    3    3    0    0  0.92002310084E+02  0.11844065991E+03 -0.10944442976E+03  0.20121636179E+03  0.77571425571E+02 0.  0.
         -6    2    1    2    0  502 -0.93501304503E+02 -0.78884442711E+02 -0.41385554895E+02  0.21445241342E+03  0.17120696313E+03 0.  0.
        -24    2    5    5    0    0 -0.12056251100E+03 -0.31644333491E+02 -0.55131937642E+02  0.15810536510E+03  0.80131722946E+02 0.  0.
          5    1    3    3  501    0  0.14989944191E+01 -0.39556217202E+02 -0.83216298102E+01  0.40721994380E+02  0.47000000000E+01 0. -1.
        -13    1    4    4    0    0  0.10795191828E+02  0.74375272739E+01  0.11972881946E+02  0.17753953944E+02  0.00000000000E+00 0.  1.
         14    1    4    4    0    0  0.81207118256E+02  0.11100313264E+03 -0.12141731170E+03  0.18346240784E+03  0.00000000000E+00 0. -1.
         -5    1    5    5    0  502  0.27061206502E+02 -0.47240109219E+02  0.13746382747E+02  0.56347048326E+02  0.47000000000E+01 0.  1.
         13    1    6    6    0    0 -0.40048774333E+02 -0.50852751943E+02 -0.31726111572E+02  0.72086426331E+02  0.00000000000E+00 0. -1.
        -14    1    6    6    0    0 -0.80513736672E+02  0.19208418452E+02 -0.23405826070E+02  0.86018938765E+02  0.00000000000E+00 0.  1.
</event>
<event>
12    1  0.1683022E-002  0.1761619E+03  0.7818608E-02  0.1172040E+00
         21   -1    0    0  503  502  0.00000000000E+00  0.00000000000E+00  0.58643916573E+03  0.58643916573E+03  0.00000000000E+00 0. -1.
         21   -1    0    0  501  503 -0.00000000000E+00 -0.00000000000E+00 -0.56520459564E+02  0.56520459564E+02  0.00000000000E+00 0. -1.
          6    2    1    2  501    0 -0.28363552482E+02  0.24324834805E+02  0.17900704109E+03  0.25115040724E+03  0.17215347106E+03 0.  0.
         24    2    3    3    0    0 -0.50840094448E+02  0.14523010465E+02  0.19771827183E+03  0.21994991278E+03  0.80559394725E+02 0.  0.
         -6    2    1    2    0  502  0.28363552482E+02 -0.24324834805E+02  0.35091166507E+03  0.39180921805E+03  0.17023301081E+03 0.  0.
        -24    2    5    5    0    0 -0.61557222710E+01  0.46999113088E+02  0.16389147065E+03  0.18864098974E+03  0.80487261799E+02 0.  0.
          5    1    3    3  501    0  0.22476541967E+02  0.98018243399E+01 -0.18711230737E+02  0.31200494465E+02  0.47000000000E+01 0. -1.
        -13    1    4    4    0    0 -0.36281907856E+02 -0.26253551910E+02  0.55660036624E+02  0.71439943327E+02  0.00000000000E+00 0.  1.
         14    1    4    4    0    0 -0.14558186592E+02  0.40776562375E+02  0.14205823521E+03  0.14850996945E+03  0.00000000000E+00 0. -1.
         -5    1    5    5    0  502  0.34519274753E+02 -0.71323947893E+02  0.18702019442E+03  0.20316822831E+03  0.47000000000E+01 0.  1.
         11    1    6    6    0    0  0.32729663371E+02  0.15532416912E+02  0.10658388824E+03  0.11257269683E+03  0.00000000000E+00 0. -1.
        -12    1    6    6    0    0 -0.38885385642E+02  0.31466696176E+02  0.57307582407E+02  0.76068292910E+02  0.00000000000E+00 0.  1.
</event>
<event>
12    1  0.1683022E-002  0.1972620E+03  0.7818608E-02  0.1152266E+00
         21   -1    0    0  501  502  0.00000000000E+00  0.00000000000E+00  0.17162393026E+03  0.17162393026E+03  0.00000000000E+00 0. -1.
         21   -1    0    0  502  503 -0.00000000000E+00 -0.00000000000E+00 -0.29102487769E+03  0.29102487769E+03  0.00000000000E+00 0. -1.
          6    2    1    2  501    0  0.66855819396E+02 -0.70278427814E+02 -0.16920378891E+03  0.25919708329E+03  0.17071745020E+03 0.  0.
         24    2    3    3    0    0  0.26810463527E+02 -0.10393333581E+03 -0.85735635450E+02  0.16058011720E+03  0.83153085371E+02 0.  0.
         -6    2    1    2    0  503 -0.66855819396E+02  0.70278427814E+02  0.49802841481E+02  0.20345172466E+03  0.17176589663E+03 0.  0.
        -24    2    5    5    0    0  0.51756384261E+01  0.90181477128E+02  0.72757164818E+01  0.11733953825E+03  0.74539554171E+02 0.  0.
          5    1    3    3  501    0  0.40045355869E+02  0.33654907995E+02 -0.83468153465E+02  0.98616966094E+02  0.47000000000E+01 0. -1.
        -13    1    4    4    0    0 -0.28208748200E+02 -0.47139035795E+02 -0.48055352335E+02  0.72987252714E+02  0.00000000000E+00 0.  1.
         14    1    4    4    0    0  0.55019211727E+02 -0.56794300014E+02 -0.37680283115E+02  0.87592864485E+02  0.00000000000E+00 0. -1.
         -5    1    5    5    0  503 -0.72031457822E+02 -0.19903049314E+02  0.42527124999E+02  0.86112186412E+02  0.47000000000E+01 0.  1.
         13    1    6    6    0    0 -0.23830685772E+02  0.73349276933E+02 -0.12910520497E+02  0.78196544364E+02  0.00000000000E+00 0. -1.
        -14    1    6    6    0    0  0.29006324198E+02  0.16832200195E+02  0.20186236979E+02  0.39142993885E+02  0.00000000000E+00 0.  1.
</event>
<event>
12    1  0.1683022E-002  0.2149832E+03  0.7818608E-02  0.1137783E+00
         21   -1    0    0  501  502  0.00000000000E+00  0.00000000000E+00  0.18540403646E+04  0.18540403646E+04  0.00000000000E+00 0. -1.
         21   -1    0    0  502  503 -0.00000000000E+00 -0.00000000000E+00 -0.29846181911E+02  0.29846181911E+02  0.00000000000E+00 0. -1.
          6    2    1    2  501    0 -0.91230305634E+02  0.94823090200E+02  0.12978291583E+04  0.13155144610E+04  0.17000995771E+03 0.  0.
         24    2    3    3    0    0 -0.11233944255E+03  0.11064285637E+03  0.94134909859E+03  0.95802881978E+03  0.82577854816E+02 0.  0.
         -6    2    1    2    0  503  0.91230305634E+02 -0.94823090200E+02  0.52636502441E+03  0.56837208559E+03  0.16932897464E+03 0.  0.
        -24    2    5    5    0    0  0.14625423226E+02 -0.10223592846E+03  0.26583059265E+03  0.29666721204E+03  0.81727857151E+02 0.  0.
          5    1    3    3  501    0  0.21109136919E+02 -0.15819766173E+02  0.35648005972E+03  0.35748564117E+03  0.47000000000E+01 0. -1.
        -11    1    4    4    0    0 -0.34200012012E+02  0.89327827913E+02  0.45053019293E+03  0.46057198829E+03  0.00000000000E+00 0.  1.
         12    1    4    4    0    0 -0.78139430540E+02  0.21315028460E+02  0.49081890566E+03  0.49745683149E+03  0.00000000000E+00 0. -1.
         -5    1    5    5    0  503  0.76604882408E+02  0.74128382632E+01  0.26053443175E+03  0.27170487355E+03  0.47000000000E+01 0.  1.
         13    1    6    6    0    0  0.27072435213E+02 -0.80502724458E+02  0.11070108029E+03  0.13952897395E+03  0.00000000000E+00 0. -1.
        -14    1    6    6    0    0 -0.12447011988E+02 -0.21733204005E+02  0.15512951237E+03  0.15713823809E+03  0.00000000000E+00 0.  1.
</event>
<event>
12    1  0.1683022E-002  0.2646439E+03  0.7818608E-02  0.1105643E+00
         21   -1    0    0  501  502  0.00000000000E+00  0.00000000000E+00  0.38386141214E+02  0.38386141214E+02  0.00000000000E+00 0.  1.
         21   -1    0    0  502  503 -0.00000000000E+00 -0.00000000000E+00 -0.19519500758E+04  0.19519500758E+04  0.00000000000E+00 0. -1.
          6    2    1    2  501    0 -0.36108398829E+02 -0.18908360683E+03 -0.66441598161E+03  0.71518180508E+03  0.18160393955E+03 0.  0.
         24    2    3    3    0    0  0.16085295980E+02 -0.36174714952E+02 -0.35375861500E+03  0.36498842933E+03  0.80647685055E+02 0.  0.
         -6    2    1    2    0  503  0.36108398829E+02  0.18908360683E+03 -0.12491479530E+04  0.12751544120E+04  0.16909091939E+03 0.  0.
        -24    2    5    5    0    0  0.79234080524E+02  0.88608604576E+02 -0.78927838678E+03  0.80244185825E+03  0.82601693162E+02 0.  0.
          5    1    3    3  501    0 -0.52193694809E+02 -0.15290889188E+03 -0.31065736660E+03  0.35019337575E+03  0.47000000000E+01 0. -1.
        -13    1    4    4    0    0  0.27619398507E+02  0.17202059519E+02 -0.17772496298E+03  0.18067900955E+03  0.00000000000E+00 0.  1.
         14    1    4    4    0    0 -0.11534102527E+02 -0.53376774470E+02 -0.17603365203E+03  0.18430941978E+03  0.00000000000E+00 0. -1.
         -5    1    5    5    0  503 -0.43125681694E+02  0.10047500225E+03 -0.45986956623E+03  0.47271255372E+03  0.47000000000E+01 0.  1.
         13    1    6    6    0    0 -0.10222977982E+02  0.31882777513E+02 -0.29791407143E+03  0.29978961746E+03  0.00000000000E+00 0. -1.
        -14    1    6    6    0    0  0.89457058506E+02  0.56725827063E+02 -0.49136431534E+03  0.50265224078E+03  0.00000000000E+00 0.  1.
</event>
<event>
12    1  0.1683022E-002  0.1736609E+03  0.7818608E-02  0.1174595E+00
         21   -1    0    0  503  502  0.00000000000E+00  0.00000000000E+00  0.99135354386E+02  0.99135354386E+02  0.00000000000E+00 0.  1.
         21   -1    0    0  501  503 -0.00000000000E+00 -0.00000000000E+00 -0.30094035172E+03  0.30094035172E+03  0.00000000000E+00 0.  1.
          6    2    1    2  501    0  0.51450568783E+01 -0.30770865680E+02 -0.95930866055E+02  0.19839567115E+03  0.17083557441E+03 0.  0.
         24    2    3    3    0    0 -0.20059462207E+01 -0.40718227566E+02  0.11178855513E+02  0.90485202204E+02  0.80003794479E+02 0.  0.
         -6    2    1    2    0  502 -0.51450568783E+01  0.30770865680E+02 -0.10587413128E+03  0.20168003496E+03  0.16879628859E+03 0.  0.
        -24    2    5    5    0    0 -0.63060313547E+02  0.28369600822E+02 -0.92317744039E+02  0.14196564253E+03  0.82766179079E+02 0.  0.
          5    1    3    3  501    0  0.71510030990E+01  0.99473618860E+01 -0.10710972157E+03  0.10791046895E+03  0.47000000000E+01 0. -1.
        -11    1    4    4    0    0 -0.40976807983E+02 -0.21407237171E+02  0.40091242985E+01  0.46405190156E+02  0.00000000000E+00 0.  1.
         12    1    4    4    0    0  0.38970861762E+02 -0.19310990394E+02  0.71697312145E+01  0.44080012048E+02  0.00000000000E+00 0. -1.
         -5    1    5    5    0  502  0.57915256669E+02  0.24012648580E+01 -0.13556387242E+02  0.59714392428E+02  0.47000000000E+01 0.  1.
         13    1    6    6    0    0 -0.17142059708E+02  0.50851422204E+02 -0.30427588017E+02  0.61689184333E+02  0.00000000000E+00 0. -1.
        -14    1    6    6    0    0 -0.45918253839E+02 -0.22481821382E+02 -0.61890156023E+02  0.80276458198E+02  0.00000000000E+00 0.  1.
</event>
<event>
12    1  0.1683022E-002  0.1963060E+03  0.7818608E-02  0.1153314E+00
         21   -1    0    0  503  502  0.00000000000E+00  0.00000000000E+00  0.42164296878E+03  0.42164296878E+03  0.00000000000E+00 0.  1.
         21   -1    0    0  501  503 -0.00000000000E+00 -0.00000000000E+00 -0.14818042215E+03  0.14818042215E+03  0.00000000000E+00 0.  1.
          6    2    1    2  501    0 -0.94108021896E+02  0.85712056300E+01 -0.40616452436E+02  0.20046381435E+03  0.17206469511E+03 0.  0.
         24    2    3    3    0    0 -0.24550962001E+02  0.58086779560E+02  0.67397293450E+01  0.10271579854E+03  0.80797819415E+02 0.  0.
         -6    2    1    2    0  502  0.94108021896E+02 -0.85712056300E+01  0.31407899907E+03  0.36935957659E+03  0.16985609736E+03 0.  0.
        -24    2    5    5    0    0  0.49242609488E+02  0.56838560743E+02  0.22371211044E+03  0.24902833655E+03  0.79451541664E+02 0.  0.
          5    1    3    3  501    0 -0.69557059894E+02 -0.49515573930E+02 -0.47356181781E+02  0.97748015814E+02  0.47000000000E+01 0. -1.
        -13    1    4    4    0    0 -0.23361779722E+02  0.38912865599E+02 -0.34639005540E+02  0.57095048522E+02  0.00000000000E+00 0.  1.
         14    1    4    4    0    0 -0.11891822797E+01  0.19173913961E+02  0.41378734885E+02  0.45620750013E+02  0.00000000000E+00 0. -1.
         -5    1    5    5    0  502  0.44865412407E+02 -0.65409766373E+02  0.90366888631E+02  0.12033124003E+03  0.47000000000E+01 0.  1.
         11    1    6    6    0    0 -0.24311066786E+01  0.16615276676E+02  0.92590179119E+00  0.16817698797E+02  0.00000000000E+00 0. -1.
        -12    1    6    6    0    0  0.51673716167E+02  0.40223284068E+02  0.22278620865E+03  0.23221063775E+03  0.00000000000E+00 0.  1.
</event>
<event>
12    1  0.1683022E-002  0.2055847E+03  0.7818608E-02  0.1145200E+00
         21   -1    0    0  501  502  0.00000000000E+00  0.00000000000E+00  0.39982555579E+02  0.39982555579E+02  0.00000000000E+00 0. -1.
         21   -1    0    0  502  503 -0.00000000000E+00 -0.00000000000E+00 -0.11443294076E+04  0.11443294076E+04  0.00000000000E+00 0. -1.
          6    2    1    2  501    0  0.14638800781E+02  0.11120163544E+03 -0.38603572903E+03  0.43716007789E+03  0.17177092713E+03 0.  0.
         24    2    3    3    0    0  0.18484862792E+02  0.56916389383E+02 -0.36379360194E+03  0.37818141778E+03  0.84227278267E+02 0.  0.
         -6    2    1    2    0  503 -0.14638800781E+02 -0.11120163544E+03 -0.71831112303E+03  0.74715188532E+03  0.17229327339E+03 0.  0.
        -24    2    5    5    0    0  0.11931559518E+02 -0.13928697510E+03 -0.51191971364E+03  0.53711790183E+03  0.83009780792E+02 0.  0.
          5    1    3    3  501    0 -0.38460620118E+01  0.54285246054E+02 -0.22242127084E+02  0.58978660118E+02  0.47000000000E+01 0. -1.
        -11    1    4    4    0    0 -0.10761214709E+02 -0.61374792442E+01 -0.19826836690E+03  0.19865502185E+03  0.00000000000E+00 0.  1.
         12    1    4    4    0    0  0.29246077502E+02  0.63053868627E+02 -0.16552523505E+03  0.17952639593E+03  0.00000000000E+00 0. -1.
         -5    1    5    5    0  503 -0.26570360299E+02  0.28085339666E+02 -0.20639140939E+03  0.21003398349E+03  0.47000000000E+01 0.  1.
         11    1    6    6    0    0 -0.12263177816E+02 -0.87396467144E-01 -0.11783940299E+03  0.11847581215E+03  0.00000000000E+00 0. -1.
        -12    1    6    6    0    0  0.24194737334E+02 -0.13919957864E+03 -0.39408031065E+03  0.41864208967E+03  0.00000000000E+00 0.  1.
</event>
<event>
12    1  0.1683022E-002  0.1798152E+03  0.7818608E-02  0.1168451E+00
         21   -1    0    0  501  502  0.00000000000E+00  0.00000000000E+00  0.87694870386E+03  0.87694870386E+03  0.00000000000E+00 0.  1.
         21   -1    0    0  502  503 -0.00000000000E+00 -0.00000000000E+00 -0.43620839782E+02  0.43620839782E+02  0.00000000000E+00 0.  1.
          6    2    1    2  501    0  0.43340134664E+01 -0.46545524471E+02  0.60480937736E+03  0.63097376079E+03  0.17363246917E+03 0.  0.
         24    2    3    3    0    0 -0.57778972237E+02 -0.54759765923E+02  0.43350856466E+03  0.44851402500E+03  0.83054881799E+02 0.  0.
         -6    2    1    2    0  503 -0.43340134664E+01  0.46545524471E+02  0.22851848672E+03  0.28959578284E+03  0.17163842562E+03 0.  0.
        -24    2    5    5    0    0 -0.26267399767E+02 -0.31074267776E+02  0.15820259455E+03  0.18248686503E+03  0.81349914442E+02 0.  0.
          5    1    3    3  501    0  0.62112985703E+02  0.82142414522E+01  0.17130081270E+03  0.18245973579E+03  0.47000000000E+01 0. -1.
        -13    1    4    4    0    0 -0.49391509554E+02 -0.67675895950E+02  0.23645466662E+03  0.25085923837E+03  0.00000000000E+00 0.  1.
         14    1    4    4    0    0 -0.83874626828E+01  0.12916130027E+02  0.19705389804E+03  0.19765478663E+03  0.00000000000E+00 0. -1.
         -5    1    5    5    0  503  0.21933386300E+02  0.77619792247E+02  0.70315892168E+02  0.10710891781E+03  0.47000000000E+01 0.  1.
         13    1    6    6    0    0  0.41177667350E+01 -0.30838108006E+02  0.12302057990E+02  0.33455725057E+02  0.00000000000E+00 0. -1.
        -14    1    6    6    0    0 -0.30385166502E+02 -0.23615976994E+00  0.14590053656E+03  0.14903113998E+03  0.00000000000E+00 0.  1.
</event>
<event>
12    1  0.1683022E-002  0.2215721E+03  0.7818608E-02  0.1133170E+00
         21   -1    0    0  503  502  0.00000000000E+00  0.00000000000E+00  0.10505590405E+03  0.10505590405E+03  0.00000000000E+00 0. -1.
         21   -1    0    0  501  503 -0.00000000000E+00 -0.00000000000E+00 -0.46392736570E+03  0.46392736570E+03  0.00000000000E+00 0. -1.
          6    2    1    2  501    0 -0.73210548452E+02  0.11902986945E+03 -0.19789380394E+03  0.29707938623E+03  0.17194856749E+03 0.  0.
         24    2    3    3    0    0 -0.87524565276E+01  0.12509605230E+03 -0.10152652798E+03  0.18088822450E+03  0.81775828230E+02 0.  0.
         -6    2    1    2    0  502  0.73210548452E+02 -0.11902986945E+03 -0.16097765771E+03  0.27190388352E+03  0.16878987340E+03 0.  0.
        -24    2    5    5    0    0  0.29692909099E+02 -0.39891872119E+02 -0.10022615676E+02  0.95931947481E+02  0.81421467750E+02 0.  0.
          5    1    3    3  501    0 -0.64458091924E+02 -0.60661828484E+01 -0.96367275966E+02  0.11619116174E+03  0.47000000000E+01 0. -1.
        -13    1    4    4    0    0 -0.81282999392E+00  0.46496420994E+02  0.66075922732E+01  0.46970609252E+02  0.00000000000E+00 0.  1.
         14    1    4    4    0    0 -0.79396265337E+01  0.78599631305E+02 -0.10813412025E+03  0.13391761524E+03  0.00000000000E+00 0. -1.
         -5    1    5    5    0  502  0.43517639352E+02 -0.79137997331E+02 -0.15095504204E+03  0.17597193604E+03  0.47000000000E+01 0.  1.
         13    1    6    6    0    0  0.39882694720E+02 -0.53804368197E+02 -0.26551102628E+02  0.72045127705E+02  0.00000000000E+00 0. -1.
        -14    1    6    6    0    0 -0.10189785621E+02  0.13912496078E+02  0.16528486952E+02  0.23886819777E+02  0.00000000000E+00 0.  1.
</event>
<event>
12    1  0.1683022E-002  0.1735439E+03  0.7818608E-02  0.1174409E+00
         21   -1    0    0  501  502  0.00000000000E+00  0.00000000000E+00  0.48804743431E+03  0.48804743431E+03  0.00000000000E+00 0. -1.
         21   -1    0    0  502  503 -0.00000000000E+00 -0.00000000000E+00 -0.11883554943E+03  0.11883554943E+03  0.00000000000E+00 0. -1.
          6    2    1    2  501    0 -0.31096533251E+01  0.19229503455E+02  0.39574820501E+03  0.43212744940E+03  0.17244722964E+03 0.  0.
         24    2    3    3    0    0 -0.57724700519E+02 -0.10781483875E+02  0.13630318766E+03  0.16526180948E+03  0.72694740273E+02 0.  0.
         -6    2    1    2    0  503  0.31096533251E+01 -0.19229503455E+02 -0.26536320127E+02  0.17475553434E+03  0.17162714456E+03 0.  0.
        -24    2    5    5    0    0  0.46059528621E+02 -0.34010182159E+02 -0.63373400461E+02  0.11608509256E+03  0.78621804616E+02 0.  0.
          5    1    3    3  501    0  0.54615047194E+02  0.30010987330E+02  0.25944501735E+03  0.26686563991E+03  0.47000000000E+01 0. -1.
        -13    1    4    4    0    0 -0.40803969499E+02  0.22614334598E+02  0.38327208183E+02  0.60376708616E+02  0.00000000000E+00 0.  1.
         14    1    4    4    0    0 -0.16920731020E+02 -0.33395818473E+02  0.97975979477E+02  0.10488510087E+03  0.00000000000E+00 0. -1.
         -5    1    5    5    0  503 -0.42949875296E+02  0.14780678705E+02  0.36837080334E+02  0.58670441778E+02  0.47000000000E+01 0.  1.
         13    1    6    6    0    0  0.11921945373E+02 -0.35141273923E+02  0.70898876496E+01  0.37779735591E+02  0.00000000000E+00 0. -1.
        -14    1    6    6    0    0  0.34137583248E+02  0.11310917637E+01 -0.70463288110E+02  0.78305356968E+02  0.00000000000E+00 0.  1.
</event>
<event>
12    1  0.1683022E-002  0.2460908E+03  0.7818608E-02  0.1116027E+00
         21   -1    0    0  503  502  0.00000000000E+00  0.00000000000E+00  0.99054674934E+02  0.99054674934E+02  0.00000000000E+00 0.  1.
         21   -1    0    0  501  503 -0.00000000000E+00 -0.00000000000E+00 -0.62747489740E+03  0.62747489740E+03  0.00000000000E+00 0. -1.
          6    2    1    2  501    0 -0.97609222194E+01 -0.17186034619E+03 -0.32761234505E+03  0.40890635925E+03  0.17390603156E+03 0.  0.
         24    2    3    3    0    0  0.32269713810E+02 -0.10725248207E+03 -0.29280427202E+03  0.32420427888E+03  0.82641656516E+02 0.  0.
         -6    2    1    2    0  502  0.97609222194E+01  0.17186034619E+03 -0.20080787742E+03  0.31762321308E+03  0.17586769930E+03 0.  0.
        -24    2    5    5    0    0  0.37026004556E+02  0.19252328163E+02 -0.78068950611E+02  0.11983664621E+03  0.80774275433E+02 0.  0.
          5    1    3    3  501    0 -0.42030636030E+02 -0.64607864126E+02 -0.34808073029E+02  0.84702080376E+02  0.47000000000E+01 0. -1.
        -11    1    4    4    0    0  0.58249659116E+02 -0.54166170064E+02 -0.18200230221E+03  0.19862485941E+03  0.00000000000E+00 0.  1.
         12    1    4    4    0    0 -0.25979945306E+02 -0.53086312003E+02 -0.11080196981E+03  0.12557941947E+03  0.00000000000E+00 0. -1.
         -5    1    5    5    0  502 -0.27265082336E+02  0.15260801803E+03 -0.12273892681E+03  0.19778656688E+03  0.47000000000E+01 0.  1.
         13    1    6    6    0    0 -0.10806858158E+02 -0.17905460845E+02 -0.47692756882E+02  0.52076796852E+02  0.00000000000E+00 0. -1.
        -14    1    6    6    0    0  0.47832862714E+02  0.37157789007E+02 -0.30376193729E+02  0.67759849356E+02  0.00000000000E+00 0.  1.
</event>
<event>
12    1  0.1683022E-002  0.2371084E+03  0.7818608E-02  0.1121836E+00
         21   -1    0    0  501  502  0.00000000000E+00  0.00000000000E+00  0.35660419056E+03  0.35660419056E+03  0.00000000000E+00 0. -1.
         21   -1    0    0  502  503 -0.00000000000E+00 -0.00000000000E+00 -0.15731775410E+03  0.15731775410E+03  0.00000000000E+00 0. -1.
          6    2    1    2  501    0 -0.89811709007E+02  0.13569037822E+03  0.10493641900E+03  0.25929145990E+03  0.17245981366E+03 0.  0.
         24    2    3    3    0    0 -0.29172319976E+01  0.10456272913E+03  0.10809636127E+03  0.16681629617E+03  0.72117811830E+02 0.  0.
         -6    2    1    2    0  503  0.89811709007E+02 -0.13569037822E+03  0.94350017459E+02  0.25463048476E+03  0.17162964825E+03 0.  0.
        -24    2    5    5    0    0  0.35870602146E+02 -0.10214694427E+03 -0.88077812514E+01  0.13339341780E+03  0.77430798648E+02 0.  0.
          5    1    3    3  501    0 -0.86894477010E+02  0.31127649094E+02 -0.31599422628E+01  0.92475163736E+02  0.47000000000E+01 0. -1.
        -11    1    4    4    0    0  0.29334123512E+02  0.23502027208E+02  0.18988098986E+02  0.42111565967E+02  0.00000000000E+00 0.  1.
         12    1    4    4    0    0 -0.32251355510E+02  0.81060701922E+02  0.89108262279E+02  0.12470473020E+03  0.00000000000E+00 0. -1.
         -5    1    5    5    0  503  0.53941106862E+02 -0.33543433954E+02  0.10315779871E+03  0.12123706696E+03  0.47000000000E+01 0.  1.
         13    1    6    6    0    0 -0.95653870522E+01 -0.82099043483E+02 -0.12498951126E+02  0.83594098772E+02  0.00000000000E+00 0. -1.
        -14    1    6    6    0    0  0.45435989198E+02 -0.20047900786E+02  0.36911698746E+01  0.49799319025E+02  0.00000000000E+00 0.  1.
</event>
<event>
12    1  0.1683022E-002  0.1826854E+03  0.7818608E-02  0.1165750E+00
         21   -1    0    0  503  502  0.00000000000E+00  0.00000000000E+00  0.31475526459E+03  0.31475526459E+03  0.00000000000E+00 0.  1.
         21   -1    0    0  501  503 -0.00000000000E+00 -0.00000000000E+00 -0.13678196735E+03  0.13678196735E+03  0.00000000000E+00 0. -1.
          6    2    1    2  501    0 -0.57656282186E+02 -0.53577374893E+01 -0.19824035647E+02  0.18375784185E+03  0.17326569143E+03 0.  0.
         24    2    3    3    0    0 -0.94862220018E+02 -0.26036413779E+02  0.16816143188E+02  0.12739755292E+03  0.79187235021E+02 0.  0.
         -6    2    1    2    0  502  0.57656282186E+02  0.53577374893E+01  0.19779733288E+03  0.26777939009E+03  0.17096509770E+03 0.  0.
        -24    2    5    5    0    0  0.45065301851E+02 -0.96883069568E+01  0.28184846485E+02  0.96971305439E+02  0.80525174850E+02 0.  0.
          5    1    3    3  501    0  0.37205937832E+02  0.20678676289E+02 -0.36640178835E+02  0.56360288928E+02  0.47000000000E+01 0. -1.
        -13    1    4    4    0    0  0.73894385181E+01  0.63259001441E+01 -0.12852785662E+02  0.16118775186E+02  0.00000000000E+00 0.  1.
         14    1    4    4    0    0 -0.10225165854E+03 -0.32362313923E+02  0.29668928850E+02  0.11127877774E+03  0.00000000000E+00 0. -1.
         -5    1    5    5    0  502  0.12590980336E+02  0.15046044446E+02  0.16961248639E+03  0.17080808465E+03  0.47000000000E+01 0.  1.
         13    1    6    6    0    0  0.32223389874E+02 -0.23614120687E+02  0.52611450117E+02  0.66060110765E+02  0.00000000000E+00 0. -1.
        -14    1    6    6    0    0  0.12841911976E+02  0.13925813730E+02 -0.24426603632E+02  0.30911194675E+02  0.00000000000E+00 0.  1.
</event>
<event>
12    1  0.1683022E-002  0.3385316E+03  0.7818608E-02  0.1067602E+00
         21   -1    0    0  503  502  0.00000000000E+00  0.00000000000E+00  0.15859382064E+03  0.15859382064E+03  0.00000000000E+00 0. -1.
         21   -1    0    0  501  503 -0.00000000000E+00 -0.00000000000E+00 -0.89939844667E+03  0.89939844667E+03  0.00000000000E+00 0.  1.
          6    2    1    2  501    0 -0.25074903552E+02 -0.29016535486E+03 -0.60800663233E+03  0.69589923332E+03  0.17256591214E+03 0.  0.
         24    2    3    3    0    0  0.33180327118E+02 -0.11625765175E+03 -0.35443103556E+03  0.38291323623E+03  0.79902514414E+02 0.  0.
         -6    2    1    2    0  502  0.25074903552E+02  0.29016535486E+03 -0.13279799370E+03  0.36209303399E+03  0.16926716806E+03 0.  0.
        -24    2    5    5    0    0  0.53427368295E+02  0.28666939740E+03 -0.13851690790E+03  0.33258235872E+03  0.79939129778E+02 0.  0.
          5    1    3    3  501    0 -0.58255230669E+02 -0.17390770311E+03 -0.25357559676E+03  0.31298599709E+03  0.47000000000E+01 0. -1.
        -13    1    4    4    0    0  0.15173179535E+02 -0.12402712624E+03 -0.31490575199E+03  0.33878988482E+03  0.00000000000E+00 0.  1.
         14    1    4    4    0    0  0.18007147582E+02  0.77694744881E+01 -0.39525283575E+02  0.44123351409E+02  0.00000000000E+00 0. -1.
         -5    1    5    5    0  502 -0.28352464743E+02  0.34959574690E+01  0.57189141954E+01  0.29510675276E+02  0.47000000000E+01 0.  1.
         13    1    6    6    0    0  0.55396146112E+02  0.10014096883E+03 -0.37388748843E+02  0.12039462273E+03  0.00000000000E+00 0. -1.
        -14    1    6    6    0    0 -0.19687778169E+01  0.18652842856E+03 -0.10112815906E+03  0.21218773599E+03  0.00000000000E+00 0.  1.
</event>
<event>
12    1  0.1683022E-002  0.1973625E+03  0.7818608E-02  0.1152524E+00
         21   -1    0    0  503  502  0.00000000000E+00  0.00000000000E+00  0.13113527011E+03  0.13113527011E+03  0.00000000000E+00 0. -1.
         21   -1    0    0  501  503 -0.00000000000E+00 -0.00000000000E+00 -0.29367983103E+03  0.29367983103E+03  0.00000000000E+00 0.  1.
          6    2    1    2  501    0  0.58752701771E+02 -0.73884992354E+02 -0.73997276675E+02  0.21077844473E+03  0.17332363874E+03 0.  0.
         24    2    3    3    0    0  0.38647845583E+02 -0.33217332126E+02 -0.11547324367E+03  0.14913098193E+03  0.79428789788E+02 0.  0.
         -6    2    1    2    0  502 -0.58752701771E+02  0.73884992354E+02 -0.88547284242E+02  0.21403665641E+03  0.17047051558E+03 0.  0.
        -24    2    5    5    0    0 -0.26591833490E+02  0.10478911902E+02  0.22281019270E+02  0.82280611595E+02  0.73869628547E+02 0.  0.
          5    1    3    3  501    0  0.20104856188E+02 -0.40667660229E+02  0.41475966995E+02  0.61647462794E+02  0.47000000000E+01 0. -1.
        -11    1    4    4    0    0  0.37040099703E+02  0.13821102250E+02 -0.23972451886E+02  0.46234946770E+02  0.00000000000E+00 0.  1.
         12    1    4    4    0    0  0.16077458807E+01 -0.47038434376E+02 -0.91500791783E+02  0.10289603516E+03  0.00000000000E+00 0. -1.
         -5    1    5    5    0  502 -0.32160868281E+02  0.63406080452E+02 -0.11082830351E+03  0.13175604482E+03  0.47000000000E+01 0.  1.
         11    1    6    6    0    0 -0.73016754472E+01  0.41422935595E+02  0.17289145447E+02  0.45476242236E+02  0.00000000000E+00 0. -1.
        -12    1    6    6    0    0 -0.19290158042E+02 -0.30944023693E+02  0.49918738235E+01  0.36804369359E+02  0.00000000000E+00 0.  1.
</event>
<event>
12    1  0.1683022E-002  0.1801926E+03  0.7818608E-02  0.1169338E+00
         21   -1    0    0  501  502  0.00000000000E+00  0.00000000000E+00  0.37838975088E+02  0.37838975088E+02  0.00000000000E+00 0.  1.
         21   -1    0    0  502  503 -0.00000000000E+00 -0.00000000000E+00 -0.97262079611E+03  0.97262079611E+03  0.00000000000E+00 0.  1.
          6    2    1    2  501    0  0.15043795168E+02 -0.15064679199E+02 -0.27855136093E+03  0.33175328853E+03  0.17893049891E+03 0.  0.
         24    2    3    3    0    0  0.57949290373E+02 -0.22097590319E+02 -0.78215558834E+02  0.12669996142E+03  0.78030653125E+02 0.  0.
         -6    2    1    2    0  503 -0.15043795168E+02  0.15064679199E+02 -0.65623046009E+03  0.67870648267E+03  0.17190349773E+03 0.  0.
        -24    2    5    5    0    0  0.32407374312E+01 -0.33822125807E+02 -0.57816132533E+03  0.58467923322E+03  0.80155156301E+02 0.  0.
          5    1    3    3  501    0 -0.42905495204E+02  0.70329111202E+01 -0.20033580210E+03  0.20505332711E+03  0.47000000000E+01 0. -1.
        -11    1    4    4    0    0  0.25399477602E+02 -0.48110920266E+02 -0.60666822919E+02  0.81487775245E+02  0.00000000000E+00 0.  1.
         12    1    4    4    0    0  0.32549812770E+02  0.26013329947E+02 -0.17548735915E+02  0.45212186173E+02  0.00000000000E+00 0. -1.
         -5    1    5    5    0  503 -0.18284532599E+02  0.48886805006E+02 -0.78069134766E+02  0.94027249450E+02  0.47000000000E+01 0.  1.
         13    1    6    6    0    0  0.38463178890E+02 -0.89087690681E+00 -0.23023027815E+03  0.23342277260E+03  0.00000000000E+00 0. -1.
        -14    1    6    6    0    0 -0.35222441459E+02 -0.32931248900E+02 -0.34793104718E+03  0.35125646062E+03  0.00000000000E+00 0.  1.
</event>
<event>
12    1  0.1683022E-002  0.2173023E+03  0.7818608E-02  0.1136607E+00
         21   -1    0    0  503  502  0.00000000000E+00  0.00000000000E+00  0.66049281075E+03  0.66049281075E+03  0.00000000000E+00 0. -1.
         21   -1    0    0  501  503 -0.00000000000E+00 -0.00000000000E+00 -0.89176636375E+02  0.89176636375E+02  0.00000000000E+00 0. -1.
          6    2    1    2  501    0 -0.12922326144E+03 -0.22174339786E+02  0.11510420982E+03  0.24590504185E+03  0.17329154003E+03 0.  0.
         24    2    3    3    0    0 -0.72372383596E+02 -0.48865248428E+02  0.13505299996E+03  0.17984089769E+03  0.80485161815E+02 0.  0.
         -6    2    1    2    0  502  0.12922326144E+03  0.22174339786E+02  0.45621196455E+03  0.50376440528E+03  0.16869756009E+03 0.  0.
        -24    2    5    5    0    0  0.49752132415E+02  0.46603630245E+02  0.13498727506E+03  0.17192130724E+03  0.81781406323E+02 0.  0.
          5    1    3    3  501    0 -0.56850877847E+02  0.26690908643E+02 -0.19948790133E+02  0.66064144163E+02  0.47000000000E+01 0. -1.
        -13    1    4    4    0    0 -0.11697351986E+02 -0.50006861799E+02  0.32804872142E+02  0.60939920469E+02  0.00000000000E+00 0.  1.
         14    1    4    4    0    0 -0.60675031610E+02  0.11416133710E+01  0.10224812781E+03  0.11890097722E+03  0.00000000000E+00 0. -1.
         -5    1    5    5    0  502  0.79471129028E+02 -0.24429290460E+02  0.32122468949E+03  0.33184309804E+03  0.47000000000E+01 0.  1.
         11    1    6    6    0    0  0.65375376083E+02  0.25821256220E+02  0.59533381039E+02  0.92113519793E+02  0.00000000000E+00 0. -1.
        -12    1    6    6    0    0 -0.15623243667E+02  0.20782374025E+02  0.75453894025E+02  0.79807787442E+02  0.00000000000E+00 0.  1.
</event>
<event>
12    1  0.1683022E-002  0.3902235E+03  0.7818608E-02  0.1047242E+00
         21   -1    0    0  501  502  0.00000000000E+00  0.00000000000E+00  0.17029395556E+03  0.17029395556E+03  0.00000000000E+00 0. -1.
         21   -1    0    0  502  503 -0.00000000000E+00 -0.00000000000E+00 -0.96729386204E+03  0.96729386204E+03  0.00000000000E+00 0.  1.
          6    2    1    2  501    0 -0.25858738541E+03 -0.23520954881E+03 -0.24136908937E+03  0.45861801046E+03  0.17285969591E+03 0.  0.
         24    2    3    3    0    0 -0.60191202954E+02 -0.10925412737E+03 -0.51948401775E+02  0.15674369838E+03  0.79438688777E+02 0.  0.
         -6    2    1    2    0  503  0.25858738541E+03  0.23520954881E+03 -0.55563081711E+03  0.67896980714E+03  0.17344574466E+03 0.  0.
        -24    2    5    5    0    0  0.20683609712E+03  0.18627218104E+03 -0.31752982500E+03  0.43039942626E+03  0.83306541542E+02 0.  0.
          5    1    3    3  501    0 -0.19839618246E+03 -0.12595542144E+03 -0.18942068760E+03  0.30187431208E+03  0.47000000000E+01 0. -1.
        -11    1    4    4    0    0 -0.23351235303E+02 -0.23343394900E+02 -0.53943160095E+02  0.63246018030E+02  0.00000000000E+00 0.  1.
         12    1    4    4    0    0 -0.36839967651E+02 -0.85910732471E+02  0.19947583203E+01  0.93497680351E+02  0.00000000000E+00 0. -1.
         -5    1    5    5    0  503  0.51751288287E+02  0.48937367766E+02 -0.23810099211E+03  0.24857038087E+03  0.47000000000E+01 0.  1.
         13    1    6    6    0    0  0.93451827916E+02  0.13819073873E+03 -0.16928330117E+03  0.23766943528E+03  0.00000000000E+00 0. -1.
        -14    1    6    6    0    0  0.11338426921E+03  0.48081442314E+02 -0.14824652383E+03  0.19272999099E+03  0.00000000000E+00 0.  1.
</event>
<event>
12    1  0.1683022E-002  0.1748246E+03  0.7818608E-02  0.1173564E+00
         21   -1    0    0  501  502  0.00000000000E+00  0.00000000000E+00  0.55058776583E+02  0.55058776583E+02  0.00000000000E+00 0.  1.
         21   -1    0    0  502  503 -0.00000000000E+00 -0.00000000000E+00 -0.60018777299E+03  0.60018777299E+03  0.00000000000E+00 0.  1.
          6    2    1    2  501    0  0.58607196576E+01 -0.28584941771E+02 -0.17310875330E+03  0.24419581974E+03  0.16974542992E+03 0.  0.
         24    2    3    3    0    0  0.61646527362E+02 -0.64613997257E+01 -0.11984153873E+03  0.16381551368E+03  0.92905780751E+02 0.  0.
         -6    2    1    2    0  503 -0.58607196576E+01  0.28584941771E+02 -0.37202024311E+03  0.41105072983E+03  0.17237225497E+03 0.  0.
        -24    2    5    5    0    0 -0.51263694199E+02  0.63040961409E+02 -0.28594777315E+03  0.30771047886E+03  0.79482580933E+02 0.  0.
          5    1    3    3  501    0 -0.55785807705E+02 -0.22123542045E+02 -0.53267214575E+02  0.80380306061E+02  0.47000000000E+01 0. -1.
        -13    1    4    4    0    0  0.23102903062E+02  0.36020093391E+02 -0.16973925918E+02  0.46035914446E+02  0.00000000000E+00 0.  1.
         14    1    4    4    0    0  0.38543624300E+02 -0.42481493117E+02 -0.10286761281E+03  0.11777959924E+03  0.00000000000E+00 0. -1.
         -5    1    5    5    0  503  0.45402974541E+02 -0.34456019638E+02 -0.86072469959E+02  0.10334025097E+03  0.47000000000E+01 0.  1.
         13    1    6    6    0    0 -0.97860638870E+01  0.48497321756E+02 -0.61159722771E+02  0.78665551249E+02  0.00000000000E+00 0. -1.
        -14    1    6    6    0    0 -0.41477630312E+02  0.14543639654E+02 -0.22478805038E+03  0.22904492761E+03  0.00000000000E+00 0.  1.
</event>
<event>
12    1  0.1683022E-002  0.2266322E+03  0.7818608E-02  0.1129334E+00
         21   -1    0    0  501  502  0.00000000000E+00  0.00000000000E+00  0.32822535227E+03  0.32822535227E+03  0.00000000000E+00 0. -1.
         21   -1    0    0  502  503 -0.00000000000E+00 -0.00000000000E+00 -0.21328614348E+03  0.21328614348E+03  0.00000000000E+00 0.  1.
          6    2    1    2  501    0  0.83200530117E+02 -0.11846418728E+03  0.19844948201E+03  0.29998275394E+03  0.17219571385E+03 0.  0.
         24    2    3    3    0    0  0.57540071369E+02 -0.91429514128E+02  0.21927927973E+03  0.25702576185E+03  0.79426846027E+02 0.  0.
         -6    2    1    2    0  503 -0.83200530117E+02  0.11846418728E+03 -0.83510273229E+02  0.24152874181E+03  0.17437337958E+03 0.  0.
        -24    2    5    5    0    0 -0.41866087622E+02  0.71082898397E+02  0.23784394293E+02  0.11707891919E+03  0.79600428194E+02 0.  0.
          5    1    3    3  501    0  0.25660458748E+02 -0.27034673155E+02 -0.20829797719E+02  0.42956992082E+02  0.47000000000E+01 0. -1.
        -13    1    4    4    0    0 -0.96748649028E+01 -0.57726173158E+01 -0.99608446347E+00  0.11310097516E+02  0.00000000000E+00 0.  1.
         14    1    4    4    0    0  0.67214936272E+02 -0.85656896812E+02  0.22027536420E+03  0.24571566434E+03  0.00000000000E+00 0. -1.
         -5    1    5    5    0  503 -0.41334442495E+02  0.47381288886E+02 -0.10729466752E+03  0.12444982263E+03  0.47000000000E+01 0.  1.
         11    1    6    6    0    0  0.42742973660E+00  0.69675893817E+02  0.25274164714E+01  0.69723028544E+02  0.00000000000E+00 0. -1.
        -12    1    6    6    0    0 -0.42293517359E+02  0.14070045804E+01  0.21256977822E+02  0.47355890643E+02  0.00000000000E+00 0.  1.
</event>
<event>
12    1  0.1683022E-002  0.1919549E+03  0.7818608E-02  0.1157337E+00
         21   -1    0    0  503  502  0.00000000000E+00  0.00000000000E+00  0.95387053701E+02  0.95387053701E+02  0.00000000000E+00 0.  1.
         21   -1    0    0  501  503 -0.00000000000E+00 -0.00000000000E+00 -0.72095691349E+03  0.72095691349E+03  0.00000000000E+00 0. -1.
          6    2    1    2  501    0 -0.29276586019E+02 -0.80904857852E+02 -0.59198766474E+03  0.62147367010E+03  0.16845596728E+03 0.  0.
         24    2    3    3    0    0  0.31510028942E+02 -0.87623299231E+00 -0.32515744944E+03  0.33630696946E+03  0.79883421787E+02 0.  0.
         -6    2    1    2    0  502  0.29276586019E+02  0.80904857852E+02 -0.33582195053E+02  0.19487029709E+03  0.17159240762E+03 0.  0.
        -24    2    5    5    0    0 -0.12893094872E+01  0.15422063629E+02  0.40888005549E+02  0.90994548791E+02  0.79803988287E+02 0.  0.
          5    1    3    3  501    0 -0.60786614960E+02 -0.80028624860E+02 -0.26683021530E+03  0.28516670064E+03  0.47000000000E+01 0. -1.
        -11    1    4    4    0    0 -0.19938791583E+02  0.20760143194E+02 -0.13962990753E+03  0.14256594977E+03  0.00000000000E+00 0.  1.
         12    1    4    4    0    0  0.51448820525E+02 -0.21636376186E+02 -0.18552754191E+03  0.19374101970E+03  0.00000000000E+00 0. -1.
         -5    1    5    5    0  502  0.30565895506E+02  0.65482794224E+02 -0.74470200602E+02  0.10387574830E+03  0.47000000000E+01 0.  1.
         13    1    6    6    0    0 -0.26731631280E+02  0.23305815584E+02 -0.70454343586E+01  0.36157700373E+02  0.00000000000E+00 0. -1.
        -14    1    6    6    0    0  0.25442321793E+02 -0.78837519558E+01  0.47933439908E+02  0.54836848419E+02  0.00000000000E+00 0.  1.
</event>
<event>
12    1  0.1683022E-002  0.2968073E+03  0.7818608E-02  0.1086977E+00
         21   -1    0    0  501  502  0.00000000000E+00  0.00000000000E+00  0.76853701751E+03  0.76853701751E+03  0.00000000000E+00 0.  1.
         21   -1    0    0  502  503 -0.00000000000E+00 -0.00000000000E+00 -0.14343073068E+03  0.14343073068E+03  0.00000000000E+00 0. -1.
          6    2    1    2  501    0  0.14440597573E+03 -0.19236710972E+03  0.51785389352E+03  0.59637683455E+03  0.17214669041E+03 0.  0.
         24    2    3    3    0    0  0.16987575476E+03 -0.16261849683E+03  0.39019141701E+03  0.46275989130E+03  0.81208543432E+02 0.  0.
         -6    2    1    2    0  503 -0.14440597573E+03  0.19236710972E+03  0.10725239330E+03  0.31559091364E+03  0.17388604939E+03 0.  0.
        -24    2    5    5    0    0 -0.12660701511E+03  0.19503535854E+03  0.44937367165E+02  0.25055880593E+03  0.81805995541E+02 0.  0.
          5    1    3    3  501    0 -0.25469779022E+02 -0.29748612895E+02  0.12766247651E+03  0.13361694325E+03  0.47000000000E+01 0. -1.
        -11    1    4    4    0    0  0.22951242057E+02 -0.57814579515E+02  0.14948538594E+03  0.16191098087E+03  0.00000000000E+00 0.  1.
         12    1    4    4    0    0  0.14692451270E+03 -0.10480391731E+03  0.24070603107E+03  0.30084891044E+03  0.00000000000E+00 0. -1.
         -5    1    5    5    0  503 -0.17798960625E+02 -0.26682488160E+01  0.62315026137E+02  0.65032107713E+02  0.47000000000E+01 0.  1.
         11    1    6    6    0    0 -0.10350356128E+03  0.87039620980E+02  0.34882374623E+02  0.13966267532E+03  0.00000000000E+00 0. -1.
        -12    1    6    6    0    0 -0.23103453829E+02  0.10799573756E+03  0.10054992542E+02  0.11089613061E+03  0.00000000000E+00 0.  1.
</event>
<event>
12    1  0.1683022E-002  0.3857308E+03  0.7818608E-02  0.1048926E+00
         21   -1    0    0  503  502  0.00000000000E+00  0.00000000000E+00  0.39681160252E+03  0.39681160252E+03  0.00000000000E+00 0. -1.
         21   -1    0    0  501  503 -0.00000000000E+00 -0.00000000000E+00 -0.41458611534E+03  0.41458611534E+03  0.00000000000E+00 0. -1.
          6    2    1    2  501    0  0.33664499891E+03 -0.72099787468E+02 -0.13582596459E+03  0.40800663968E+03  0.17173377862E+03 0.  0.
         24    2    3    3    0    0  0.20254976001E+03 -0.11123015714E+03 -0.73232911301E+02  0.25486389827E+03  0.78701932669E+02 0.  0.
         -6    2    1    2    0  502 -0.33664499891E+03  0.72099787468E+02  0.11805145176E+03  0.40339107818E+03  0.17395396532E+03 0.  0.
        -24    2    5    5    0    0 -0.11193167285E+03 -0.19385217774E+02  0.69023921550E+02  0.15582013116E+03  0.81308827762E+02 0.  0.
          5    1    3    3  501    0  0.13409523890E+03  0.39130369667E+02 -0.62593053292E+02  0.15314274141E+03  0.47000000000E+01 0. -1.
        -13    1    4    4    0    0  0.67707310720E+02 -0.24106910711E+01 -0.27607068442E+01  0.67806436705E+02  0.00000000000E+00 0.  1.
         14    1    4    4    0    0  0.13484244929E+03 -0.10881946606E+03 -0.70472204457E+02  0.18705746156E+03  0.00000000000E+00 0. -1.
         -5    1    5    5    0  502 -0.22471332606E+03  0.91485005243E+02  0.49027530215E+02  0.24757094702E+03  0.47000000000E+01 0.  1.
         13    1    6    6    0    0 -0.10801386749E+03 -0.35321150617E+02  0.77300460052E+02  0.13744067948E+03  0.00000000000E+00 0. -1.
        -14    1    6    6    0    0 -0.39178053615E+01  0.15935932843E+02 -0.82765385019E+01  0.18379451679E+02  0.00000000000E+00 0.  1.
</event>
<event>
12    1  0.1683022E-002  0.1845082E+03  0.7818608E-02  0.1163916E+00
         21   -1    0    0  503  502  0.00000000000E+00  0.00000000000E+00  0.12602438836E+03  0.12602438836E+03  0.00000000000E+00 0. -1.
         21   -1    0    0  501  503 -0.00000000000E+00 -0.00000000000E+00 -0.27501162980E+03  0.27501162980E+03  0.00000000000E+00 0. -1.
          6    2    1    2  501    0 -0.64249676181E+02  0.21811075932E+01 -0.10771593043E+03  0.21364921544E+03  0.17294648731E+03 0.  0.
         24    2    3    3    0    0 -0.86248573538E+02 -0.48702670781E+02 -0.87471898689E+02  0.15444599587E+03  0.79946644721E+02 0.  0.
         -6    2    1    2    0  502  0.64249676181E+02 -0.21811075932E+01 -0.41271311009E+02  0.18738680272E+03  0.17110731896E+03 0.  0.
        -24    2    5    5    0    0  0.82326761868E+02  0.54783165742E+02 -0.52313022718E+02  0.12643010611E+03  0.58898458533E+02 0.  0.
          5    1    3    3  501    0  0.21998897356E+02  0.50883778374E+02 -0.20244031742E+02  0.59203219572E+02  0.47000000000E+01 0. -1.
        -11    1    4    4    0    0 -0.51729174493E+02 -0.58319945906E+02 -0.24016285044E+02  0.81571474986E+02  0.00000000000E+00 0.  1.
         12    1    4    4    0    0 -0.34519399045E+02  0.96172751247E+01 -0.63455613645E+02  0.72874520885E+02  0.00000000000E+00 0. -1.
         -5    1    5    5    0  502 -0.18077085686E+02 -0.56964273335E+02  0.11041711709E+02  0.60956696605E+02  0.47000000000E+01 0.  1.
         13    1    6    6    0    0  0.26850066983E+02 -0.10118177068E+02 -0.20717622413E+02  0.35391008499E+02  0.00000000000E+00 0. -1.
        -14    1    6    6    0    0  0.55476694885E+02  0.64901342810E+02 -0.31595400305E+02  0.91039097614E+02  0.00000000000E+00 0.  1.
</event>
<event>
12    1  0.1683022E-002  0.2104751E+03  0.7818608E-02  0.1141502E+00
         21   -1    0    0  501  502  0.00000000000E+00  0.00000000000E+00  0.17347254183E+03  0.17347254183E+03  0.00000000000E+00 0.  1.
         21   -1    0    0  502  503 -0.00000000000E+00 -0.00000000000E+00 -0.27004485497E+03  0.27004485497E+03  0.00000000000E+00 0. -1.
          6    2    1    2  501    0 -0.70122234403E+02  0.97446405624E+02 -0.10306468062E+03  0.23294222891E+03  0.17095854436E+03 0.  0.
         24    2    3    3    0    0 -0.11432705445E+03  0.80544787981E+02 -0.81465632382E+02  0.18070871783E+03  0.80379432627E+02 0.  0.
         -6    2    1    2    0  503  0.70122234403E+02 -0.97446405624E+02  0.64923674879E+01  0.21057516789E+03  0.17287805173E+03 0.  0.
        -24    2    5    5    0    0 -0.20781018848E+02 -0.76222130554E+02  0.25018647671E+02  0.11529041380E+03  0.80151624144E+02 0.  0.
          5    1    3    3  501    0  0.44204820052E+02  0.16901617643E+02 -0.21599048241E+02  0.52233511080E+02  0.47000000000E+01 0. -1.
        -13    1    4    4    0    0 -0.54857845324E+01  0.29789591643E+01  0.14756405369E+02  0.16022469506E+02  0.00000000000E+00 0.  1.
         14    1    4    4    0    0 -0.10884126992E+03  0.77565828817E+02 -0.96222037751E+02  0.16468624833E+03  0.00000000000E+00 0. -1.
         -5    1    5    5    0  503  0.90903253251E+02 -0.21224275071E+02 -0.18526280183E+02  0.95284754086E+02  0.47000000000E+01 0.  1.
         13    1    6    6    0    0  0.59845895257E+01 -0.26064664930E+02 -0.27165005188E+02  0.38119805569E+02  0.00000000000E+00 0. -1.
        -14    1    6    6    0    0 -0.26765608374E+02 -0.50157465624E+02  0.52183652860E+02  0.77170608234E+02  0.00000000000E+00 0.  1.
</event>
<event>
12    1  0.1683022E-002  0.2504211E+03  0.7818608E-02  0.1113403E+00
         21   -1    0    0  501  502  0.00000000000E+00  0.00000000000E+00  0.11006413937E+04  0.11006413937E+04  0.00000000000E+00 0.  1.
         21   -1    0    0  502  503 -0.00000000000E+00 -0.00000000000E+00 -0.60007337468E+02  0.60007337468E+02  0.00000000000E+00 0.  1.
          6    2    1    2  501    0 -0.61109954505E+02  0.16724404495E+03  0.65926353442E+03  0.70440955942E+03  0.17279879186E+03 0.  0.
         24    2    3    3    0    0 -0.41762627951E+02  0.92103876074E+02  0.57714091296E+03  0.59133180307E+03  0.79714658831E+02 0.  0.
         -6    2    1    2    0  503  0.61109954505E+02 -0.16724404495E+03  0.38137052180E+03  0.45623917174E+03  0.17608438267E+03 0.  0.
        -24    2    5    5    0    0 -0.20825485818E+02 -0.88916788368E+02  0.27686907903E+03  0.30199515388E+03  0.78769854199E+02 0.  0.
          5    1    3    3  501    0 -0.19347326554E+02  0.75140168879E+02  0.82122621462E+02  0.11307775634E+03  0.47000000000E+01 0. -1.
        -11    1    4    4    0    0 -0.54366046621E+02  0.97638693643E+02  0.45978958913E+03  0.47317591633E+03  0.00000000000E+00 0.  1.
         12    1    4    4    0    0  0.12603418670E+02 -0.55348175692E+01  0.11735132383E+03  0.11815588675E+03  0.00000000000E+00 0. -1.
         -5    1    5    5    0  503  0.81935440323E+02 -0.78327256584E+02  0.10450144277E+03  0.15424401786E+03  0.47000000000E+01 0.  1.
         13    1    6    6    0    0 -0.40937185892E+01  0.34285915353E+01  0.11321832191E+03  0.11334417580E+03  0.00000000000E+00 0. -1.
        -14    1    6    6    0    0 -0.16731767229E+02 -0.92345379904E+02  0.16365075712E+03  0.18865097808E+03  0.00000000000E+00 0.  1.
</event>
<event>
12    1  0.1683022E-002  0.2567176E+03  0.7818608E-02  0.1109346E+00
         21   -1    0    0  501  502  0.00000000000E+00  0.00000000000E+00  0.26287762967E+03  0.26287762967E+03  0.00000000000E+00 0. -1.
         21   -1    0    0  502  503 -0.00000000000E+00 -0.00000000000E+00 -0.25334715534E+03  0.25334715534E+03  0.00000000000E+00 0.  1.
          6    2    1    2  501    0 -0.16479662961E+03 -0.95743916304E+02  0.37217706924E+02  0.25801850202E+03  0.16989279865E+03 0.  0.
         24    2    3    3    0    0 -0.17454092059E+03 -0.41215127788E+02  0.10749483882E+02  0.19644743077E+03  0.79453268880E+02 0.  0.
         -6    2    1    2    0  503  0.16479662961E+03  0.95743916304E+02 -0.27687232596E+02  0.25820628299E+03  0.17198568279E+03 0.  0.
        -24    2    5    5    0    0  0.16771817898E+03  0.11954388592E+03  0.22676426207E+01  0.21954934890E+03  0.76004251056E+02 0.  0.
          5    1    3    3  501    0  0.97442909718E+01 -0.54528788516E+02  0.26468223042E+02  0.61571071248E+02  0.47000000000E+01 0. -1.
        -11    1    4    4    0    0 -0.70962470798E+02  0.19478465491E+02 -0.11114446941E+02  0.74421863794E+02  0.00000000000E+00 0.  1.
         12    1    4    4    0    0 -0.10357844979E+03 -0.60693593279E+02  0.21863930824E+02  0.12202556698E+03  0.00000000000E+00 0. -1.
         -5    1    5    5    0  503 -0.29215493611E+01 -0.23799969611E+02 -0.29954875217E+02  0.38656934093E+02  0.47000000000E+01 0.  1.
         11    1    6    6    0    0  0.60010282008E+01 -0.87721692905E+01  0.75578516135E+01  0.13041641558E+02  0.00000000000E+00 0. -1.
        -12    1    6    6    0    0  0.16171715078E+03  0.12831605521E+03 -0.52902089928E+01  0.20650770734E+03  0.00000000000E+00 0.  1.
</event>
<event>
12    1  0.1683022E-002  0.2729785E+03  0.7818608E-02  0.1099959E+00
         21   -1    0    0  503  502  0.00000000000E+00  0.00000000000E+00  0.75908737417E+03  0.75908737417E+03  0.00000000000E+00 0.  1.
         21   -1    0    0  501  503 -0.00000000000E+00 -0.00000000000E+00 -0.14080981723E+03  0.14080981723E+03  0.00000000000E+00 0. -1.
          6    2    1    2  501    0  0.20526511128E+03  0.51614375945E+02  0.59844709839E+02  0.27946138739E+03  0.17239335265E+03 0.  0.
         24    2    3    3    0    0  0.21262600755E+03  0.79034932817E+02  0.34199498814E+02  0.24091483656E+03  0.73579977326E+02 0.  0.
         -6    2    1    2    0  502 -0.20526511128E+03 -0.51614375945E+02  0.55843284711E+03  0.62043580400E+03  0.16821275947E+03 0.  0.
        -24    2    5    5    0    0 -0.83327055437E+02 -0.52931109433E+01  0.14334745717E+03  0.18531223535E+03  0.82587625607E+02 0.  0.
          5    1    3    3  501    0 -0.73608962669E+01 -0.27420556873E+02  0.25645211025E+02  0.38546550839E+02  0.47000000000E+01 0. -1.
        -11    1    4    4    0    0  0.84187538017E+02  0.44203598475E+02  0.49082668661E+02  0.10700751393E+03  0.00000000000E+00 0.  1.
         12    1    4    4    0    0  0.12843846953E+03  0.34831334342E+02 -0.14883169847E+02  0.13390732262E+03  0.00000000000E+00 0. -1.
         -5    1    5    5    0  502 -0.12193805584E+03 -0.46321265001E+02  0.41508538994E+03  0.43512356865E+03  0.47000000000E+01 0.  1.
         13    1    6    6    0    0 -0.88550548482E+02  0.86416816690E+01  0.14522562821E+03  0.17031254032E+03  0.00000000000E+00 0. -1.
        -14    1    6    6    0    0  0.52234930446E+01 -0.13934792612E+02 -0.18781710457E+01  0.14999695037E+02  0.00000000000E+00 0.  1.
</event>
<event>
12    1  0.2158819E-002  0.1884368E+03  0.7818608E-02  0.1160684E+00
         21   -1    0    0  503  502  0.00000000000E+00  0.00000000000E+00  0.28252693433E+03  0.28252693433E+03  0.00000000000E+00 0.  1.
         21   -1    0    0  501  503 -0.00000000000E+00 -0.00000000000E+00 -0.24934340870E+03  0.24934340870E+03  0.00000000000E+00 0.  1.
          6    2    1    2  501    0  0.66983927174E+02 -0.31882151797E+02 -0.17251302363E+03  0.25290890569E+03  0.16940735862E+03 0.  0.
         24    2    3    3    0    0  0.10056878768E+03 -0.52670141307E+02 -0.16000374732E+03  0.21121171925E+03  0.78236604935E+02 0.  0.
         -6    2    1    2    0  502 -0.66983927174E+02  0.31882151797E+02  0.20569654926E+03  0.27896143734E+03  0.17321978825E+03 0.  0.
        -24    2    5    5    0    0  0.24442075692E+02 -0.73996491731E+01  0.12974079448E+03  0.15368917157E+03  0.78329546357E+02 0.  0.
          5    1    3    3  501    0 -0.33584860510E+02  0.20787989510E+02 -0.12509276310E+02  0.41697186441E+02  0.47000000000E+01 0. -1.
        -11    1    4    4    0    0  0.53948474428E+01 -0.35979017978E+02 -0.71291937941E+02  0.80038331623E+02  0.00000000000E+00 0.  1.
         12    1    4    4    0    0  0.95173940241E+02 -0.16691123329E+02 -0.88711809375E+02  0.13117338763E+03  0.00000000000E+00 0. -1.
         -5    1    5    5    0  502 -0.91426002866E+02  0.39281800970E+02  0.75955754775E+02  0.12527226577E+03  0.47000000000E+01 0.  1.
         13    1    6    6    0    0  0.12404047825E+02  0.26438804570E+02  0.13776374477E+02  0.32290235107E+02  0.00000000000E+00 0. -1.
        -14    1    6    6    0    0  0.12038027868E+02 -0.33838453744E+02  0.11596442000E+03  0.12139893646E+03  0.00000000000E+00 0.  1.
</event>
<event>
12    1  0.1683022E-002  0.1740673E+03  0.7818608E-02  0.1173716E+00
         21   -1    0    0  503  502  0.00000000000E+00  0.00000000000E+00  0.19095619904E+03  0.19095619904E+03  0.00000000000E+00 0. -1.
         21   -1    0    0  501  503 -0.00000000000E+00 -0.00000000000E+00 -0.16259001134E+03  0.16259001134E+03  0.00000000000E+00 0. -1.
          6    2    1    2  501    0  0.13947188676E+02 -0.19165363901E+02 -0.13825250785E+02  0.17443860219E+03  0.17226680798E+03 0.  0.
         24    2    3    3    0    0  0.73271653773E+02 -0.17899030906E+02  0.98318833359E+01  0.11038592268E+03  0.79995471382E+02 0.  0.
         -6    2    1    2    0  502 -0.13947188676E+02  0.19165363901E+02  0.42191438485E+02  0.17910760819E+03  0.17244588307E+03 0.  0.
        -24    2    5    5    0    0 -0.12616996715E+02  0.75331997816E+02  0.52291034295E+02  0.12183150487E+03  0.79211519435E+02 0.  0.
          5    1    3    3  501    0 -0.59324465097E+02 -0.12663329950E+01 -0.23657134121E+02  0.64052679516E+02  0.47000000000E+01 0. -1.
        -11    1    4    4    0    0 -0.12458301538E+02  0.55722105176E+01 -0.12750615872E+02  0.18677178919E+02  0.00000000000E+00 0.  1.
         12    1    4    4    0    0  0.85729955311E+02 -0.23471241424E+02  0.22582499208E+02  0.91708743760E+02  0.00000000000E+00 0. -1.
         -5    1    5    5    0  502 -0.13301919614E+01 -0.56166633915E+02 -0.10099595810E+02  0.57276103320E+02  0.47000000000E+01 0.  1.
         13    1    6    6    0    0  0.79585816670E+01  0.86332578048E+02  0.40577646837E+02  0.95724597035E+02  0.00000000000E+00 0. -1.
        -14    1    6    6    0    0 -0.20575578382E+02 -0.11000580232E+02  0.11713387458E+02  0.26106907839E+02  0.00000000000E+00 0.  1.
</event>
<event>
12    1  0.1683022E-002  0.2183355E+03  0.7818608E-02  0.1135166E+00
         21   -1    0    0  501  502  0.00000000000E+00  0.00000000000E+00  0.35668928689E+02  0.35668928689E+02  0.00000000000E+00 0.  1.
         21   -1    0    0  502  503 -0.00000000000E+00 -0.00000000000E+00 -0.13863409916E+04  0.13863409916E+04  0.00000000000E+00 0.  1.
          6    2    1    2  501    0  0.56276053464E+02  0.12088402071E+03 -0.53919549740E+03  0.58172345127E+03  0.17288854412E+03 0.  0.
         24    2    3    3    0    0  0.93230989606E+02  0.13175430475E+03 -0.42852402059E+03  0.46444559250E+03  0.77625111419E+02 0.  0.
         -6    2    1    2    0  503 -0.56276053464E+02 -0.12088402071E+03 -0.81147656555E+03  0.84028646906E+03  0.17264759766E+03 0.  0.
        -24    2    5    5    0    0  0.35216914982E+02 -0.65038908070E+02 -0.46676877331E+03  0.47926681320E+03  0.79707589559E+02 0.  0.
          5    1    3    3  501    0 -0.36954936142E+02 -0.10870284038E+02 -0.11067147680E+03  0.11727785877E+03  0.47000000000E+01 0. -1.
        -11    1    4    4    0    0  0.29548138870E+02  0.42072951941E+02 -0.55993650881E+02  0.76016542507E+02  0.00000000000E+00 0.  1.
         12    1    4    4    0    0  0.63682850736E+02  0.89681352811E+02 -0.37253036971E+03  0.38842904999E+03  0.00000000000E+00 0. -1.
         -5    1    5    5    0  503 -0.91492968446E+02 -0.55845112644E+02 -0.34470779225E+03  0.36101965586E+03  0.47000000000E+01 0.  1.
         11    1    6    6    0    0 -0.22555727829E+02 -0.14039396038E+01 -0.86180831146E+02  0.89094711185E+02  0.00000000000E+00 0. -1.
        -12    1    6    6    0    0  0.57772642811E+02 -0.63634968467E+02 -0.38058794216E+03  0.39017210201E+03  0.00000000000E+00 0.  1.
</event>
<event>
12    1  0.1683022E-002  0.1821212E+03  0.7818608E-02  0.1166306E+00
         21   -1    0    0  503  502  0.00000000000E+00  0.00000000000E+00  0.40753142738E+03  0.40753142738E+03  0.00000000000E+00 0. -1.
         21   -1    0    0  501  503 -0.00000000000E+00 -0.00000000000E+00 -0.16301168089E+03  0.16301168089E+03  0.00000000000E+00 0. -1.
          6    2    1    2  501    0  0.59548979708E+02  0.64367958572E+01 -0.81214020454E+02  0.19735334316E+03  0.16960280544E+03 0.  0.
         24    2    3    3    0    0  0.65122317153E+02  0.13043611747E+02  0.90984337011E+01  0.10650654089E+03  0.82763577489E+02 0.  0.
         -6    2    1    2    0  502 -0.59548979708E+02 -0.64367958572E+01  0.32573376695E+03  0.37318976511E+03  0.17199011753E+03 0.  0.
        -24    2    5    5    0    0 -0.54627144163E+02  0.52736480011E+02  0.16143225840E+03  0.19842484657E+03  0.86872230775E+02 0.  0.
          5    1    3    3  501    0 -0.55733374449E+01 -0.66068158894E+01 -0.90312454155E+02  0.90846802266E+02  0.47000000000E+01 0. -1.
        -13    1    4    4    0    0 -0.18354526479E+02  0.12825589934E+02 -0.10414865080E+01  0.22415822394E+02  0.00000000000E+00 0.  1.
         14    1    4    4    0    0  0.83476843631E+02  0.21802181222E+00  0.10139920209E+02  0.84090718501E+02  0.00000000000E+00 0. -1.
         -5    1    5    5    0  502 -0.49218355443E+01 -0.59173275868E+02  0.16430150855E+03  0.17476491855E+03  0.47000000000E+01 0.  1.
         13    1    6    6    0    0 -0.11834233032E+02  0.13222537706E+00  0.11645061828E+03  0.11705047224E+03  0.00000000000E+00 0. -1.
        -14    1    6    6    0    0 -0.42792911131E+02  0.52604254634E+02  0.44981640122E+02  0.81374374324E+02  0.00000000000E+00 0.  1.
</event>
<event>
12    1  0.1683022E-002  0.1921360E+03  0.7818608E-02  0.1156989E+00
         21   -1    0    0  501  502  0.00000000000E+00  0.00000000000E+00  0.40203251374E+03  0.40203251374E+03  0.00000000000E+00 0. -1.
         21   -1    0    0  502  503 -0.00000000000E+00 -0.00000000000E+00 -0.11527569234E+03  0.11527569234E+03  0.00000000000E+00 0. -1.
          6    2    1    2  501    0 -0.93427771791E+01 -0.80105689894E+02  0.26293913784E+03  0.32565812528E+03  0.17439041061E+03 0.  0.
         24    2    3    3    0    0  0.36078068424E+02  0.11436405067E+02  0.12207577276E+03  0.15156738461E+03  0.81472445652E+02 0.  0.
         -6    2    1    2    0  503  0.93427771791E+01  0.80105689894E+02  0.23817683554E+02  0.19165008080E+03  0.17221574371E+03 0.  0.
        -24    2    5    5    0    0  0.59460739292E+02  0.70558963343E+02  0.51306510450E+02  0.13350650232E+03  0.81715857229E+02 0.  0.
          5    1    3    3  501    0 -0.45420845603E+02 -0.91542094961E+02  0.14086336508E+03  0.17409074067E+03  0.47000000000E+01 0. -1.
        -11    1    4    4    0    0  0.51303615196E+02 -0.63738503349E+01  0.37661555420E+02  0.63961548269E+02  0.00000000000E+00 0.  1.
         12    1    4    4    0    0 -0.15225546772E+02  0.17810255402E+02  0.84414217341E+02  0.87605836342E+02  0.00000000000E+00 0. -1.
         -5    1    5    5    0  503 -0.50117962113E+02  0.95467265503E+01 -0.27488826896E+02  0.58143578478E+02  0.47000000000E+01 0.  1.
         11    1    6    6    0    0  0.11177949472E+01  0.64914640441E+01 -0.20145306515E+02  0.21194856583E+02  0.00000000000E+00 0. -1.
        -12    1    6    6    0    0  0.58342944344E+02  0.64067499299E+02  0.71451816965E+02  0.11231164574E+03  0.00000000000E+00 0.  1.
</event>
<event>
12    1  0.1683022E-002  0.1812741E+03  0.7818608E-02  0.1167260E+00
         21   -1    0    0  501  502  0.00000000000E+00  0.00000000000E+00  0.14930222393E+04  0.14930222393E+04  0.00000000000E+00 0.  1.
         21   -1    0    0  502  503 -0.00000000000E+00 -0.00000000000E+00 -0.28865429940E+02  0.28865429940E+02  0.00000000000E+00 0.  1.
          6    2    1    2  501    0 -0.52344748166E+02 -0.20320719782E+02  0.34776567214E+03  0.39087508675E+03  0.16937965172E+03 0.  0.
         24    2    3    3    0    0  0.15076771090E+02 -0.56524012072E+02  0.23697699829E+03  0.25614365061E+03  0.77647917328E+02 0.  0.
         -6    2    1    2    0  503  0.52344748166E+02  0.20320719782E+02  0.11163911372E+04  0.11310125825E+04  0.17235830748E+03 0.  0.
        -24    2    5    5    0    0  0.56651354863E+02 -0.48864004969E+02  0.76491719774E+03  0.77273741849E+03  0.80173134816E+02 0.  0.
          5    1    3    3  501    0 -0.67421519255E+02  0.36203292290E+02  0.11078867385E+03  0.13473143614E+03  0.47000000000E+01 0. -1.
        -11    1    4    4    0    0 -0.48119820723E+01  0.14452355768E+02  0.11975950748E+02  0.19376510394E+02  0.00000000000E+00 0.  1.
         12    1    4    4    0    0  0.19888753162E+02 -0.70976367841E+02  0.22500104754E+03  0.23676714022E+03  0.00000000000E+00 0. -1.
         -5    1    5    5    0  503 -0.43066066971E+01  0.69184724751E+02  0.35147393947E+03  0.35827516398E+03  0.47000000000E+01 0.  1.
         13    1    6    6    0    0 -0.10038274016E+02 -0.28745324945E+02  0.11032760559E+03  0.11445191657E+03  0.00000000000E+00 0. -1.
        -14    1    6    6    0    0  0.66689628878E+02 -0.20118680023E+02  0.65458959215E+03  0.65828550192E+03  0.00000000000E+00 0.  1.
</event>
<event>
12    1  0.1683022E-002  0.1943864E+03  0.7818608E-02  0.1154657E+00
         21   -1    0    0  501  502  0.00000000000E+00  0.00000000000E+00  0.50986293218E+03  0.50986293218E+03  0.00000000000E+00 0. -1.
         21   -1    0    0  502  503 -0.00000000000E+00 -0.00000000000E+00 -0.74961757880E+02  0.74961757880E+02  0.00000000000E+00 0.  1.
          6    2    1    2  501    0 -0.25955232126E+00  0.90443999612E+02  0.25123149119E+03  0.31739126479E+03  0.17158020972E+03 0.  0.
         24    2    3    3    0    0 -0.16417488730E+02  0.71962254171E+02  0.60176006714E+02  0.12470773677E+03  0.80515637388E+02 0.  0.
         -6    2    1    2    0  503  0.25955232126E+00 -0.90443999612E+02  0.18366968311E+03  0.26743342527E+03  0.17206365108E+03 0.  0.
        -24    2    5    5    0    0 -0.27882176698E+02 -0.27106974576E+02  0.20635593992E+02  0.90216778571E+02  0.78746654203E+02 0.  0.
          5    1    3    3  501    0  0.16157936408E+02  0.18481745440E+02  0.19105548448E+03  0.19268352802E+03  0.47000000000E+01 0. -1.
        -11    1    4    4    0    0 -0.11615220929E+02  0.64048347631E+02  0.79817086542E+02  0.10299452168E+03  0.00000000000E+00 0.  1.
         12    1    4    4    0    0 -0.48022678011E+01  0.79139065409E+01 -0.19641079828E+02  0.21713215091E+02  0.00000000000E+00 0. -1.
         -5    1    5    5    0  503  0.28141729019E+02 -0.63337025036E+02  0.16303408912E+03  0.17721664670E+03  0.47000000000E+01 0.  1.
         11    1    6    6    0    0 -0.36830052976E+02 -0.49770152782E+02  0.70390767386E+01  0.62314280157E+02  0.00000000000E+00 0. -1.
        -12    1    6    6    0    0  0.89478762785E+01  0.22663178206E+02  0.13596517254E+02  0.27902498414E+02  0.00000000000E+00 0.  1.
</event>
<event>
12    1  0.1683022E-002  0.1824069E+03  0.7818608E-02  0.1166069E+00
         21   -1    0    0  501  502  0.00000000000E+00  0.00000000000E+00  0.23540892691E+03  0.23540892691E+03  0.00000000000E+00 0.  1.
         21   -1    0    0  502  503 -0.00000000000E+00 -0.00000000000E+00 -0.13973527145E+03  0.13973527145E+03  0.00000000000E+00 0.  1.
          6    2    1    2  501    0 -0.14709309566E+02  0.52379449718E+02  0.39573881395E+02  0.18430539105E+03  0.17158792073E+03 0.  0.
         24    2    3    3    0    0 -0.60569712701E+02  0.60269604416E+01 -0.10707546397E+02  0.10183089912E+03  0.80931243147E+02 0.  0.
         -6    2    1    2    0  503  0.14709309566E+02 -0.52379449718E+02  0.56099774064E+02  0.19083880731E+03  0.17410426526E+03 0.  0.
        -24    2    5    5    0    0 -0.11357535687E+02 -0.76049497920E+02 -0.12765571204E+02  0.11335153492E+03  0.82298790448E+02 0.  0.
          5    1    3    3  501    0  0.45860403135E+02  0.46352489276E+02  0.50281427793E+02  0.82474491927E+02  0.47000000000E+01 0. -1.
        -11    1    4    4    0    0 -0.59186109301E+02  0.16523071307E+02 -0.38210570841E+02  0.72360591095E+02  0.00000000000E+00 0.  1.
         12    1    4    4    0    0 -0.13836033992E+01 -0.10496110865E+02  0.27503024444E+02  0.29470308027E+02  0.00000000000E+00 0. -1.
         -5    1    5    5    0  503  0.26066845253E+02  0.23670048202E+02  0.68865345268E+02  0.77487272389E+02  0.47000000000E+01 0.  1.
         11    1    6    6    0    0 -0.54316730423E+00 -0.31016580021E+02 -0.46610321022E+02  0.55989689164E+02  0.00000000000E+00 0. -1.
        -12    1    6    6    0    0 -0.10814368383E+02 -0.45032917899E+02  0.33844749818E+02  0.57361845753E+02  0.00000000000E+00 0.  1.
</event>
<event>
12    1  0.1683022E-002  0.1905459E+03  0.7818608E-02  0.1159253E+00
         21   -1    0    0  501  502  0.00000000000E+00  0.00000000000E+00  0.48056862140E+03  0.48056862140E+03  0.00000000000E+00 0. -1.
         21   -1    0    0  502  503 -0.00000000000E+00 -0.00000000000E+00 -0.14217324606E+03  0.14217324606E+03  0.00000000000E+00 0. -1.
          6    2    1    2  501    0  0.20061824851E+02 -0.59595138709E+02  0.38453491512E+03  0.42668933489E+03  0.17390408332E+03 0.  0.
         24    2    3    3    0    0  0.62576616977E+02 -0.86839539433E+02  0.26628605212E+03  0.29802446588E+03  0.80332945325E+02 0.  0.
         -6    2    1    2    0  503 -0.20061824851E+02  0.59595138709E+02 -0.46139539783E+02  0.19605253257E+03  0.17987129015E+03 0.  0.
        -24    2    5    5    0    0 -0.13614592290E+02 -0.29853653082E+02 -0.60066479581E+02  0.10517512716E+03  0.79857546163E+02 0.  0.
          5    1    3    3  501    0 -0.42514792126E+02  0.27244400724E+02  0.11824886299E+03  0.12866486902E+03  0.47000000000E+01 0. -1.
        -13    1    4    4    0    0  0.49614065595E+02 -0.38100151358E+01  0.10229981976E+03  0.11375994393E+03  0.00000000000E+00 0.  1.
         14    1    4    4    0    0  0.12962551382E+02 -0.83029524297E+02  0.16398623237E+03  0.18426452195E+03  0.00000000000E+00 0. -1.
         -5    1    5    5    0  503 -0.64472325609E+01  0.89448791791E+02  0.13926939798E+02  0.90877405402E+02  0.47000000000E+01 0.  1.
         13    1    6    6    0    0 -0.39928607608E+02  0.74125122194E+01 -0.30876330577E+02  0.51015554812E+02  0.00000000000E+00 0. -1.
        -14    1    6    6    0    0  0.26314015318E+02 -0.37266165302E+02 -0.29190149004E+02  0.54159572351E+02  0.00000000000E+00 0.  1.
</event>
<event>
12    1  0.1683022E-002  0.1984645E+03  0.7818608E-02  0.1153041E+00
         21   -1    0    0  503  502  0.00000000000E+00  0.00000000000E+00  0.11394525243E+04  0.11394525243E+04  0.00000000000E+00 0. -1.
         21   -1    0    0  501  503 -0.00000000000E+00 -0.00000000000E+00 -0.38275442090E+02  0.38275442090E+02  0.00000000000E+00 0.  1.
          6    2    1    2  501    0  0.65296538125E+02 -0.42188537079E+02  0.32064250232E+03  0.37235700217E+03  0.17261115904E+03 0.  0.
         24    2    3    3    0    0  0.21329735123E+02  0.42722810976E+02  0.17245432505E+03  0.19593466040E+03  0.79810404963E+02 0.  0.
         -6    2    1    2    0  502 -0.65296538125E+02  0.42188537079E+02  0.78053457987E+03  0.80537096420E+03  0.18260517254E+03 0.  0.
        -24    2    5    5    0    0 -0.84755558802E+01 -0.46062350211E+02  0.32723111518E+03  0.34005068284E+03  0.79753927859E+02 0.  0.
          5    1    3    3  501    0  0.43966803003E+02 -0.84911348056E+02  0.14818817727E+03  0.17642234178E+03  0.47000000000E+01 0. -1.
        -13    1    4    4    0    0  0.19435136347E+02  0.58720467437E+02  0.75267907056E+02  0.97422151759E+02  0.00000000000E+00 0.  1.
         14    1    4    4    0    0  0.18945987752E+01 -0.15997656460E+02  0.97186417989E+02  0.98512508639E+02  0.00000000000E+00 0. -1.
         -5    1    5    5    0  502 -0.56820982245E+02  0.88250887290E+02  0.45330346470E+03  0.46532028135E+03  0.47000000000E+01 0.  1.
         11    1    6    6    0    0 -0.39789567254E+02 -0.45846477316E+02  0.23156540795E+03  0.23939015708E+03  0.00000000000E+00 0. -1.
        -12    1    6    6    0    0  0.31314011374E+02 -0.21587289529E+00  0.95665707223E+02  0.10066052577E+03  0.00000000000E+00 0.  1.
</event>
<event>
12    1  0.1683022E-002  0.2096013E+03  0.7818608E-02  0.1142683E+00
         21   -1    0    0  501  502  0.00000000000E+00  0.00000000000E+00  0.72101624837E+03  0.72101624837E+03  0.00000000000E+00 0.  1.
         21   -1    0    0  502  503 -0.00000000000E+00 -0.00000000000E+00 -0.79430326852E+02  0.79430326852E+02  0.00000000000E+00 0.  1.
          6    2    1    2  501    0 -0.44080942903E+02  0.10921227277E+03  0.11939773369E+03  0.23776265203E+03  0.16853726542E+03 0.  0.
         24    2    3    3    0    0 -0.26154716391E+02  0.13237596212E+03  0.48581489882E+02  0.16098416227E+03  0.73131900050E+02 0.  0.
         -6    2    1    2    0  503  0.44080942903E+02 -0.10921227277E+03  0.52218818782E+03  0.56268392319E+03  0.17338467023E+03 0.  0.
        -24    2    5    5    0    0  0.91397969101E+02 -0.68194923538E+02  0.41740666184E+03  0.44052590220E+03  0.82647521485E+02 0.  0.
          5    1    3    3  501    0 -0.17926226512E+02 -0.23163689354E+02  0.70816243813E+02  0.76778489756E+02  0.47000000000E+01 0. -1.
        -11    1    4    4    0    0 -0.44444542496E+02  0.65804515099E+02  0.46275557357E+02  0.91907446781E+02  0.00000000000E+00 0.  1.
         12    1    4    4    0    0  0.18289826105E+02  0.66571447025E+02  0.23059325248E+01  0.69076715489E+02  0.00000000000E+00 0. -1.
         -5    1    5    5    0  503 -0.47317026198E+02 -0.41017349232E+02  0.10478152598E+03  0.12215802099E+03  0.47000000000E+01 0.  1.
         13    1    6    6    0    0  0.10612600972E+03 -0.66891066419E+02  0.35940246902E+03  0.38066688777E+03  0.00000000000E+00 0. -1.
        -14    1    6    6    0    0 -0.14728040619E+02 -0.13038571190E+01  0.58004192826E+02  0.59859014436E+02  0.00000000000E+00 0.  1.
</event>
<event>
12    1  0.1683022E-002  0.2101006E+03  0.7818608E-02  0.1141493E+00
         21   -1    0    0  501  502  0.00000000000E+00  0.00000000000E+00  0.13082952441E+03  0.13082952441E+03  0.00000000000E+00 0.  1.
         21   -1    0    0  502  503 -0.00000000000E+00 -0.00000000000E+00 -0.38550279850E+03  0.38550279850E+03  0.00000000000E+00 0.  1.
          6    2    1    2  501    0  0.10661837119E+03 -0.56719973016E+02 -0.36084388476E+02  0.21314363771E+03  0.17188221197E+03 0.  0.
         24    2    3    3    0    0  0.10510738224E+03 -0.99836879024E+02 -0.18125176442E+02  0.16617584057E+03  0.79189164380E+02 0.  0.
         -6    2    1    2    0  503 -0.10661837119E+03  0.56719973016E+02 -0.21858888561E+03  0.30318868520E+03  0.17192337103E+03 0.  0.
        -24    2    5    5    0    0  0.41743552746E+01  0.29732758704E+02 -0.74910487579E+02  0.11969778615E+03  0.88399754961E+02 0.  0.
          5    1    3    3  501    0  0.15109889542E+01  0.43116906008E+02 -0.17959212035E+02  0.46967797141E+02  0.47000000000E+01 0. -1.
        -13    1    4    4    0    0  0.57465074252E+02 -0.87459338059E+02 -0.40361455904E+02  0.11216246117E+03  0.00000000000E+00 0.  1.
         14    1    4    4    0    0  0.47642307985E+02 -0.12377540965E+02  0.22236279462E+02  0.54013379405E+02  0.00000000000E+00 0. -1.
         -5    1    5    5    0  503 -0.11079272647E+03  0.26987214311E+02 -0.14367839804E+03  0.18349089905E+03  0.47000000000E+01 0.  1.
         13    1    6    6    0    0 -0.28525915965E+02  0.11076286384E+01 -0.70445207923E+02  0.76009749652E+02  0.00000000000E+00 0. -1.
        -14    1    6    6    0    0  0.32700271240E+02  0.28625130066E+02 -0.44652796560E+01  0.43688036496E+02  0.00000000000E+00 0.  1.
</event>
<event>
12    1  0.1683022E-002  0.1822866E+03  0.7818608E-02  0.1165869E+00
         21   -1    0    0  501  502  0.00000000000E+00  0.00000000000E+00  0.16710211721E+03  0.16710211721E+03  0.00000000000E+00 0.  1.
         21   -1    0    0  502  503 -0.00000000000E+00 -0.00000000000E+00 -0.23703898725E+03  0.23703898725E+03  0.00000000000E+00 0. -1.
          6    2    1    2  501    0  0.94356332481E+01 -0.55429102785E+02  0.47304333652E+02  0.18832450046E+03  0.17339838777E+03 0.  0.
         24    2    3    3    0    0 -0.15529475429E+02 -0.54308316891E+01 -0.33610410686E+02  0.89874667476E+02  0.81713754090E+02 0.  0.
         -6    2    1    2    0  503 -0.94356332481E+01  0.55429102785E+02 -0.11724120370E+03  0.21581660399E+03  0.17224949958E+03 0.  0.
        -24    2    5    5    0    0  0.35509058845E+02 -0.19894561063E+02 -0.40025995692E+02  0.98863801420E+02  0.80717309668E+02 0.  0.
          5    1    3    3  501    0  0.24965108677E+02 -0.49998271096E+02  0.80914744337E+02  0.98449832986E+02  0.47000000000E+01 0. -1.
        -13    1    4    4    0    0  0.15845281533E+02 -0.32704650041E+01  0.21208547109E+02  0.26675294913E+02  0.00000000000E+00 0.  1.
         14    1    4    4    0    0 -0.31374756962E+02 -0.21603666850E+01 -0.54818957795E+02  0.63199372563E+02  0.00000000000E+00 0. -1.
         -5    1    5    5    0  503 -0.44944692093E+02  0.75323663848E+02 -0.77215208006E+02  0.11695280258E+03  0.47000000000E+01 0.  1.
         11    1    6    6    0    0 -0.26059644829E+02 -0.22161124985E+01 -0.87407571343E+01  0.27575660980E+02  0.00000000000E+00 0. -1.
        -12    1    6    6    0    0  0.61568703674E+02 -0.17678448564E+02 -0.31285238558E+02  0.71288140440E+02  0.00000000000E+00 0.  1.
</event>
<event>
12    1  0.1683022E-002  0.2602393E+03  0.7818608E-02  0.1107060E+00
         21   -1    0    0  503  502  0.00000000000E+00  0.00000000000E+00  0.23169825055E+03  0.23169825055E+03  0.00000000000E+00 0. -1.
         21   -1    0    0  501  503 -0.00000000000E+00 -0.00000000000E+00 -0.53064174508E+03  0.53064174508E+03  0.00000000000E+00 0.  1.
          6    2    1    2  501    0 -0.18780449094E+03 -0.51855643027E+02 -0.40523502425E+03  0.48160139771E+03  0.17252520645E+03 0.  0.
         24    2    3    3    0    0 -0.19230839470E+03 -0.12237045830E+02 -0.38131329873E+03  0.43486535867E+03  0.81091210488E+02 0.  0.
         -6    2    1    2    0  502  0.18780449094E+03  0.51855643027E+02  0.10629152973E+03  0.28073859792E+03  0.17192072749E+03 0.  0.
        -24    2    5    5    0    0  0.11791197270E+03  0.89277654829E+02  0.11153829104E+03  0.20114595016E+03  0.78391134325E+02 0.  0.
          5    1    3    3  501    0  0.45039037575E+01 -0.39618597196E+02 -0.23921725519E+02  0.46736039035E+02  0.47000000000E+01 0. -1.
        -13    1    4    4    0    0 -0.68837311182E+02  0.60080875681E+01 -0.65198177872E+02  0.95002499572E+02  0.00000000000E+00 0.  1.
         14    1    4    4    0    0 -0.12347108352E+03 -0.18245133398E+02 -0.31611512086E+03  0.33986285910E+03  0.00000000000E+00 0. -1.
         -5    1    5    5    0  502  0.69892518245E+02 -0.37422011803E+02 -0.52467613096E+01  0.79592647765E+02  0.47000000000E+01 0.  1.
         11    1    6    6    0    0  0.11680683610E+03  0.53387777820E+02  0.10196546353E+03  0.16398490032E+03  0.00000000000E+00 0. -1.
        -12    1    6    6    0    0  0.11051365930E+01  0.35889877009E+02  0.95728275140E+01  0.37161049840E+02  0.00000000000E+00 0.  1.
</event>
<event>
12    1  0.1683022E-002  0.1814893E+03  0.7818608E-02  0.1167095E+00
         21   -1    0    0  501  502  0.00000000000E+00  0.00000000000E+00  0.21579699101E+03  0.21579699101E+03  0.00000000000E+00 0.  1.
         21   -1    0    0  502  503 -0.00000000000E+00 -0.00000000000E+00 -0.16098797746E+03  0.16098797746E+03  0.00000000000E+00 0. -1.
          6    2    1    2  501    0 -0.47074633277E+02 -0.21297032210E+02 -0.21330612119E+02  0.18273849731E+03  0.17397924792E+03 0.  0.
         24    2    3    3    0    0 -0.80808856418E+02  0.16304525126E+02  0.20626885262E+02  0.11690236353E+03  0.80279420703E+02 0.  0.
         -6    2    1    2    0  503  0.47074633277E+02  0.21297032210E+02  0.76139625667E+02  0.19404647115E+03  0.17084263429E+03 0.  0.
        -24    2    5    5    0    0  0.75768144059E+02  0.54086111132E+02  0.82672531204E+02  0.14973834422E+03  0.83190776180E+02 0.  0.
          5    1    3    3  501    0  0.33734223140E+02 -0.37601557336E+02 -0.41957497381E+02  0.65836133783E+02  0.47000000000E+01 0. -1.
        -13    1    4    4    0    0 -0.80694267770E+02  0.13756689407E+02  0.44310477349E+02  0.93081844402E+02  0.00000000000E+00 0.  1.
         14    1    4    4    0    0 -0.11458864741E+00  0.25478357196E+01 -0.23683592087E+02  0.23820519129E+02  0.00000000000E+00 0. -1.
         -5    1    5    5    0  503 -0.28693510782E+02 -0.32789078923E+02 -0.65329055367E+01  0.44308126933E+02  0.47000000000E+01 0.  1.
         11    1    6    6    0    0  0.42256696637E+02 -0.12177649606E+02  0.85127365952E+01  0.44792747682E+02  0.00000000000E+00 0. -1.
        -12    1    6    6    0    0  0.33511447423E+02  0.66263760739E+02  0.74159794609E+02  0.10494559653E+03  0.00000000000E+00 0.  1.
</event>
<event>
12    1  0.1683022E-002  0.1965006E+03  0.7818608E-02  0.1153132E+00
         21   -1    0    0  501  502  0.00000000000E+00  0.00000000000E+00  0.13777958845E+03  0.13777958845E+03  0.00000000000E+00 0. -1.
         21   -1    0    0  502  503 -0.00000000000E+00 -0.00000000000E+00 -0.29082463219E+03  0.29082463219E+03  0.00000000000E+00 0.  1.
          6    2    1    2  501    0 -0.76721451146E+01 -0.89022951304E+02 -0.12260454290E+03  0.23161254776E+03  0.17501014448E+03 0.  0.
         24    2    3    3    0    0  0.34846358554E+02 -0.11730962996E+03 -0.10089221104E+03  0.17592166252E+03  0.76114224102E+02 0.  0.
         -6    2    1    2    0  503  0.76721451146E+01  0.89022951304E+02 -0.30440500834E+02  0.19699167287E+03  0.17290213249E+03 0.  0.
        -24    2    5    5    0    0  0.42819006941E+02  0.12317439810E+03 -0.24070386960E+02  0.14735004150E+03  0.64243688401E+02 0.  0.
          5    1    3    3  501    0 -0.42518503669E+02  0.28286678655E+02 -0.21712331862E+02  0.55690885237E+02  0.47000000000E+01 0. -1.
        -13    1    4    4    0    0 -0.13631669580E+02 -0.49736277394E+02 -0.70563621748E+02  0.87399910862E+02  0.00000000000E+00 0.  1.
         14    1    4    4    0    0  0.48478028134E+02 -0.67573352565E+02 -0.30328589294E+02  0.88521751662E+02  0.00000000000E+00 0. -1.
         -5    1    5    5    0  503 -0.35146861827E+02 -0.34151446796E+02 -0.63701138735E+01  0.49641631372E+02  0.47000000000E+01 0.  1.
         11    1    6    6    0    0  0.42469158922E+02  0.65249873344E+02  0.12493675122E+02  0.78849650278E+02  0.00000000000E+00 0. -1.
        -12    1    6    6    0    0  0.34984801917E+00  0.57924524756E+02 -0.36564062082E+02  0.68500391224E+02  0.00000000000E+00 0.  1.
</event>
<event>
12    1  0.1683022E-002  0.3837001E+03  0.7818608E-02  0.1050524E+00
         21   -1    0    0  503  502  0.00000000000E+00  0.00000000000E+00  0.32722868787E+03  0.32722868787E+03  0.00000000000E+00 0.  1.
         21   -1    0    0  501  503 -0.00000000000E+00 -0.00000000000E+00 -0.93231903680E+03  0.93231903680E+03  0.00000000000E+00 0. -1.
          6    2    1    2  501    0  0.33152509118E+03 -0.17430761646E+02 -0.76302879122E+03  0.85407182236E+03  0.19238769187E+03 0.  0.
         24    2    3    3    0    0  0.14484211704E+03  0.64520690682E+02 -0.40185733028E+03  0.43930262441E+03  0.79720282973E+02 0.  0.
         -6    2    1    2    0  502 -0.33152509118E+03  0.17430761646E+02  0.15793844229E+03  0.40547590232E+03  0.17103636535E+03 0.  0.
        -24    2    5    5    0    0 -0.19340944252E+03  0.31819042312E+02  0.22688983270E+02  0.21157525458E+03  0.76352043080E+02 0.  0.
          5    1    3    3  501    0  0.18668297414E+03 -0.81951452328E+02 -0.36117146094E+03  0.41476919795E+03  0.47000000000E+01 0. -1.
        -11    1    4    4    0    0  0.11140016413E+03  0.81575626390E+02 -0.28741118962E+03  0.31885697625E+03  0.00000000000E+00 0.  1.
         12    1    4    4    0    0  0.33441952910E+02 -0.17054935708E+02 -0.11444614066E+03  0.12044564815E+03  0.00000000000E+00 0. -1.
         -5    1    5    5    0  502 -0.13811564867E+03 -0.14388280666E+02  0.13524945902E+03  0.19390064774E+03  0.47000000000E+01 0.  1.
         11    1    6    6    0    0 -0.45547899877E+02  0.60067352723E+01 -0.27216225024E+02  0.53398641896E+02  0.00000000000E+00 0. -1.
        -12    1    6    6    0    0 -0.14786154264E+03  0.25812307040E+02  0.49905208295E+02  0.15817661269E+03  0.00000000000E+00 0.  1.
</event>
<event>
12    1  0.1683022E-002  0.2617187E+03  0.7818608E-02  0.1107888E+00
         21   -1    0    0  503  502  0.00000000000E+00  0.00000000000E+00  0.27629627771E+03  0.27629627771E+03  0.00000000000E+00 0. -1.
         21   -1    0    0  501  503 -0.00000000000E+00 -0.00000000000E+00 -0.27099169609E+03  0.27099169609E+03  0.00000000000E+00 0.  1.
          6    2    1    2  501    0 -0.17927965860E+03  0.11191026076E+02 -0.94151361188E+02  0.27813872447E+03  0.19034241824E+03 0.  0.
         24    2    3    3    0    0 -0.94773265692E+02  0.48333616240E+02  0.18308164778E+02  0.13257039883E+03  0.76952007125E+02 0.  0.
         -6    2    1    2    0  502  0.17927965860E+03 -0.11191026076E+02  0.99455942806E+02  0.26914924934E+03  0.17402125964E+03 0.  0.
        -24    2    5    5    0    0  0.39319449593E+02 -0.49095338348E+02  0.27340507914E+02  0.10713590746E+03  0.82305698050E+02 0.  0.
          5    1    3    3  501    0 -0.84506392910E+02 -0.37142590164E+02 -0.11245952597E+03  0.14556832563E+03  0.47000000000E+01 0. -1.
        -11    1    4    4    0    0 -0.45346499185E+02  0.64893903843E+02  0.10462259813E+02  0.79856011826E+02  0.00000000000E+00 0.  1.
         12    1    4    4    0    0 -0.49426766508E+02 -0.16560287603E+02  0.78459049651E+01  0.52714387008E+02  0.00000000000E+00 0. -1.
         -5    1    5    5    0  502  0.13996020901E+03  0.37904312273E+02  0.72115434891E+02  0.16201334187E+03  0.47000000000E+01 0.  1.
         13    1    6    6    0    0 -0.14302418610E+02  0.10516744705E+02 -0.80496260635E+01  0.19492500534E+02  0.00000000000E+00 0. -1.
        -14    1    6    6    0    0  0.53621868204E+02 -0.59612083053E+02  0.35390133978E+02  0.87643406931E+02  0.00000000000E+00 0.  1.
</event>
<event>
12    1  0.1683022E-002  0.2491642E+03  0.7818608E-02  0.1114096E+00
         21   -1    0    0  501  502  0.00000000000E+00  0.00000000000E+00  0.36920694926E+02  0.36920694926E+02  0.00000000000E+00 0.  1.
         21   -1    0    0  502  503 -0.00000000000E+00 -0.00000000000E+00 -0.17213843333E+04  0.17213843333E+04  0.00000000000E+00 0. -1.
          6    2    1    2  501    0  0.85229943598E+02  0.15796120250E+03 -0.69368099748E+03  0.73707268001E+03  0.17282049810E+03 0.  0.
         24    2    3    3    0    0 -0.49628171862E+01  0.94742522539E+02 -0.48849731623E+03  0.50414829604E+03  0.80839973440E+02 0.  0.
         -6    2    1    2    0  503 -0.85229943598E+02 -0.15796120250E+03 -0.99078264093E+03  0.10212323483E+04  0.17043879482E+03 0.  0.
        -24    2    5    5    0    0 -0.92951022298E+02 -0.64638782492E+02 -0.75134000435E+03  0.76408733985E+03  0.80620072241E+02 0.  0.
          5    1    3    3  501    0  0.90192760785E+02  0.63218679959E+02 -0.20518368126E+03  0.23292438397E+03  0.47000000000E+01 0. -1.
        -13    1    4    4    0    0 -0.12013896805E+02 -0.11932083717E+02 -0.49299837740E+02  0.52126599155E+02  0.00000000000E+00 0.  1.
         14    1    4    4    0    0  0.70510796191E+01  0.10667460626E+03 -0.43919747849E+03  0.45202169688E+03  0.00000000000E+00 0. -1.
         -5    1    5    5    0  503  0.77210786999E+01 -0.93322420005E+02 -0.23944263659E+03  0.25714500840E+03  0.47000000000E+01 0.  1.
         11    1    6    6    0    0 -0.40077268540E+02  0.15416129791E+02 -0.21858989377E+03  0.22276756086E+03  0.00000000000E+00 0. -1.
        -12    1    6    6    0    0 -0.52873753758E+02 -0.80054912283E+02 -0.53275011057E+03  0.54131977899E+03  0.00000000000E+00 0.  1.
</event>
<event>
12    1  0.1683022E-002  0.3542758E+03  0.7818608E-02  0.1061060E+00
         21   -1    0    0  501  502  0.00000000000E+00  0.00000000000E+00  0.87963410378E+02  0.87963410378E+02  0.00000000000E+00 0. -1.
         21   -1    0    0  502  503 -0.00000000000E+00 -0.00000000000E+00 -0.16116552301E+04  0.16116552301E+04  0.00000000000E+00 0. -1.
          6    2    1    2  501    0  0.21030464858E+03  0.22772946356E+03 -0.46662459565E+03  0.58476329034E+03  0.16769269120E+03 0.  0.
         24    2    3    3    0    0  0.92108617121E+02  0.18664961609E+03 -0.34079251885E+03  0.40724242601E+03  0.79904794028E+02 0.  0.
         -6    2    1    2    0  503 -0.21030464858E+03 -0.22772946356E+03 -0.10570672241E+04  0.11148553501E+04  0.17153011903E+03 0.  0.
        -24    2    5    5    0    0 -0.54404633540E+02 -0.54493790254E+02 -0.23475326337E+03  0.26014033731E+03  0.81452213618E+02 0.  0.
          5    1    3    3  501    0  0.11819603145E+03  0.41079847471E+02 -0.12583207680E+03  0.17752086433E+03  0.47000000000E+01 0. -1.
        -11    1    4    4    0    0 -0.14270815836E+02  0.24532241376E+02 -0.33735738230E+02  0.44086132576E+02  0.00000000000E+00 0.  1.
         12    1    4    4    0    0  0.10637943296E+03  0.16211737471E+03 -0.30705678062E+03  0.36315629344E+03  0.00000000000E+00 0. -1.
         -5    1    5    5    0  503 -0.15590001503E+03 -0.17323567331E+03 -0.82231396071E+03  0.85471501284E+03  0.47000000000E+01 0.  1.
         11    1    6    6    0    0 -0.73616055520E+02 -0.31477047832E+02 -0.14674015424E+03  0.16716100334E+03  0.00000000000E+00 0. -1.
        -12    1    6    6    0    0  0.19211421980E+02 -0.23016742422E+02 -0.88013109131E+02  0.92979333968E+02  0.00000000000E+00 0.  1.
</event>
<event>
12    1  0.1683022E-002  0.3360020E+03  0.7818608E-02  0.1068598E+00
         21   -1    0    0  503  502  0.00000000000E+00  0.00000000000E+00  0.43869440993E+03  0.43869440993E+03  0.00000000000E+00 0.  1.
         21   -1    0    0  501  503 -0.00000000000E+00 -0.00000000000E+00 -0.26606591154E+03  0.26606591154E+03  0.00000000000E+00 0. -1.
          6    2    1    2  501    0  0.27923913366E+03 -0.69788564699E+02  0.20231686129E+02  0.33581301732E+03  0.17180257258E+03 0.  0.
         24    2    3    3    0    0  0.28140619200E+03 -0.31538622716E+02  0.44879310099E+01  0.29412716805E+03  0.79413599846E+02 0.  0.
         -6    2    1    2    0  502 -0.27923913366E+03  0.69788564699E+02  0.15239681226E+03  0.36894730416E+03  0.17335624398E+03 0.  0.
        -24    2    5    5    0    0 -0.20310489795E+03  0.11213345144E+03  0.12929100896E+03  0.27869499434E+03  0.84434734380E+02 0.  0.
          5    1    3    3  501    0 -0.21670583449E+01 -0.38249941983E+02  0.15743755119E+02  0.41685849264E+02  0.47000000000E+01 0. -1.
        -13    1    4    4    0    0  0.75220392595E+02 -0.25383730727E+02  0.32836130792E+02  0.85910725367E+02  0.00000000000E+00 0.  1.
         14    1    4    4    0    0  0.20618579941E+03 -0.61548919884E+01 -0.28348199782E+02  0.20821644268E+03  0.00000000000E+00 0. -1.
         -5    1    5    5    0  502 -0.76134235708E+02 -0.42344886744E+02  0.23105803299E+02  0.90252309812E+02  0.47000000000E+01 0.  1.
         13    1    6    6    0    0 -0.30135907093E+02  0.58196072005E+02  0.38960953774E+02  0.76242452821E+02  0.00000000000E+00 0. -1.
        -14    1    6    6    0    0 -0.17296899086E+03  0.53937379438E+02  0.90330055188E+02  0.20245254152E+03  0.00000000000E+00 0.  1.
</event>
<event>
12    1  0.1683022E-002  0.2157498E+03  0.7818608E-02  0.1137467E+00
         21   -1    0    0  501  502  0.00000000000E+00  0.00000000000E+00  0.42990496628E+03  0.42990496628E+03  0.00000000000E+00 0.  1.
         21   -1    0    0  502  503 -0.00000000000E+00 -0.00000000000E+00 -0.16107839383E+03  0.16107839383E+03  0.00000000000E+00 0.  1.
          6    2    1    2  501    0 -0.37570171429E+02  0.12277476608E+03  0.30556292466E+03  0.37405437257E+03  0.17338630783E+03 0.  0.
         24    2    3    3    0    0  0.71090323168E+00  0.12991402668E+03  0.29542763344E+03  0.33354235155E+03  0.84230956103E+02 0.  0.
         -6    2    1    2    0  503  0.37570171429E+02 -0.12277476608E+03 -0.36736352217E+02  0.21692898754E+03  0.17094872065E+03 0.  0.
        -24    2    5    5    0    0  0.22606926630E+02  0.12483593992E+01 -0.41123384858E+02  0.91841136791E+02  0.78936874096E+02 0.  0.
          5    1    3    3  501    0 -0.38281074660E+02 -0.71392605995E+01  0.10135291228E+02  0.40512021022E+02  0.47000000000E+01 0. -1.
        -11    1    4    4    0    0  0.38646251126E+02  0.42402855837E+02  0.85526500299E+02  0.10298697569E+03  0.00000000000E+00 0.  1.
         12    1    4    4    0    0 -0.37935347894E+02  0.87511170842E+02  0.20990113314E+03  0.23055537585E+03  0.00000000000E+00 0. -1.
         -5    1    5    5    0  503  0.14963244799E+02 -0.12402312548E+03  0.43870326415E+01  0.12508785074E+03  0.47000000000E+01 0.  1.
         13    1    6    6    0    0 -0.23198816172E+02  0.16525196502E+02 -0.10249182710E+00  0.28482936923E+02  0.00000000000E+00 0. -1.
        -14    1    6    6    0    0  0.45805742801E+02 -0.15276837103E+02 -0.41020893031E+02  0.63358199868E+02  0.00000000000E+00 0.  1.
</event>
<event>
12    1  0.1683022E-002  0.2332048E+03  0.7818608E-02  0.1124869E+00
         21   -1    0    0  503  502  0.00000000000E+00  0.00000000000E+00  0.63664603283E+02  0.63664603283E+02  0.00000000000E+00 0.  1.
         21   -1    0    0  501  503 -0.00000000000E+00 -0.00000000000E+00 -0.86431241276E+03  0.86431241276E+03  0.00000000000E+00 0.  1.
          6    2    1    2  501    0  0.36768885999E+02  0.15249779234E+03 -0.32775362146E+03  0.40070725048E+03  0.16892701549E+03 0.  0.
         24    2    3    3    0    0  0.54811859146E+02  0.40355604340E+02 -0.22312195801E+03  0.24620387121E+03  0.78740227012E+02 0.  0.
         -6    2    1    2    0  502 -0.36768885999E+02 -0.15249779234E+03 -0.47289418802E+03  0.52726976557E+03  0.17256003295E+03 0.  0.
        -24    2    5    5    0    0  0.26637560265E+02 -0.21217820799E+02 -0.17137975943E+03  0.19232521941E+03  0.80363004800E+02 0.  0.
          5    1    3    3  501    0 -0.18042973147E+02  0.11214218800E+03 -0.10463166345E+03  0.15450337927E+03  0.47000000000E+01 0. -1.
        -13    1    4    4    0    0 -0.15449773187E+02  0.22896611751E+02 -0.96180338564E+02  0.10006801611E+03  0.00000000000E+00 0.  1.
         14    1    4    4    0    0  0.70261632333E+02  0.17458992589E+02 -0.12694161944E+03  0.14613585510E+03  0.00000000000E+00 0. -1.
         -5    1    5    5    0  502 -0.63406446263E+02 -0.13127997154E+03 -0.30151442859E+03  0.33494454616E+03  0.47000000000E+01 0.  1.
         13    1    6    6    0    0  0.30501953061E+02  0.26105505964E+01 -0.16435839382E+03  0.16718512414E+03  0.00000000000E+00 0. -1.
        -14    1    6    6    0    0 -0.38643927967E+01 -0.23828371395E+02 -0.70213656155E+01  0.25140095269E+02  0.00000000000E+00 0.  1.
</event>
<event>
12    1  0.1683022E-002  0.2480886E+03  0.7818608E-02  0.1114531E+00
         21   -1    0    0  503  502  0.00000000000E+00  0.00000000000E+00  0.30926595433E+02  0.30926595433E+02  0.00000000000E+00 0.  1.
         21   -1    0    0  501  503 -0.00000000000E+00 -0.00000000000E+00 -0.19940305383E+04  0.19940305383E+04  0.00000000000E+00 0.  1.
          6    2    1    2  501    0 -0.12411660260E+03  0.12928704405E+03 -0.10298106407E+04  0.10592723382E+04  0.17154550423E+03 0.  0.
         24    2    3    3    0    0 -0.58969212573E+02  0.30989900543E+02 -0.28236257466E+03  0.30256419615E+03  0.85899518371E+02 0.  0.
         -6    2    1    2    0  502  0.12411660260E+03 -0.12928704405E+03 -0.93329330223E+03  0.96568479557E+03  0.17143706021E+03 0.  0.
        -24    2    5    5    0    0  0.18023288828E+02 -0.10573428480E+03 -0.61077958297E+03  0.62532070698E+03  0.80434505511E+02 0.  0.
          5    1    3    3  501    0 -0.65147390029E+02  0.98297143510E+02 -0.74744806603E+03  0.75670814206E+03  0.47000000000E+01 0. -1.
        -13    1    4    4    0    0 -0.66242601022E+02  0.47128336726E+02 -0.16572800535E+03  0.18459397084E+03  0.00000000000E+00 0.  1.
         14    1    4    4    0    0  0.72733884494E+01 -0.16138436183E+02 -0.11663456931E+03  0.11797022531E+03  0.00000000000E+00 0. -1.
         -5    1    5    5    0  502  0.10609331377E+03 -0.23552759248E+02 -0.32251371925E+03  0.34036408859E+03  0.47000000000E+01 0.  1.
         13    1    6    6    0    0 -0.24588629753E+02 -0.57228793640E+01 -0.10544848846E+03  0.10842848232E+03  0.00000000000E+00 0. -1.
        -14    1    6    6    0    0  0.42611918581E+02 -0.10001140544E+03 -0.50533109452E+03  0.51689222466E+03  0.00000000000E+00 0.  1.
</event>
<event>
12    1  0.1683022E-002  0.1921623E+03  0.7818608E-02  0.1156610E+00
         21   -1    0    0  503  502  0.00000000000E+00  0.00000000000E+00  0.79851701209E+02  0.79851701209E+02  0.00000000000E+00 0.  1.
         21   -1    0    0  501  503 -0.00000000000E+00 -0.00000000000E+00 -0.53448162042E+03  0.53448162042E+03  0.00000000000E+00 0. -1.
          6    2    1    2  501    0 -0.17620016285E+02  0.84305002280E+02 -0.34099299942E+03  0.39141101762E+03  0.17178055966E+03 0.  0.
         24    2    3    3    0    0  0.17109704367E+02  0.11787955768E+03 -0.24185388633E+03  0.28102959703E+03  0.79347337531E+02 0.  0.
         -6    2    1    2    0  502  0.17620016285E+02 -0.84305002280E+02 -0.11363691978E+03  0.22292230400E+03  0.17135695405E+03 0.  0.
        -24    2    5    5    0    0  0.28768907643E+02  0.10883697992E+02 -0.90077283087E+02  0.12411778528E+03  0.79656781047E+02 0.  0.
          5    1    3    3  501    0 -0.34729720652E+02 -0.33574555397E+02 -0.99139113097E+02  0.11038142059E+03  0.47000000000E+01 0. -1.
        -13    1    4    4    0    0 -0.16262435494E+01 -0.10439264770E+02 -0.67638900063E+01  0.12544844560E+02  0.00000000000E+00 0.  1.
         14    1    4    4    0    0  0.18735947917E+02  0.12831882245E+03 -0.23508999632E+03  0.26848475247E+03  0.00000000000E+00 0. -1.
         -5    1    5    5    0  502 -0.11148891358E+02 -0.95188700271E+02 -0.23559636697E+02  0.98804518718E+02  0.47000000000E+01 0.  1.
         13    1    6    6    0    0  0.29630712446E+02 -0.42517354075E+01 -0.10105840676E+03  0.10539856712E+03  0.00000000000E+00 0. -1.
        -14    1    6    6    0    0 -0.86180480265E+00  0.15135433399E+02  0.10981123672E+02  0.18719218167E+02  0.00000000000E+00 0.  1.
</event>
<event>
12    1  0.1683022E-002  0.3058485E+03  0.7818608E-02  0.1082567E+00
         21   -1    0    0  503  502  0.00000000000E+00  0.00000000000E+00  0.20574825966E+03  0.20574825966E+03  0.00000000000E+00 0.  1.
         21   -1    0    0  501  503 -0.00000000000E+00 -0.00000000000E+00 -0.67153572796E+03  0.67153572796E+03  0.00000000000E+00 0.  1.
          6    2    1    2  501    0  0.22510961247E+03 -0.11086771072E+03 -0.48411616692E+03  0.57263578736E+03  0.17486364684E+03 0.  0.
         24    2    3    3    0    0  0.14523886510E+03 -0.82016724630E+02 -0.43889357633E+03  0.47630880057E+03  0.80133832454E+02 0.  0.
         -6    2    1    2    0  502 -0.22510961247E+03  0.11086771072E+03  0.18328698625E+02  0.30464820026E+03  0.17178066778E+03 0.  0.
        -24    2    5    5    0    0 -0.21124581900E+03  0.14247991200E+03  0.27731052288E+02  0.26856454338E+03  0.80203374813E+02 0.  0.
          5    1    3    3  501    0  0.79870747377E+02 -0.28850986086E+02 -0.45222590590E+02  0.96326986791E+02  0.47000000000E+01 0. -1.
        -11    1    4    4    0    0  0.14130060801E+03 -0.92865649801E+02 -0.37467237582E+03  0.41105873052E+03  0.00000000000E+00 0.  1.
         12    1    4    4    0    0  0.39382570862E+01  0.10848925171E+02 -0.64221200506E+02  0.65250070044E+02  0.00000000000E+00 0. -1.
         -5    1    5    5    0  502 -0.13863793471E+02 -0.31612201285E+02 -0.94023536633E+01  0.36083656881E+02  0.47000000000E+01 0.  1.
         13    1    6    6    0    0 -0.84222674126E+02  0.43796909131E+02 -0.26936157808E+02  0.98677174077E+02  0.00000000000E+00 0. -1.
        -14    1    6    6    0    0 -0.12702314488E+03  0.98683002870E+02  0.54667210096E+02  0.16988736930E+03  0.00000000000E+00 0.  1.
</event>
<event>
12    1  0.1683022E-002  0.2555666E+03  0.7818608E-02  0.1110213E+00
         21   -1    0    0  503  502  0.00000000000E+00  0.00000000000E+00  0.34191812768E+03  0.34191812768E+03  0.00000000000E+00 0.  1.
         21   -1    0    0  501  503 -0.00000000000E+00 -0.00000000000E+00 -0.18946010174E+03  0.18946010174E+03  0.00000000000E+00 0.  1.
          6    2    1    2  501    0  0.24411452678E+02  0.18677742662E+03  0.66140954388E+02  0.26162845150E+03  0.16909492799E+03 0.  0.
         24    2    3    3    0    0 -0.14416301433E+02  0.15440532146E+03  0.99665430234E+02  0.20078826608E+03  0.79585782457E+02 0.  0.
         -6    2    1    2    0  502 -0.24411452678E+02 -0.18677742662E+03  0.86317071545E+02  0.26974977792E+03  0.17272110390E+03 0.  0.
        -24    2    5    5    0    0 -0.31196993983E+02 -0.20468618968E+03  0.48472074501E+02  0.22707541598E+03  0.79649317992E+02 0.  0.
          5    1    3    3  501    0  0.38827754110E+02  0.32372105157E+02 -0.33524475846E+02  0.60840185423E+02  0.47000000000E+01 0. -1.
        -13    1    4    4    0    0  0.21812342733E+02  0.97240743044E+02  0.30978135136E+02  0.10436084160E+03  0.00000000000E+00 0.  1.
         14    1    4    4    0    0 -0.36228644166E+02  0.57164578415E+02  0.68687295098E+02  0.96427424477E+02  0.00000000000E+00 0. -1.
         -5    1    5    5    0  502  0.67855413053E+01  0.17908763068E+02  0.37844997045E+02  0.42674361937E+02  0.47000000000E+01 0.  1.
         13    1    6    6    0    0 -0.49963214162E+02 -0.98454850675E+02  0.44761286137E+02  0.11913544027E+03  0.00000000000E+00 0. -1.
        -14    1    6    6    0    0  0.18766220179E+02 -0.10623133901E+03  0.37107883632E+01  0.10793997572E+03  0.00000000000E+00 0.  1.
</event>
<event>
12    1  0.1683022E-002  0.2069088E+03  0.7818608E-02  0.1144435E+00
         21   -1    0    0  503  502  0.00000000000E+00  0.00000000000E+00  0.96277332892E+02  0.96277332892E+02  0.00000000000E+00 0. -1.
         21   -1    0    0  501  503 -0.00000000000E+00 -0.00000000000E+00 -0.67192521124E+03  0.67192521124E+03  0.00000000000E+00 0. -1.
          6    2    1    2  501    0  0.10620966468E+03  0.35423184996E+02 -0.51415777610E+03  0.55422873474E+03  0.17399993331E+03 0.  0.
         24    2    3    3    0    0  0.40608778038E+02  0.82617896533E+02 -0.36308640526E+03  0.38283600966E+03  0.79100460981E+02 0.  0.
         -6    2    1    2    0  502 -0.10620966468E+03 -0.35423184996E+02 -0.61490102252E+02  0.21397380939E+03  0.17166380959E+03 0.  0.
        -24    2    5    5    0    0 -0.91984921910E+02 -0.87388366294E+02 -0.62169084390E+02  0.15988800357E+03  0.74841340241E+02 0.  0.
          5    1    3    3  501    0  0.65600886643E+02 -0.47194711537E+02 -0.15107137083E+03  0.17139272508E+03  0.47000000000E+01 0. -1.
        -13    1    4    4    0    0  0.34239887363E+02  0.95273509425E+02 -0.26407752246E+03  0.28281858028E+03  0.00000000000E+00 0.  1.
         14    1    4    4    0    0  0.63688906744E+01 -0.12655612892E+02 -0.99008882801E+02  0.10001742938E+03  0.00000000000E+00 0. -1.
         -5    1    5    5    0  502 -0.14224742771E+02  0.51965181298E+02  0.67898213824E+00  0.54085805818E+02  0.47000000000E+01 0.  1.
         13    1    6    6    0    0 -0.61986512399E+02 -0.65515232007E+02 -0.32535644990E+01  0.90250534770E+02  0.00000000000E+00 0. -1.
        -14    1    6    6    0    0 -0.29998409511E+02 -0.21873134287E+02 -0.58915519891E+02  0.69637468800E+02  0.00000000000E+00 0.  1.
</event>
<event>
12    1  0.1683022E-002  0.1819718E+03  0.7818608E-02  0.1166048E+00
         21   -1    0    0  501  502  0.00000000000E+00  0.00000000000E+00  0.26969029695E+03  0.26969029695E+03  0.00000000000E+00 0. -1.
         21   -1    0    0  502  503 -0.00000000000E+00 -0.00000000000E+00 -0.15072671991E+03  0.15072671991E+03  0.00000000000E+00 0. -1.
          6    2    1    2  501    0  0.13904235125E+02 -0.54581704919E+02  0.15070621332E+03  0.23627546807E+03  0.17303538313E+03 0.  0.
         24    2    3    3    0    0  0.16141897426E+02 -0.18999169373E+02  0.29838585015E+01  0.84238932721E+02  0.80409981253E+02 0.  0.
         -6    2    1    2    0  503 -0.13904235125E+02  0.54581704919E+02 -0.31742636284E+02  0.18414154879E+03  0.17241816832E+03 0.  0.
        -24    2    5    5    0    0 -0.40228033431E+02 -0.24826070139E+02 -0.35704020544E+02  0.10025877546E+03  0.80885205949E+02 0.  0.
          5    1    3    3  501    0 -0.22376623012E+01 -0.35582535546E+02  0.14772235482E+03  0.15203653535E+03  0.47000000000E+01 0. -1.
        -11    1    4    4    0    0 -0.13656888660E+02  0.25276170198E+02  0.99786142315E+01  0.30413288703E+02  0.00000000000E+00 0.  1.
         12    1    4    4    0    0  0.29798786086E+02 -0.44275339570E+02 -0.69947557299E+01  0.53825644018E+02  0.00000000000E+00 0. -1.
         -5    1    5    5    0  503  0.26323798306E+02  0.79407775058E+02  0.39613842598E+01  0.83882773333E+02  0.47000000000E+01 0.  1.
         11    1    6    6    0    0  0.66762110186E+01 -0.31386545530E+02 -0.41593781671E+02  0.52533129619E+02  0.00000000000E+00 0. -1.
        -12    1    6    6    0    0 -0.46904244450E+02  0.65604753916E+01  0.58897611269E+01  0.47725645840E+02  0.00000000000E+00 0.  1.
</event>
<event>
12    1  0.1683022E-002  0.1716403E+03  0.7818608E-02  0.1176164E+00
         21   -1    0    0  503  502  0.00000000000E+00  0.00000000000E+00  0.18060132890E+03  0.18060132890E+03  0.00000000000E+00 0.  1.
         21   -1    0    0  501  503 -0.00000000000E+00 -0.00000000000E+00 -0.17511830784E+03  0.17511830784E+03  0.00000000000E+00 0.  1.
          6    2    1    2  501    0 -0.29232199715E+01  0.70963008798E+01 -0.43922682492E+02  0.17711020076E+03  0.17140571307E+03 0.  0.
         24    2    3    3    0    0 -0.38776924354E+02 -0.39807649270E+00 -0.84090300281E+02  0.12254664764E+03  0.80266393457E+02 0.  0.
         -6    2    1    2    0  502  0.29232199715E+01 -0.70963008798E+01  0.49405703549E+02  0.17860943598E+03  0.17146866879E+03 0.  0.
        -24    2    5    5    0    0  0.59487994821E+02  0.14281142668E+02  0.12304654854E+01  0.10115291650E+03  0.80545800065E+02 0.  0.
          5    1    3    3  501    0  0.35853704382E+02  0.74943773725E+01  0.40167617790E+02  0.54563553120E+02  0.47000000000E+01 0. -1.
        -11    1    4    4    0    0  0.23033856142E+02 -0.30349833195E+01 -0.41091293199E+02  0.47204491622E+02  0.00000000000E+00 0.  1.
         12    1    4    4    0    0 -0.61810780496E+02  0.26369068268E+01 -0.42999007082E+02  0.75342156016E+02  0.00000000000E+00 0. -1.
         -5    1    5    5    0  502 -0.56564774850E+02 -0.21377443547E+02  0.48175238063E+02  0.77456519473E+02  0.47000000000E+01 0.  1.
         13    1    6    6    0    0  0.40454816657E+02  0.17608520441E+02 -0.37478006795E+02  0.57890009295E+02  0.00000000000E+00 0. -1.
        -14    1    6    6    0    0  0.19033178164E+02 -0.33273777732E+01  0.38708472280E+02  0.43262907208E+02  0.00000000000E+00 0.  1.
</event>
<event>
12    1  0.1683022E-002  0.1964494E+03  0.7818608E-02  0.1153367E+00
         21   -1    0    0  501  502  0.00000000000E+00  0.00000000000E+00  0.35438970876E+02  0.35438970876E+02  0.00000000000E+00 0.  1.
         21   -1    0    0  502  503 -0.00000000000E+00 -0.00000000000E+00 -0.11118471054E+04  0.11118471054E+04  0.00000000000E+00 0.  1.
          6    2    1    2  501    0 -0.70501604764E+01 -0.95311982863E+02 -0.64793791253E+03  0.67706418505E+03  0.17163418464E+03 0.  0.
         24    2    3    3    0    0 -0.26528907061E+02 -0.17188233544E+02 -0.15101178267E+03  0.17363553040E+03  0.79658776232E+02 0.  0.
         -6    2    1    2    0  503  0.70501604764E+01  0.95311982863E+02 -0.42847022199E+03  0.47022189123E+03  0.16848684524E+03 0.  0.
        -24    2    5    5    0    0  0.31754813996E+02  0.87596378620E+02 -0.42660889354E+03  0.44385135847E+03  0.79544871694E+02 0.  0.
          5    1    3    3  501    0  0.19478746585E+02 -0.78123749318E+02 -0.49692612986E+03  0.50342865464E+03  0.47000000000E+01 0. -1.
        -11    1    4    4    0    0  0.65999379129E+01 -0.42361727992E+02 -0.62005074702E+02  0.75383714870E+02  0.00000000000E+00 0.  1.
         12    1    4    4    0    0 -0.33128844974E+02  0.25173494448E+02 -0.89006707967E+02  0.98251815531E+02  0.00000000000E+00 0. -1.
         -5    1    5    5    0  503 -0.24704653520E+02  0.77156042428E+01 -0.18613284549E+01  0.26370532759E+02  0.47000000000E+01 0.  1.
         11    1    6    6    0    0  0.31396313234E+02  0.25175025677E+02 -0.61850355002E+02  0.73790086166E+02  0.00000000000E+00 0. -1.
        -12    1    6    6    0    0  0.35850076223E+00  0.62421352943E+02 -0.36475853854E+03  0.37006127231E+03  0.00000000000E+00 0.  1.
</event>
<event>
12    1  0.1683022E-002  0.2661450E+03  0.7818608E-02  0.1103628E+00
         21   -1    0    0  501  502  0.00000000000E+00  0.00000000000E+00  0.40953567792E+02  0.40953567792E+02  0.00000000000E+00 0.  1.
         21   -1    0    0  502  503 -0.00000000000E+00 -0.00000000000E+00 -0.17727937677E+04  0.17727937677E+04  0.00000000000E+00 0. -1.
          6    2    1    2  501    0  0.19084739141E+03 -0.64390666139E+02 -0.71441870864E+03  0.76209167447E+03  0.17268683893E+03 0.  0.
         24    2    3    3    0    0  0.78081454328E+02  0.29739394066E+02 -0.25313335328E+03  0.27796060351E+03  0.78768378732E+02 0.  0.
         -6    2    1    2    0  503 -0.19084739141E+03  0.64390666139E+02 -0.10174214913E+04  0.10516556610E+04  0.17396624322E+03 0.  0.
        -24    2    5    5    0    0 -0.14002944485E+03 -0.18516590426E+02 -0.51749070501E+03  0.54233360385E+03  0.79862372493E+02 0.  0.
          5    1    3    3  501    0  0.11276593709E+03 -0.94130060205E+02 -0.46128535536E+03  0.48413107096E+03  0.47000000000E+01 0. -1.
        -13    1    4    4    0    0  0.42482683701E+01  0.27538460319E+01  0.55997637238E+01  0.75490930498E+01  0.00000000000E+00 0.  1.
         14    1    4    4    0    0  0.73833185958E+02  0.26985548034E+02 -0.25873311701E+03  0.27041151046E+03  0.00000000000E+00 0. -1.
         -5    1    5    5    0  503 -0.50817946562E+02  0.82907256564E+02 -0.49993078626E+03  0.50932205719E+03  0.47000000000E+01 0.  1.
         13    1    6    6    0    0 -0.17051954036E+02 -0.31042874530E+02 -0.16610166402E+03  0.16983577947E+03  0.00000000000E+00 0. -1.
        -14    1    6    6    0    0 -0.12297749082E+03  0.12526284104E+02 -0.35138904099E+03  0.37249782438E+03  0.00000000000E+00 0.  1.
</event>
<event>
12    1  0.1683022E-002  0.2788496E+03  0.7818608E-02  0.1096438E+00
         21   -1    0    0  501  502  0.00000000000E+00  0.00000000000E+00  0.19970195119E+03  0.19970195119E+03  0.00000000000E+00 0. -1.
         21   -1    0    0  502  503 -0.00000000000E+00 -0.00000000000E+00 -0.48137981929E+03  0.48137981929E+03  0.00000000000E+00 0.  1.
          6    2    1    2  501    0  0.93899785926E+02 -0.19815167187E+03  0.88471515211E+01  0.27898991996E+03  0.17226679450E+03 0.  0.
         24    2    3    3    0    0  0.99182761117E+02 -0.18593155570E+03 -0.39206236535E+02  0.22890539970E+03  0.80329256936E+02 0.  0.
         -6    2    1    2    0  503 -0.93899785926E+02  0.19815167187E+03 -0.29052501962E+03  0.40209185052E+03  0.17085612183E+03 0.  0.
        -24    2    5    5    0    0 -0.47683102143E+02  0.33301804405E+02 -0.63247824835E+02  0.11750711106E+03  0.80155757105E+02 0.  0.
          5    1    3    3  501    0 -0.52829751913E+01 -0.12220116163E+02  0.48053388056E+02  0.50084520259E+02  0.47000000000E+01 0. -1.
        -11    1    4    4    0    0  0.44432935390E+02 -0.45601011365E+02 -0.45315654088E+02  0.78148873890E+02  0.00000000000E+00 0.  1.
         12    1    4    4    0    0  0.54749825727E+02 -0.14033054434E+03  0.61094175536E+01  0.15075652581E+03  0.00000000000E+00 0. -1.
         -5    1    5    5    0  503 -0.46216683783E+02  0.16484986746E+03 -0.22727719479E+03  0.28458473946E+03  0.47000000000E+01 0.  1.
         13    1    6    6    0    0  0.12740488556E+02 -0.13471047026E+02 -0.27451174252E+02  0.33126366002E+02  0.00000000000E+00 0. -1.
        -14    1    6    6    0    0 -0.60423590699E+02  0.46772851431E+02 -0.35796650583E+02  0.84380745060E+02  0.00000000000E+00 0.  1.
</event>
<event>
12    1  0.1683022E-002  0.2491659E+03  0.7818608E-02  0.1113968E+00
         21   -1    0    0  503  502  0.00000000000E+00  0.00000000000E+00  0.30539784099E+04  0.30539784099E+04  0.00000000000E+00 0.  1.
         21   -1    0    0  501  503 -0.00000000000E+00 -0.00000000000E+00 -0.27551404994E+02  0.27551404994E+02  0.00000000000E+00 0.  1.
          6    2    1    2  501    0  0.73725619067E+02 -0.16291868640E+03  0.23077484202E+04  0.23211605780E+04  0.17350992056E+03 0.  0.
         24    2    3    3    0    0 -0.17793551004E+02 -0.12265400784E+03  0.15215256628E+04  0.15285917689E+04  0.78688228888E+02 0.  0.
         -6    2    1    2    0  502 -0.73725619067E+02  0.16291868640E+03  0.71867858469E+03  0.76036923690E+03  0.17229191231E+03 0.  0.
        -24    2    5    5    0    0 -0.57610347676E+02  0.14441990819E+03  0.71344725087E+03  0.73484741054E+03  0.82569213174E+02 0.  0.
          5    1    3    3  501    0  0.91519170071E+02 -0.40264678563E+02  0.78622275739E+03  0.79256880904E+03  0.47000000000E+01 0. -1.
        -11    1    4    4    0    0  0.13637763651E+02 -0.96911732791E+02  0.80710150171E+03  0.81301334959E+03  0.00000000000E+00 0.  1.
         12    1    4    4    0    0 -0.31431314655E+02 -0.25742275044E+02  0.71442416111E+03  0.71557841935E+03  0.00000000000E+00 0. -1.
         -5    1    5    5    0  502 -0.16115271392E+02  0.18498778209E+02  0.52313338214E+01  0.25521826361E+02  0.47000000000E+01 0.  1.
         11    1    6    6    0    0 -0.78202184503E+02  0.10194402196E+03  0.54197503747E+03  0.55699650494E+03  0.00000000000E+00 0. -1.
        -12    1    6    6    0    0  0.20591836828E+02  0.42475886230E+02  0.17147221341E+03  0.17785090561E+03  0.00000000000E+00 0.  1.
</event>
<event>
12    1  0.1683022E-002  0.1745760E+03  0.7818608E-02  0.1173666E+00
         21   -1    0    0  503  502  0.00000000000E+00  0.00000000000E+00  0.28774431141E+03  0.28774431141E+03  0.00000000000E+00 0. -1.
         21   -1    0    0  501  503 -0.00000000000E+00 -0.00000000000E+00 -0.10662002463E+03  0.10662002463E+03  0.00000000000E+00 0. -1.
          6    2    1    2  501    0  0.21088061731E+02  0.60586671155E+01  0.63619689748E+02  0.18392640506E+03  0.17117255551E+03 0.  0.
         24    2    3    3    0    0 -0.94279379150E+01  0.36534422136E+02  0.80154126227E+02  0.13749930663E+03  0.10515571958E+03 0.  0.
         -6    2    1    2    0  502 -0.21088061731E+02 -0.60586671155E+01  0.11750459703E+03  0.21043793099E+03  0.17319173964E+03 0.  0.
        -24    2    5    5    0    0 -0.27630716947E+02  0.62542458097E+02  0.84888256751E+02  0.13405183035E+03  0.78031157247E+02 0.  0.
          5    1    3    3  501    0  0.30515999646E+02 -0.30475755021E+02 -0.16534436479E+02  0.46427098425E+02  0.47000000000E+01 0. -1.
        -11    1    4    4    0    0 -0.30313943269E+02  0.51870005207E+02  0.77230219391E+01  0.60572911970E+02  0.00000000000E+00 0.  1.
         12    1    4    4    0    0  0.20886005354E+02 -0.15335583071E+02  0.72431104288E+02  0.76926394664E+02  0.00000000000E+00 0. -1.
         -5    1    5    5    0  502  0.65426552156E+01 -0.68601125212E+02  0.32616340283E+02  0.76386100641E+02  0.47000000000E+01 0.  1.
         11    1    6    6    0    0 -0.29209862828E+02  0.31222272992E+02  0.92393115319E+02  0.10180635626E+03  0.00000000000E+00 0. -1.
        -12    1    6    6    0    0  0.15791458812E+01  0.31320185105E+02 -0.75048585684E+01  0.32245474084E+02  0.00000000000E+00 0.  1.
</event>
<event>
12    1  0.1683022E-002  0.1785812E+03  0.7818608E-02  0.1171589E+00
         21   -1    0    0  501  502  0.00000000000E+00  0.00000000000E+00  0.12290877099E+03  0.12290877099E+03  0.00000000000E+00 0.  1.
         21   -1    0    0  502  503 -0.00000000000E+00 -0.00000000000E+00 -0.25206896974E+03  0.25206896974E+03  0.00000000000E+00 0.  1.
          6    2    1    2  501    0  0.38701909873E+02 -0.10533037664E+02 -0.95925760412E+02  0.20271404981E+03  0.17401853858E+03 0.  0.
         24    2    3    3    0    0  0.80702743766E+02 -0.46668370673E+02 -0.61019233784E+02  0.13706050505E+03  0.79820833617E+02 0.  0.
         -6    2    1    2    0  503 -0.38701909873E+02  0.10533037664E+02 -0.33234438337E+02  0.17226369091E+03  0.16419947809E+03 0.  0.
        -24    2    5    5    0    0 -0.76598566630E+02  0.14344385064E+02  0.13149887706E+02  0.11206170868E+03  0.79446870375E+02 0.  0.
          5    1    3    3  501    0 -0.42000833893E+02  0.36135333009E+02 -0.34906526629E+02  0.65653544768E+02  0.47000000000E+01 0. -1.
        -11    1    4    4    0    0  0.73000431669E+02 -0.29170745154E+02 -0.78543296187E+02  0.11112625600E+03  0.00000000000E+00 0.  1.
         12    1    4    4    0    0  0.77023120969E+01 -0.17497625519E+02  0.17524062404E+02  0.25934249045E+02  0.00000000000E+00 0. -1.
         -5    1    5    5    0  503  0.37896656757E+02 -0.38113474004E+01 -0.46384326044E+02  0.60201982234E+02  0.47000000000E+01 0.  1.
         11    1    6    6    0    0 -0.21335884630E+02 -0.16656728313E+01  0.42417450986E+02  0.47510362944E+02  0.00000000000E+00 0. -1.
        -12    1    6    6    0    0 -0.55262682000E+02  0.16010057895E+02 -0.29267563280E+02  0.64551345733E+02  0.00000000000E+00 0.  1.
</event>
<event>
12    1  0.1683022E-002  0.2237759E+03  0.7818608E-02  0.1131358E+00
         21   -1    0    0  503  502  0.00000000000E+00  0.00000000000E+00  0.17805611365E+03  0.17805611365E+03  0.00000000000E+00 0.  1.
         21   -1    0    0  501  503 -0.00000000000E+00 -0.00000000000E+00 -0.50950997073E+03  0.50950997073E+03  0.00000000000E+00 0.  1.
          6    2    1    2  501    0 -0.12833134998E+03  0.64225610197E+02 -0.39644285914E+03  0.45454415428E+03  0.16985165065E+03 0.  0.
         24    2    3    3    0    0 -0.12460026013E+02  0.64705674555E+02 -0.22430115882E+03  0.24698392406E+03  0.79674163476E+02 0.  0.
         -6    2    1    2    0  502  0.12833134998E+03 -0.64225610197E+02  0.64989002063E+02  0.23302193011E+03  0.17170260665E+03 0.  0.
        -24    2    5    5    0    0  0.15078498304E+03 -0.17470966793E+02  0.52969350648E+02  0.17957359676E+03  0.79997367174E+02 0.  0.
          5    1    3    3  501    0 -0.11587132397E+03 -0.48006435748E+00 -0.17214170032E+03  0.20756023022E+03  0.47000000000E+01 0. -1.
        -13    1    4    4    0    0  0.26024392290E+02 -0.15665764576E+01 -0.70047991371E+02  0.74742519699E+02  0.00000000000E+00 0.  1.
         14    1    4    4    0    0 -0.38484418303E+02  0.66272251012E+02 -0.15425316745E+03  0.17224140436E+03  0.00000000000E+00 0. -1.
         -5    1    5    5    0  502 -0.22453633058E+02 -0.46754643404E+02  0.12019651415E+02  0.53448333346E+02  0.47000000000E+01 0.  1.
         11    1    6    6    0    0  0.81423942512E+02 -0.75852990479E+00  0.68673235129E+02  0.10651970243E+03  0.00000000000E+00 0. -1.
        -12    1    6    6    0    0  0.69361040528E+02 -0.16712436888E+02 -0.15703884481E+02  0.73053894336E+02  0.00000000000E+00 0.  1.
</event>
<event>
12    1  0.1683022E-002  0.1887178E+03  0.7818608E-02  0.1163050E+00
         21   -1    0    0  503  502  0.00000000000E+00  0.00000000000E+00  0.11165110703E+04  0.11165110703E+04  0.00000000000E+00 0. -1.
         21   -1    0    0  501  503 -0.00000000000E+00 -0.00000000000E+00 -0.29722717856E+02  0.29722717856E+02  0.00000000000E+00 0. -1.
          6    2    1    2  501    0  0.30420129788E+02  0.12972218934E+02  0.47285504231E+03  0.50394997121E+03  0.17111405461E+03 0.  0.
         24    2    3    3    0    0 -0.40196783605E+02 -0.25758483597E+02  0.19394943066E+03  0.21361009110E+03  0.75720594790E+02 0.  0.
         -6    2    1    2    0  502 -0.30420129788E+02 -0.12972218934E+02  0.61393331012E+03  0.64228381693E+03  0.18579754965E+03 0.  0.
        -24    2    5    5    0    0  0.29807185220E+02  0.17566179006E+02  0.51760107555E+03  0.52454719290E+03  0.77729307394E+02 0.  0.
          5    1    3    3  501    0  0.70616913393E+02  0.38730702531E+02  0.27890561165E+03  0.29033988011E+03  0.47000000000E+01 0. -1.
        -13    1    4    4    0    0 -0.10397469846E+02  0.54905688518E+01  0.15504141308E+03  0.15548663446E+03  0.00000000000E+00 0.  1.
         14    1    4    4    0    0 -0.29799313759E+02 -0.31249052449E+02  0.38908017581E+02  0.58123456638E+02  0.00000000000E+00 0. -1.
         -5    1    5    5    0  502 -0.60227315008E+02 -0.30538397940E+02  0.96332234564E+02  0.11773662403E+03  0.47000000000E+01 0.  1.
         11    1    6    6    0    0 -0.33756332320E+01  0.38960465360E+02  0.35823840017E+03  0.36036656909E+03  0.00000000000E+00 0. -1.
        -12    1    6    6    0    0  0.33182818452E+02 -0.21394286354E+02  0.15936267538E+03  0.16418062380E+03  0.00000000000E+00 0.  1.
</event>
<event>
12    1  0.1683022E-002  0.2447322E+03  0.7818608E-02  0.1117058E+00
         21   -1    0    0  503  502  0.00000000000E+00  0.00000000000E+00  0.99405082453E+02  0.99405082453E+02  0.00000000000E+00 0. -1.
         21   -1    0    0  501  503 -0.00000000000E+00 -0.00000000000E+00 -0.60055109609E+03  0.60055109609E+03  0.00000000000E+00 0.  1.
          6    2    1    2  501    0 -0.16450983912E+03 -0.55298474229E+02 -0.22187775655E+03  0.32862803032E+03  0.16924903261E+03 0.  0.
         24    2    3    3    0    0 -0.43008860497E+02 -0.36038273507E+02 -0.17078194641E+03  0.19533768951E+03  0.76431802838E+02 0.  0.
         -6    2    1    2    0  502  0.16450983912E+03  0.55298474229E+02 -0.27926825708E+03  0.37132814822E+03  0.17254688009E+03 0.  0.
        -24    2    5    5    0    0  0.10542611081E+03  0.10266434170E+03 -0.16900238826E+03  0.23748098098E+03  0.78617919033E+02 0.  0.
          5    1    3    3  501    0 -0.12150097862E+03 -0.19260200722E+02 -0.51095810145E+02  0.13329034081E+03  0.47000000000E+01 0. -1.
        -13    1    4    4    0    0  0.13615839958E+02 -0.27672745848E+02 -0.98034860526E+02  0.10277161981E+03  0.00000000000E+00 0.  1.
         14    1    4    4    0    0 -0.56624700456E+02 -0.83655276593E+01 -0.72747085883E+02  0.92566069697E+02  0.00000000000E+00 0. -1.
         -5    1    5    5    0  502  0.59083728308E+02 -0.47365867467E+02 -0.11026586882E+03  0.13384716724E+03  0.47000000000E+01 0.  1.
         13    1    6    6    0    0  0.44194146093E+02 -0.23971900011E+01 -0.56929085093E+02  0.72109568008E+02  0.00000000000E+00 0. -1.
        -14    1    6    6    0    0  0.61231964722E+02  0.10506153170E+03 -0.11207330317E+03  0.16537141298E+03  0.00000000000E+00 0.  1.
</event>
<event>
12    1  0.1683022E-002  0.2060483E+03  0.7818608E-02  0.1145994E+00
         21   -1    0    0  501  502  0.00000000000E+00  0.00000000000E+00  0.19774064300E+03  0.19774064300E+03  0.00000000000E+00 0.  1.
         21   -1    0    0  502  503 -0.00000000000E+00 -0.00000000000E+00 -0.22031666942E+03  0.22031666942E+03  0.00000000000E+00 0. -1.
          6    2    1    2  501    0  0.39900794625E+02  0.99746728305E+02  0.37513185771E+02  0.20342595338E+03  0.16862205129E+03 0.  0.
         24    2    3    3    0    0  0.28428930304E+02 -0.12266557284E+02  0.12620681415E+02  0.88012320764E+02  0.81413847108E+02 0.  0.
         -6    2    1    2    0  503 -0.39900794625E+02 -0.99746728305E+02 -0.60089212199E+02  0.21463135904E+03  0.17582498015E+03 0.  0.
        -24    2    5    5    0    0 -0.70138053678E+02 -0.28563596906E+02 -0.79220613751E+02  0.13482264676E+03  0.78523975924E+02 0.  0.
          5    1    3    3  501    0  0.11471864321E+02  0.11201328559E+03  0.24892504356E+02  0.11541363261E+03  0.47000000000E+01 0. -1.
        -11    1    4    4    0    0  0.26951121459E+02  0.30867959328E+02  0.17538039360E+02  0.44573273220E+02  0.00000000000E+00 0.  1.
         12    1    4    4    0    0  0.14778088451E+01 -0.43134516612E+02 -0.49173579451E+01  0.43439047544E+02  0.00000000000E+00 0. -1.
         -5    1    5    5    0  503  0.30237259053E+02 -0.71183131399E+02  0.19131401552E+02  0.79808712282E+02  0.47000000000E+01 0.  1.
         13    1    6    6    0    0 -0.62919933147E+02 -0.41314891810E+02 -0.26021698122E+02  0.79642746346E+02  0.00000000000E+00 0. -1.
        -14    1    6    6    0    0 -0.72181205313E+01  0.12751294905E+02 -0.53198915629E+02  0.55179900416E+02  0.00000000000E+00 0.  1.
</event>
<event>
12    1  0.1683022E-002  0.2763271E+03  0.7818608E-02  0.1098229E+00
         21   -1    0    0  503  502  0.00000000000E+00  0.00000000000E+00  0.30502326820E+03  0.30502326820E+03  0.00000000000E+00 0. -1.
         21   -1    0    0  501  503 -0.00000000000E+00 -0.00000000000E+00 -0.43246985575E+03  0.43246985575E+03  0.00000000000E+00 0. -1.
          6    2    1    2  501    0 -0.18573203074E+03 -0.99467589781E+02 -0.30545384240E+03  0.41189649699E+03  0.17879173845E+03 0.  0.
         24    2    3    3    0    0 -0.70039091420E+02  0.20724761017E+02 -0.10429342261E+03  0.15051810866E+03  0.80271993792E+02 0.  0.
         -6    2    1    2    0  502  0.18573203074E+03  0.99467589781E+02  0.17800725485E+03  0.32559662696E+03  0.17302136298E+03 0.  0.
        -24    2    5    5    0    0  0.15848744688E+03  0.13387497703E+03  0.11900305482E+03  0.25190998456E+03  0.79095720316E+02 0.  0.
          5    1    3    3  501    0 -0.11569293932E+03 -0.12019235080E+03 -0.20116041978E+03  0.26137838833E+03  0.47000000000E+01 0. -1.
        -11    1    4    4    0    0  0.11214545077E+01 -0.21257943099E+02 -0.60086739002E+01  0.22119266875E+02  0.00000000000E+00 0.  1.
         12    1    4    4    0    0 -0.71160545928E+02  0.41982704117E+02 -0.98284748712E+02  0.12839884178E+03  0.00000000000E+00 0. -1.
         -5    1    5    5    0  502  0.27244583864E+02 -0.34407387248E+02  0.59004200026E+02  0.73686642398E+02  0.47000000000E+01 0.  1.
         13    1    6    6    0    0  0.91653836830E+02  0.87904981301E+02  0.28080866005E+02  0.13006247183E+03  0.00000000000E+00 0. -1.
        -14    1    6    6    0    0  0.66833610050E+02  0.45969995728E+02  0.90922188818E+02  0.12184751273E+03  0.00000000000E+00 0.  1.
</event>
<event>
12    1  0.1683022E-002  0.3140509E+03  0.7818608E-02  0.1078651E+00
         21   -1    0    0  501  502  0.00000000000E+00  0.00000000000E+00  0.20125059047E+03  0.20125059047E+03  0.00000000000E+00 0. -1.
         21   -1    0    0  502  503 -0.00000000000E+00 -0.00000000000E+00 -0.49242106755E+03  0.49242106755E+03  0.00000000000E+00 0.  1.
          6    2    1    2  501    0 -0.25172162297E+03  0.67309431095E+02 -0.18142241949E+03  0.36099674753E+03  0.17178539649E+03 0.  0.
         24    2    3    3    0    0 -0.81189361017E+02  0.18382300193E+02 -0.13472204208E+03  0.17748072165E+03  0.80123383794E+02 0.  0.
         -6    2    1    2    0  503  0.25172162297E+03 -0.67309431095E+02 -0.10974805760E+03  0.33267491050E+03  0.17531008225E+03 0.  0.
        -24    2    5    5    0    0  0.37916447431E+02  0.53204808068E+01 -0.38564958671E+02  0.95869334623E+02  0.78979166759E+02 0.  0.
          5    1    3    3  501    0 -0.17053226196E+03  0.48927130902E+02 -0.46700377403E+02  0.18351602588E+03  0.47000000000E+01 0. -1.
        -11    1    4    4    0    0 -0.68919146608E+02 -0.15792002905E+02 -0.11787016193E+03  0.13745039541E+03  0.00000000000E+00 0.  1.
         12    1    4    4    0    0 -0.12270214409E+02  0.34174303098E+02 -0.16851880150E+02  0.40030326234E+02  0.00000000000E+00 0. -1.
         -5    1    5    5    0  503  0.21380517554E+03 -0.72629911902E+02 -0.71183098925E+02  0.23680557587E+03  0.47000000000E+01 0.  1.
         13    1    6    6    0    0  0.82778974066E+01  0.48198834787E+01  0.24434198491E+02  0.26244712194E+02  0.00000000000E+00 0. -1.
        -14    1    6    6    0    0  0.29638550025E+02  0.50059732808E+00 -0.62999157162E+02  0.69624622429E+02  0.00000000000E+00 0.  1.
</event>
<event>
12    1  0.1683022E-002  0.1821484E+03  0.7818608E-02  0.1166136E+00
         21   -1    0    0  501  502  0.00000000000E+00  0.00000000000E+00  0.13021720835E+04  0.13021720835E+04  0.00000000000E+00 0.  1.
         21   -1    0    0  502  503 -0.00000000000E+00 -0.00000000000E+00 -0.33633503467E+02  0.33633503467E+02  0.00000000000E+00 0.  1.
          6    2    1    2  501    0 -0.44718950214E+02 -0.24252023713E+02  0.96992912619E+03  0.98688426766E+03  0.17490026517E+03 0.  0.
         24    2    3    3    0    0 -0.83582153337E+02 -0.36400673346E+02  0.88474403199E+03  0.89235105382E+03  0.72162426043E+02 0.  0.
         -6    2    1    2    0  503  0.44718950214E+02  0.24252023713E+02  0.29860945384E+03  0.34892131931E+03  0.17317775833E+03 0.  0.
        -24    2    5    5    0    0  0.47276356278E+02  0.35416945116E+02  0.31388309239E+03  0.32925994015E+03  0.80000616451E+02 0.  0.
          5    1    3    3  501    0  0.38863203124E+02  0.12148649633E+02  0.85185094205E+02  0.94533213844E+02  0.47000000000E+01 0. -1.
        -11    1    4    4    0    0 -0.52366324048E+02 -0.17242917405E+02  0.76846598619E+03  0.77044112172E+03  0.00000000000E+00 0.  1.
         12    1    4    4    0    0 -0.31215829289E+02 -0.19157755941E+02  0.11627804579E+03  0.12190993210E+03  0.00000000000E+00 0. -1.
         -5    1    5    5    0  503 -0.25574060642E+01 -0.11164921402E+02 -0.15273638554E+02  0.19661379157E+02  0.47000000000E+01 0.  1.
         11    1    6    6    0    0  0.20443989515E+02  0.56691015737E+02  0.14651796264E+03  0.15842771648E+03  0.00000000000E+00 0. -1.
        -12    1    6    6    0    0  0.26832366763E+02 -0.21274070621E+02  0.16736512975E+03  0.17083222367E+03  0.00000000000E+00 0.  1.
</event>
<event>
12    1  0.1683022E-002  0.2231379E+03  0.7818608E-02  0.1131586E+00
         21   -1    0    0  501  502  0.00000000000E+00  0.00000000000E+00  0.25364229699E+03  0.25364229699E+03  0.00000000000E+00 0. -1.
         21   -1    0    0  502  503 -0.00000000000E+00 -0.00000000000E+00 -0.19620080312E+03  0.19620080312E+03  0.00000000000E+00 0.  1.
          6    2    1    2  501    0  0.64874201016E+02  0.12519398016E+03  0.28441413757E+02  0.22494320863E+03  0.17294027428E+03 0.  0.
         24    2    3    3    0    0  0.88287716566E+01  0.49650379479E+02 -0.45254851523E+02  0.10535577086E+03  0.80676697233E+02 0.  0.
         -6    2    1    2    0  503 -0.64874201016E+02 -0.12519398016E+03  0.29000080113E+02  0.22489989149E+03  0.17279109329E+03 0.  0.
        -24    2    5    5    0    0 -0.42836974884E+02 -0.15203010379E+03  0.48636920809E+02  0.18473134186E+03  0.82534597128E+02 0.  0.
          5    1    3    3  501    0  0.56045429360E+02  0.75543600677E+02  0.73696265280E+02  0.11958743777E+03  0.47000000000E+01 0. -1.
        -13    1    4    4    0    0 -0.25958907859E+02  0.48787706229E+02 -0.10651365901E+02  0.56281051624E+02  0.00000000000E+00 0.  1.
         14    1    4    4    0    0  0.34787679516E+02  0.86267325073E+00 -0.34603485622E+02  0.49074719240E+02  0.00000000000E+00 0. -1.
         -5    1    5    5    0  503 -0.22037226133E+02  0.26836123630E+02 -0.19636840696E+02  0.40168549633E+02  0.47000000000E+01 0.  1.
         13    1    6    6    0    0 -0.64387973134E+02 -0.94744199185E+02  0.16917946562E+02  0.11579503996E+03  0.00000000000E+00 0. -1.
        -14    1    6    6    0    0  0.21550998251E+02 -0.57285904602E+02  0.31718974247E+02  0.68936301894E+02  0.00000000000E+00 0.  1.
</event>
<event>
12    1  0.1683022E-002  0.1952340E+03  0.7818608E-02  0.1154917E+00
         21   -1    0    0  503  502  0.00000000000E+00  0.00000000000E+00  0.41232963062E+03  0.41232963062E+03  0.00000000000E+00 0.  1.
         21   -1    0    0  501  503 -0.00000000000E+00 -0.00000000000E+00 -0.52731551048E+03  0.52731551048E+03  0.00000000000E+00 0.  1.
          6    2    1    2  501    0  0.16365203532E+02 -0.79023703321E+02 -0.48541411926E+03  0.52320472403E+03  0.17777443711E+03 0.  0.
         24    2    3    3    0    0 -0.33566118885E+02 -0.89761349247E+02 -0.42569430831E+03  0.44448382579E+03  0.84654846927E+02 0.  0.
         -6    2    1    2    0  502 -0.16365203532E+02  0.79023703321E+02  0.37042823940E+03  0.41644041708E+03  0.17231649619E+03 0.  0.
        -24    2    5    5    0    0  0.34415124079E+02  0.10298747868E+03  0.26045858933E+03  0.29287538101E+03  0.78399556866E+02 0.  0.
          5    1    3    3  501    0  0.49931322417E+02  0.10737645926E+02 -0.59719810951E+02  0.78720898232E+02  0.47000000000E+01 0. -1.
        -11    1    4    4    0    0 -0.55483243987E+02 -0.45942623756E+02 -0.17861948983E+03  0.19259812353E+03  0.00000000000E+00 0.  1.
         12    1    4    4    0    0  0.21917125102E+02 -0.43818725491E+02 -0.24707481848E+03  0.25188570226E+03  0.00000000000E+00 0. -1.
         -5    1    5    5    0  502 -0.50780327611E+02 -0.23963775358E+02  0.10996965007E+03  0.12356503607E+03  0.47000000000E+01 0.  1.
         13    1    6    6    0    0  0.33540538183E+02  0.48151811018E+01  0.89976712991E+02  0.96145527984E+02  0.00000000000E+00 0. -1.
        -14    1    6    6    0    0  0.87458589582E+00  0.98172297578E+02  0.17048187634E+03  0.19672985303E+03  0.00000000000E+00 0.  1.
</event>
<event>
12    1  0.1683022E-002  0.1761992E+03  0.7818608E-02  0.1172534E+00
         21   -1    0    0  503  502  0.00000000000E+00  0.00000000000E+00  0.24000934256E+03  0.24000934256E+03  0.00000000000E+00 0. -1.
         21   -1    0    0  501  503 -0.00000000000E+00 -0.00000000000E+00 -0.16673542242E+03  0.16673542242E+03  0.00000000000E+00 0. -1.
          6    2    1    2  501    0  0.36094701561E+02 -0.87511935506E+01 -0.63636217351E+02  0.18360683981E+03  0.16817399501E+03 0.  0.
         24    2    3    3    0    0  0.30629881704E+02 -0.69571701402E+02 -0.32993166248E+02  0.11512264447E+03  0.79914097383E+02 0.  0.
         -6    2    1    2    0  502 -0.36094701561E+02  0.87511935506E+01  0.13691013749E+03  0.22313792517E+03  0.17224034670E+03 0.  0.
        -24    2    5    5    0    0  0.38469004562E+02  0.36239677255E+02  0.62752636037E+02  0.11434092140E+03  0.79641537264E+02 0.  0.
          5    1    3    3  501    0  0.54648198574E+01  0.60820507852E+02 -0.30643051103E+02  0.68484195347E+02  0.47000000000E+01 0. -1.
        -13    1    4    4    0    0 -0.16203710231E+02  0.51284614570E+01  0.69085505157E+01  0.18346373276E+02  0.00000000000E+00 0.  1.
         14    1    4    4    0    0  0.46833591935E+02 -0.74700162859E+02 -0.39901716764E+02  0.96776271190E+02  0.00000000000E+00 0. -1.
         -5    1    5    5    0  502 -0.74563706124E+02 -0.27488483704E+02  0.74157501451E+02  0.10879700377E+03  0.47000000000E+01 0.  1.
         11    1    6    6    0    0  0.39997006424E+02 -0.13996645921E+02  0.42907610015E+02  0.60305303391E+02  0.00000000000E+00 0. -1.
        -12    1    6    6    0    0 -0.15280018613E+01  0.50236323176E+02  0.19845026022E+02  0.54035618010E+02  0.00000000000E+00 0.  1.
</event>
<event>
12    1  0.1683022E-002  0.2099007E+03  0.7818608E-02  0.1142560E+00
         21   -1    0    0  501  502  0.00000000000E+00  0.00000000000E+00  0.26705377891E+02  0.26705377891E+02  0.00000000000E+00 0. -1.
         21   -1    0    0  502  503 -0.00000000000E+00 -0.00000000000E+00 -0.28031929247E+04  0.28031929247E+04  0.00000000000E+00 0.  1.
          6    2    1    2  501    0  0.72540674294E+02 -0.90089023802E+02 -0.45791591664E+03  0.50184489010E+03  0.16965590285E+03 0.  0.
         24    2    3    3    0    0  0.77889715020E+02 -0.79294007383E+02 -0.19329805585E+03  0.23691122508E+03  0.80052750470E+02 0.  0.
         -6    2    1    2    0  503 -0.72540674294E+02  0.90089023802E+02 -0.23185716301E+04  0.23280534124E+04  0.17515737365E+03 0.  0.
        -24    2    5    5    0    0 -0.43376202201E+02  0.10153009548E+03 -0.11017556478E+04  0.11108251309E+04  0.88753077547E+02 0.  0.
          5    1    3    3  501    0 -0.53490407265E+01 -0.10795016420E+02 -0.26461786078E+03  0.26493366502E+03  0.47000000000E+01 0. -1.
        -11    1    4    4    0    0  0.39580947488E+02 -0.87166957397E+02 -0.15494960012E+03  0.18213760854E+03  0.00000000000E+00 0.  1.
         12    1    4    4    0    0  0.38308767533E+02  0.78729500142E+01 -0.38348455732E+02  0.54773616540E+02  0.00000000000E+00 0. -1.
         -5    1    5    5    0  503 -0.29164472093E+02 -0.11441071679E+02 -0.12168159823E+04  0.12172282815E+04  0.47000000000E+01 0.  1.
         11    1    6    6    0    0 -0.66004193130E+02  0.72782411149E+02 -0.62588234288E+03  0.63354758307E+03  0.00000000000E+00 0. -1.
        -12    1    6    6    0    0  0.22627990930E+02  0.28747684332E+02 -0.47587330496E+03  0.47727754788E+03  0.00000000000E+00 0.  1.
</event>
<event>
12    1  0.1683022E-002  0.1751364E+03  0.7818608E-02  0.1172989E+00
         21   -1    0    0  503  502  0.00000000000E+00  0.00000000000E+00  0.19411520947E+03  0.19411520947E+03  0.00000000000E+00 0. -1.
         21   -1    0    0  501  503 -0.00000000000E+00 -0.00000000000E+00 -0.16328284576E+03  0.16328284576E+03  0.00000000000E+00 0. -1.
          6    2    1    2  501    0 -0.15845368262E+02 -0.29278025838E+02 -0.20790460692E+02  0.17481198922E+03  0.17034878875E+03 0.  0.
         24    2    3    3    0    0  0.33299464592E+02 -0.57295692292E+02 -0.33543147009E+02  0.11663187889E+03  0.89923310466E+02 0.  0.
         -6    2    1    2    0  502  0.15845368262E+02  0.29278025838E+02  0.51622824405E+02  0.18258606601E+03  0.17194323775E+03 0.  0.
        -24    2    5    5    0    0  0.48874087600E+02 -0.34226608141E+02  0.14603869482E+02  0.10186291034E+03  0.81256644991E+02 0.  0.
          5    1    3    3  501    0 -0.49144832854E+02  0.28017666454E+02  0.12752686317E+02  0.58180110331E+02  0.47000000000E+01 0. -1.
        -13    1    4    4    0    0 -0.30498698723E+00 -0.24920902681E+01 -0.50168154210E+02  0.50230938950E+02  0.00000000000E+00 0.  1.
         14    1    4    4    0    0  0.33604451580E+02 -0.54803602023E+02  0.16625007201E+02  0.66400939942E+02  0.00000000000E+00 0. -1.
         -5    1    5    5    0  502 -0.33028719338E+02  0.63504633979E+02  0.37018954924E+02  0.80723155671E+02  0.47000000000E+01 0.  1.
         11    1    6    6    0    0 -0.18918778218E+02 -0.16353219484E+02 -0.10872341270E+02  0.27268218891E+02  0.00000000000E+00 0. -1.
        -12    1    6    6    0    0  0.67792865818E+02 -0.17873388657E+02  0.25476210752E+02  0.74594691448E+02  0.00000000000E+00 0.  1.
</event>
<event>
12    1  0.1683022E-002  0.1784176E+03  0.7818608E-02  0.1169558E+00
         21   -1    0    0  501  502  0.00000000000E+00  0.00000000000E+00  0.33883103206E+03  0.33883103206E+03  0.00000000000E+00 0.  1.
         21   -1    0    0  502  503 -0.00000000000E+00 -0.00000000000E+00 -0.10983522633E+03  0.10983522633E+03  0.00000000000E+00 0.  1.
          6    2    1    2  501    0 -0.34003443881E+02  0.32190282392E+02  0.20079969730E+03  0.26803446178E+03  0.17125859333E+03 0.  0.
         24    2    3    3    0    0 -0.20251874527E+02 -0.46414775418E+02  0.13523687260E+03  0.16464957528E+03  0.79094886882E+02 0.  0.
         -6    2    1    2    0  503  0.34003443881E+02 -0.32190282392E+02  0.28196108431E+02  0.18063179662E+03  0.17216380846E+03 0.  0.
        -24    2    5    5    0    0  0.45215978833E+02  0.19305513610E+02 -0.30664815941E+02  0.10148486766E+03  0.83316623971E+02 0.  0.
          5    1    3    3  501    0 -0.13751569354E+02  0.78605057810E+02  0.65562824703E+02  0.10338488650E+03  0.47000000000E+01 0. -1.
        -13    1    4    4    0    0 -0.29155191528E+02 -0.56703559680E+02  0.13682439219E+03  0.15095109530E+03  0.00000000000E+00 0.  1.
         14    1    4    4    0    0  0.89033170006E+01  0.10288784262E+02 -0.15875195982E+01  0.13698479977E+02  0.00000000000E+00 0. -1.
         -5    1    5    5    0  503 -0.11212534952E+02 -0.51495796001E+02  0.58860924371E+02  0.79146928959E+02  0.47000000000E+01 0.  1.
         11    1    6    6    0    0 -0.66349021398E+01  0.89379472393E+01  0.23367887916E+02  0.25883721002E+02  0.00000000000E+00 0. -1.
        -12    1    6    6    0    0  0.51850880973E+02  0.10367566370E+02 -0.54032703857E+02  0.75601146659E+02  0.00000000000E+00 0.  1.
</event>
<event>
12    1  0.1683022E-002  0.2570510E+03  0.7818608E-02  0.1109006E+00
         21   -1    0    0  501  502  0.00000000000E+00  0.00000000000E+00  0.33763072994E+03  0.33763072994E+03  0.00000000000E+00 0. -1.
         21   -1    0    0  502  503 -0.00000000000E+00 -0.00000000000E+00 -0.34059455074E+03  0.34059455074E+03  0.00000000000E+00 0.  1.
          6    2    1    2  501    0 -0.19036122917E+03 -0.17780850632E+02  0.21999335199E+03  0.33833754428E+03  0.17181869143E+03 0.  0.
         24    2    3    3    0    0 -0.17812101008E+03  0.44650365528E+01  0.23730525697E+03  0.30724904940E+03  0.79631417084E+02 0.  0.
         -6    2    1    2    0  503  0.19036122917E+03  0.17780850632E+02 -0.22295717280E+03  0.33988773640E+03  0.17105617858E+03 0.  0.
        -24    2    5    5    0    0  0.12745946407E+03  0.52473214848E+02 -0.76414270825E+02  0.17661770147E+03  0.79720251056E+02 0.  0.
          5    1    3    3  501    0 -0.12240219088E+02 -0.22245887185E+02 -0.17311904975E+02  0.31088494879E+02  0.47000000000E+01 0. -1.
        -11    1    4    4    0    0 -0.19203726676E+02  0.24730242338E+02  0.19557784216E+02  0.36917135964E+02  0.00000000000E+00 0.  1.
         12    1    4    4    0    0 -0.15891728341E+03 -0.20265205785E+02  0.21774747275E+03  0.27033191344E+03  0.00000000000E+00 0. -1.
         -5    1    5    5    0  503  0.62901765101E+02 -0.34692364216E+02 -0.14654290197E+03  0.16327003493E+03  0.47000000000E+01 0.  1.
         13    1    6    6    0    0 -0.84423048193E+01  0.92045331939E+01  0.37093274394E+01  0.13029008099E+02  0.00000000000E+00 0. -1.
        -14    1    6    6    0    0  0.13590176889E+03  0.43268681654E+02 -0.80123598264E+02  0.16358869337E+03  0.00000000000E+00 0.  1.
</event>
<event>
12    1  0.1683022E-002  0.2146937E+03  0.7818608E-02  0.1138955E+00
         21   -1    0    0  501  502  0.00000000000E+00  0.00000000000E+00  0.27760526084E+03  0.27760526084E+03  0.00000000000E+00 0.  1.
         21   -1    0    0  502  503 -0.00000000000E+00 -0.00000000000E+00 -0.17677377342E+03  0.17677377342E+03  0.00000000000E+00 0.  1.
          6    2    1    2  501    0  0.11429471072E+03 -0.57675522118E+02 -0.14914258361E+02  0.21521114363E+03  0.17234748182E+03 0.  0.
         24    2    3    3    0    0  0.72811643629E+02 -0.22820381924E+02 -0.75525683981E+02  0.13377674937E+03  0.79810929403E+02 0.  0.
         -6    2    1    2    0  503 -0.11429471072E+03  0.57675522118E+02  0.11574574578E+03  0.23916789063E+03  0.16557311223E+03 0.  0.
        -24    2    5    5    0    0 -0.98012473202E+02 -0.25396851667E+02  0.61114439771E+02  0.13830759051E+03  0.71711713592E+02 0.  0.
          5    1    3    3  501    0  0.41483067093E+02 -0.34855140193E+02  0.60611425620E+02  0.81434394263E+02  0.47000000000E+01 0. -1.
        -11    1    4    4    0    0  0.52684349955E+02  0.23644645076E+02 -0.52902083591E+02  0.78315646069E+02  0.00000000000E+00 0.  1.
         12    1    4    4    0    0  0.20127293674E+02 -0.46465027000E+02 -0.22623600390E+02  0.55461103301E+02  0.00000000000E+00 0. -1.
         -5    1    5    5    0  503 -0.16282237520E+02  0.83072373785E+02  0.54631306007E+02  0.10086030012E+03  0.47000000000E+01 0.  1.
         11    1    6    6    0    0 -0.16593689875E+02  0.52633374051E+01  0.47063416529E+02  0.50179860897E+02  0.00000000000E+00 0. -1.
        -12    1    6    6    0    0 -0.81418783327E+02 -0.30660189072E+02  0.14051023242E+02  0.88127729612E+02  0.00000000000E+00 0.  1.
</event>
<event>
12    1  0.1683022E-002  0.2218302E+03  0.7818608E-02  0.1134821E+00
         21   -1    0    0  503  502  0.00000000000E+00  0.00000000000E+00  0.11806768144E+03  0.11806768144E+03  0.00000000000E+00 0. -1.
         21   -1    0    0  501  503 -0.00000000000E+00 -0.00000000000E+00 -0.47008983625E+03  0.47008983625E+03  0.00000000000E+00 0.  1.
          6    2    1    2  501    0 -0.44627118382E+02 -0.13424812132E+03 -0.53912404938E+02  0.21656895881E+03  0.15485938377E+03 0.  0.
         24    2    3    3    0    0 -0.73554078953E+02 -0.74145250280E+02 -0.67931981211E+02  0.14824793222E+03  0.80342856979E+02 0.  0.
         -6    2    1    2    0  502  0.44627118382E+02  0.13424812132E+03 -0.29810974987E+03  0.37158855889E+03  0.17086397032E+03 0.  0.
        -24    2    5    5    0    0  0.25852035530E+02  0.12014284754E+02 -0.55072379138E+02  0.98856331030E+02  0.76986599234E+02 0.  0.
          5    1    3    3  501    0  0.28926960572E+02 -0.60102871040E+02  0.14019576273E+02  0.68321026588E+02  0.47000000000E+01 0. -1.
        -11    1    4    4    0    0 -0.68209736219E+01 -0.44442137990E+02 -0.59704069371E+02  0.74740920584E+02  0.00000000000E+00 0.  1.
         12    1    4    4    0    0 -0.66733105332E+02 -0.29703112290E+02 -0.82279118394E+01  0.73507011639E+02  0.00000000000E+00 0. -1.
         -5    1    5    5    0  502  0.18775082852E+02  0.12223383657E+03 -0.24303737073E+03  0.27273222786E+03  0.47000000000E+01 0.  1.
         11    1    6    6    0    0  0.39004907866E+01 -0.20706935946E+02 -0.55591129385E+02  0.59450523050E+02  0.00000000000E+00 0. -1.
        -12    1    6    6    0    0  0.21951544743E+02  0.32721220700E+02  0.51875024709E+00  0.39405807980E+02  0.00000000000E+00 0.  1.
</event>
<event>
12    1  0.1683022E-002  0.1843738E+03  0.7818608E-02  0.1163826E+00
         21   -1    0    0  501  502  0.00000000000E+00  0.00000000000E+00  0.10844062573E+03  0.10844062573E+03  0.00000000000E+00 0.  1.
         21   -1    0    0  502  503 -0.00000000000E+00 -0.00000000000E+00 -0.31893703620E+03  0.31893703620E+03  0.00000000000E+00 0.  1.
          6    2    1    2  501    0  0.60244695382E+02  0.24818270087E+02 -0.13675976108E+03  0.22955809484E+03  0.17247700370E+03 0.  0.
         24    2    3    3    0    0 -0.23887268923E+02  0.58345740155E+01 -0.11271197252E+03  0.13989787920E+03  0.79137753217E+02 0.  0.
         -6    2    1    2    0  503 -0.60244695382E+02 -0.24818270087E+02 -0.73736649395E+02  0.19781956709E+03  0.17161036626E+03 0.  0.
        -24    2    5    5    0    0 -0.78639919466E+02  0.15692489149E+02 -0.94669504294E+02  0.14842543487E+03  0.81469647870E+02 0.  0.
          5    1    3    3  501    0  0.84131964305E+02  0.18983696072E+02 -0.24047788558E+02  0.89660215642E+02  0.47000000000E+01 0. -1.
        -13    1    4    4    0    0  0.82223992023E+01 -0.29452342307E+02 -0.22908844739E+02  0.38208159905E+02  0.00000000000E+00 0.  1.
         14    1    4    4    0    0 -0.32109668126E+02  0.35286916323E+02 -0.89803127784E+02  0.10168971930E+03  0.00000000000E+00 0. -1.
         -5    1    5    5    0  503  0.18395224085E+02 -0.40510759237E+02  0.20932854899E+02  0.49394132215E+02  0.47000000000E+01 0.  1.
         13    1    6    6    0    0 -0.31765713999E+02 -0.22288845547E+02 -0.75896462871E+02  0.85241576112E+02  0.00000000000E+00 0. -1.
        -14    1    6    6    0    0 -0.46874205468E+02  0.37981334696E+02 -0.18773041423E+02  0.63183858760E+02  0.00000000000E+00 0.  1.
</event>
<event>
12    1  0.1683022E-002  0.2406250E+03  0.7818608E-02  0.1119896E+00
         21   -1    0    0  503  502  0.00000000000E+00  0.00000000000E+00  0.11420670875E+03  0.11420670875E+03  0.00000000000E+00 0.  1.
         21   -1    0    0  501  503 -0.00000000000E+00 -0.00000000000E+00 -0.78598808276E+03  0.78598808276E+03  0.00000000000E+00 0.  1.
          6    2    1    2  501    0  0.51725991891E+02  0.15749508664E+03 -0.60855836945E+03  0.65440328970E+03  0.17441357741E+03 0.  0.
         24    2    3    3    0    0 -0.21423945476E+01  0.77324048332E+02 -0.48443514612E+03  0.49705697417E+03  0.80028910191E+02 0.  0.
         -6    2    1    2    0  502 -0.51725991891E+02 -0.15749508664E+03 -0.63223004557E+02  0.24579150182E+03  0.17010594789E+03 0.  0.
        -24    2    5    5    0    0  0.11383681453E+02 -0.24154256794E+02  0.29531849490E+01  0.84038647650E+02  0.79628868338E+02 0.  0.
          5    1    3    3  501    0  0.53868386439E+02  0.80171038309E+02 -0.12412322333E+03  0.15734631553E+03  0.47000000000E+01 0. -1.
        -13    1    4    4    0    0  0.18788230961E+02  0.73755282229E+01 -0.26554173330E+03  0.26630773208E+03  0.00000000000E+00 0.  1.
         14    1    4    4    0    0 -0.20930625509E+02  0.69948520109E+02 -0.21889341282E+03  0.23074924209E+03  0.00000000000E+00 0. -1.
         -5    1    5    5    0  502 -0.63109673344E+02 -0.13334082985E+03 -0.66176189506E+02  0.16175285417E+03  0.47000000000E+01 0.  1.
         11    1    6    6    0    0  0.32199599857E+02 -0.28217866338E+02 -0.24514469793E+02  0.49335802830E+02  0.00000000000E+00 0. -1.
        -12    1    6    6    0    0 -0.20815918405E+02  0.40636095433E+01  0.27467654742E+02  0.34702844820E+02  0.00000000000E+00 0.  1.
</event>
<event>
12    1  0.1683022E-002  0.2013067E+03  0.7818608E-02  0.1148752E+00
         21   -1    0    0  501  502  0.00000000000E+00  0.00000000000E+00  0.10487644766E+04  0.10487644766E+04  0.00000000000E+00 0.  1.
         21   -1    0    0  502  503 -0.00000000000E+00 -0.00000000000E+00 -0.41127614276E+02  0.41127614276E+02  0.00000000000E+00 0.  1.
          6    2    1    2  501    0 -0.10015927209E+03 -0.28957242781E+02  0.36770608189E+03  0.41920417431E+03  0.17220329673E+03 0.  0.
         24    2    3    3    0    0 -0.52621238450E+02 -0.34788726424E+00  0.34651246490E+03  0.35962549300E+03  0.80563584357E+02 0.  0.
         -6    2    1    2    0  503  0.10015927209E+03  0.28957242781E+02  0.63993078040E+03  0.67068791653E+03  0.17158227177E+03 0.  0.
        -24    2    5    5    0    0  0.13792622863E+03  0.30768710834E+02  0.53170339468E+03  0.55594959930E+03  0.80006868050E+02 0.  0.
          5    1    3    3  501    0 -0.47538033639E+02 -0.28609355516E+02  0.21193616995E+02  0.59578681310E+02  0.47000000000E+01 0. -1.
        -13    1    4    4    0    0 -0.60878973996E+02 -0.15899529569E+02  0.15469801574E+03  0.16700455260E+03  0.00000000000E+00 0.  1.
         14    1    4    4    0    0  0.82577355457E+01  0.15551642304E+02  0.19181444916E+03  0.19262094040E+03  0.00000000000E+00 0. -1.
         -5    1    5    5    0  503 -0.37766956536E+02 -0.18114680537E+01  0.10822738571E+03  0.11473831723E+03  0.47000000000E+01 0.  1.
         13    1    6    6    0    0  0.10813980761E+02  0.27369810624E+02  0.17041550756E+03  0.17293783256E+03  0.00000000000E+00 0. -1.
        -14    1    6    6    0    0  0.12711224786E+03  0.33989002106E+01  0.36128788712E+03  0.38301176674E+03  0.00000000000E+00 0.  1.
</event>
<event>
12    1  0.1683022E-002  0.1808014E+03  0.7818608E-02  0.1167107E+00
         21   -1    0    0  501  502  0.00000000000E+00  0.00000000000E+00  0.24699866699E+03  0.24699866699E+03  0.00000000000E+00 0. -1.
         21   -1    0    0  502  503 -0.00000000000E+00 -0.00000000000E+00 -0.16115236781E+03  0.16115236781E+03  0.00000000000E+00 0.  1.
          6    2    1    2  501    0  0.19897076548E+02 -0.52396755193E+02  0.12958781069E+03  0.22244584329E+03  0.17189484841E+03 0.  0.
         24    2    3    3    0    0 -0.18746874033E+02  0.28409463800E+01  0.61747293516E+01  0.81742477177E+02  0.79272877014E+02 0.  0.
         -6    2    1    2    0  503 -0.19897076548E+02  0.52396755193E+02 -0.43741511501E+02  0.18570519151E+03  0.17155694307E+03 0.  0.
        -24    2    5    5    0    0  0.25282168866E+02  0.25850245142E+02  0.28272844805E+02  0.96519772714E+02  0.84907535206E+02 0.  0.
          5    1    3    3  501    0  0.38643950580E+02 -0.55237701573E+02  0.12341308133E+03  0.14070336611E+03  0.47000000000E+01 0. -1.
        -11    1    4    4    0    0  0.16131341199E+02  0.31985227693E+02  0.57978059502E+01  0.36288972337E+02  0.00000000000E+00 0.  1.
         12    1    4    4    0    0 -0.34878215231E+02 -0.29144281313E+02  0.37692340137E+00  0.45453504840E+02  0.00000000000E+00 0. -1.
         -5    1    5    5    0  503 -0.45179245414E+02  0.26546510051E+02 -0.72014356307E+02  0.89185418799E+02  0.47000000000E+01 0.  1.
         13    1    6    6    0    0 -0.16989950809E+02 -0.18120139466E+02  0.25296165975E+02  0.35452699415E+02  0.00000000000E+00 0. -1.
        -14    1    6    6    0    0  0.42272119675E+02  0.43970384608E+02  0.29766788307E+01  0.61067073299E+02  0.00000000000E+00 0.  1.
</event>
<event>
12    1  0.1683022E-002  0.2325088E+03  0.7818608E-02  0.1126439E+00
         21   -1    0    0  501  502  0.00000000000E+00  0.00000000000E+00  0.67131752352E+03  0.67131752352E+03  0.00000000000E+00 0. -1.
         21   -1    0    0  502  503 -0.00000000000E+00 -0.00000000000E+00 -0.78196828444E+02  0.78196828444E+02  0.00000000000E+00 0.  1.
          6    2    1    2  501    0 -0.13755865354E+03  0.40394325014E+02  0.26738803394E+03  0.35433981760E+03  0.18304715509E+03 0.  0.
         24    2    3    3    0    0 -0.12272340916E+03  0.90732499944E+02  0.23639310537E+03  0.29321051262E+03  0.82445635050E+02 0.  0.
         -6    2    1    2    0  503  0.13755865354E+03 -0.40394325014E+02  0.32573266114E+03  0.39517453437E+03  0.17177619574E+03 0.  0.
        -24    2    5    5    0    0  0.82428319806E+02 -0.90997860617E+02  0.23982700203E+03  0.28114846814E+03  0.80327029638E+02 0.  0.
          5    1    3    3  501    0 -0.14835244381E+02 -0.50338174930E+02  0.30994928564E+02  0.61129304983E+02  0.47000000000E+01 0. -1.
        -11    1    4    4    0    0 -0.91557008531E+02  0.16951356430E+02  0.11905317026E+03  0.15114129696E+03  0.00000000000E+00 0.  1.
         12    1    4    4    0    0 -0.31166400625E+02  0.73781143514E+02  0.11733993511E+03  0.14206921566E+03  0.00000000000E+00 0. -1.
         -5    1    5    5    0  503  0.55130333730E+02  0.50603535603E+02  0.85905659106E+02  0.11402606623E+03  0.47000000000E+01 0.  1.
         13    1    6    6    0    0  0.97580773057E+02 -0.87147737298E+02  0.20874052109E+03  0.24635206623E+03  0.00000000000E+00 0. -1.
        -14    1    6    6    0    0 -0.15152453251E+02 -0.38501233193E+01  0.31086480937E+02  0.34796401914E+02  0.00000000000E+00 0.  1.
</event>
<event>
12    1  0.1683022E-002  0.2771105E+03  0.7818608E-02  0.1097486E+00
         21   -1    0    0  501  502  0.00000000000E+00  0.00000000000E+00  0.45325941918E+03  0.45325941918E+03  0.00000000000E+00 0.  1.
         21   -1    0    0  502  503 -0.00000000000E+00 -0.00000000000E+00 -0.20553419090E+03  0.20553419090E+03  0.00000000000E+00 0.  1.
          6    2    1    2  501    0 -0.72678395778E+02  0.20359055062E+03  0.26340429676E+03  0.38123990725E+03  0.17097011965E+03 0.  0.
         24    2    3    3    0    0 -0.85154814932E+02  0.59038639735E+02  0.12411721154E+03  0.18005865046E+03  0.79240973715E+02 0.  0.
         -6    2    1    2    0  503  0.72678395778E+02 -0.20359055062E+03 -0.15679068475E+02  0.27755370283E+03  0.17337520944E+03 0.  0.
        -24    2    5    5    0    0  0.59944841449E+02 -0.32512823239E+02  0.11138049569E+01  0.10511872142E+03  0.79988982621E+02 0.  0.
          5    1    3    3  501    0  0.12476419154E+02  0.14455191089E+03  0.13928708522E+03  0.20118125679E+03  0.47000000000E+01 0. -1.
        -13    1    4    4    0    0 -0.91802225088E+02  0.66877319533E+02  0.12597207797E+03  0.16961482490E+03  0.00000000000E+00 0.  1.
         14    1    4    4    0    0  0.66474101554E+01 -0.78386797981E+01 -0.18548664263E+01  0.10443825554E+02  0.00000000000E+00 0. -1.
         -5    1    5    5    0  503  0.12733554329E+02 -0.17107772738E+03 -0.16792873432E+02  0.17243498140E+03  0.47000000000E+01 0.  1.
         11    1    6    6    0    0  0.52123572906E+02 -0.18612344012E+02 -0.35106600659E+02  0.65542044612E+02  0.00000000000E+00 0. -1.
        -12    1    6    6    0    0  0.78212685426E+01 -0.13900479228E+02  0.36220405616E+02  0.39576676811E+02  0.00000000000E+00 0.  1.
</event>
<event>
12    1  0.1683022E-002  0.1796030E+03  0.7818608E-02  0.1168329E+00
         21   -1    0    0  501  502  0.00000000000E+00  0.00000000000E+00  0.40326051153E+03  0.40326051153E+03  0.00000000000E+00 0. -1.
         21   -1    0    0  502  503 -0.00000000000E+00 -0.00000000000E+00 -0.91780192618E+02  0.91780192618E+02  0.00000000000E+00 0.  1.
          6    2    1    2  501    0 -0.47655532877E+02  0.19190404158E+02  0.66282571600E+02  0.19144347241E+03  0.17209852528E+03 0.  0.
         24    2    3    3    0    0 -0.55034491693E+01 -0.42944861600E+02 -0.25890181967E+01  0.89448495607E+02  0.78229030804E+02 0.  0.
         -6    2    1    2    0  503  0.47655532877E+02 -0.19190404158E+02  0.24519774731E+03  0.30359723174E+03  0.17149350543E+03 0.  0.
        -24    2    5    5    0    0  0.19436828675E+02 -0.59192503771E+01  0.31078435494E+02  0.87168055140E+02  0.78864268526E+02 0.  0.
          5    1    3    3  501    0 -0.42152083707E+02  0.62135265758E+02  0.68871589797E+02  0.10199497680E+03  0.47000000000E+01 0. -1.
        -11    1    4    4    0    0 -0.56339852632E+01 -0.64061950372E+02 -0.13451587187E+02  0.65700992940E+02  0.00000000000E+00 0.  1.
         12    1    4    4    0    0  0.13053609387E+00  0.21117088772E+02  0.10862568990E+02  0.23747502667E+02  0.00000000000E+00 0. -1.
         -5    1    5    5    0  503  0.28218704201E+02 -0.13271153781E+02  0.21411931182E+03  0.21642917660E+03  0.47000000000E+01 0.  1.
         11    1    6    6    0    0 -0.13034745450E+02  0.71843031626E+00  0.48148862762E+02  0.49887209948E+02  0.00000000000E+00 0. -1.
        -12    1    6    6    0    0  0.32471574126E+02 -0.66376806934E+01 -0.17070427268E+02  0.37280845193E+02  0.00000000000E+00 0.  1.
</event>
<event>
12    1  0.1683022E-002  0.1903519E+03  0.7818608E-02  0.1158164E+00
         21   -1    0    0  503  502  0.00000000000E+00  0.00000000000E+00  0.14239967865E+03  0.14239967865E+03  0.00000000000E+00 0.  1.
         21   -1    0    0  501  503 -0.00000000000E+00 -0.00000000000E+00 -0.28982861698E+03  0.28982861698E+03  0.00000000000E+00 0. -1.
          6    2    1    2  501    0 -0.18561196224E+02 -0.80293193082E+02 -0.14932794388E+03  0.24186689541E+03  0.17149124004E+03 0.  0.
         24    2    3    3    0    0 -0.69061913142E+02 -0.12908843198E+02 -0.82050251650E+02  0.13398107201E+03  0.79262209043E+02 0.  0.
         -6    2    1    2    0  502  0.18561196224E+02  0.80293193082E+02  0.18990055545E+01  0.19036140021E+03  0.17158770821E+03 0.  0.
        -24    2    5    5    0    0  0.37681152442E+02  0.47897876401E+02 -0.61403756562E+02  0.11657550074E+03  0.78136740658E+02 0.  0.
          5    1    3    3  501    0  0.50500716918E+02 -0.67384349885E+02 -0.67277692232E+02  0.10788582340E+03  0.47000000000E+01 0. -1.
        -13    1    4    4    0    0 -0.49785623863E+02 -0.31800268815E+01 -0.96060299112E+02  0.10824186796E+03  0.00000000000E+00 0.  1.
         14    1    4    4    0    0 -0.19276289279E+02 -0.97288163163E+01  0.14010047462E+02  0.25739204051E+02  0.00000000000E+00 0. -1.
         -5    1    5    5    0  502 -0.19119956217E+02  0.32395316681E+02  0.63302762116E+02  0.73785899467E+02  0.47000000000E+01 0.  1.
         11    1    6    6    0    0 -0.25218223802E+01  0.48308679165E+02 -0.69252777139E+01  0.48867653333E+02  0.00000000000E+00 0. -1.
        -12    1    6    6    0    0  0.40202974822E+02 -0.41080276397E+00 -0.54478478848E+02  0.67707847411E+02  0.00000000000E+00 0.  1.
</event>
<event>
12    1  0.1683022E-002  0.1953760E+03  0.7818608E-02  0.1153812E+00
         21   -1    0    0  503  502  0.00000000000E+00  0.00000000000E+00  0.35717426736E+03  0.35717426736E+03  0.00000000000E+00 0. -1.
         21   -1    0    0  501  503 -0.00000000000E+00 -0.00000000000E+00 -0.12256489445E+03  0.12256489445E+03  0.00000000000E+00 0. -1.
          6    2    1    2  501    0 -0.14538019039E+02  0.90017669511E+02  0.30570321366E+02  0.19724365523E+03  0.17220911753E+03 0.  0.
         24    2    3    3    0    0 -0.32610703650E+02  0.90715469150E+02  0.77659892949E+02  0.14658177010E+03  0.78500968257E+02 0.  0.
         -6    2    1    2    0  502  0.14538019039E+02 -0.90017669511E+02  0.20403905154E+03  0.28249550658E+03  0.17279248208E+03 0.  0.
        -24    2    5    5    0    0 -0.57993562874E+02 -0.65207074691E+02  0.14695459596E+03  0.18680265910E+03  0.75394722953E+02 0.  0.
          5    1    3    3  501    0  0.18072684611E+02 -0.69779963940E+00 -0.47089571582E+02  0.50661885133E+02  0.47000000000E+01 0. -1.
        -13    1    4    4    0    0 -0.34740789321E+02  0.11941634749E+02  0.52077512818E+02  0.63730623914E+02  0.00000000000E+00 0.  1.
         14    1    4    4    0    0  0.21300856710E+01  0.78773834401E+02  0.25582380131E+02  0.82851146186E+02  0.00000000000E+00 0. -1.
         -5    1    5    5    0  502  0.72531581913E+02 -0.24810594819E+02  0.57084455582E+02  0.95692847482E+02  0.47000000000E+01 0.  1.
         13    1    6    6    0    0 -0.26932789585E+02 -0.64887784282E+02  0.13737368448E+03  0.15429623745E+03  0.00000000000E+00 0. -1.
        -14    1    6    6    0    0 -0.31060773289E+02 -0.31929040893E+00  0.95809114783E+01  0.32506421649E+02  0.00000000000E+00 0.  1.
</event>
<event>
12    1  0.1683022E-002  0.2275178E+03  0.7818608E-02  0.1128491E+00
         21   -1    0    0  501  502  0.00000000000E+00  0.00000000000E+00  0.64605877078E+03  0.64605877078E+03  0.00000000000E+00 0.  1.
         21   -1    0    0  502  503 -0.00000000000E+00 -0.00000000000E+00 -0.14221995949E+03  0.14221995949E+03  0.00000000000E+00 0. -1.
          6    2    1    2  501    0  0.84096903826E+02 -0.12320533094E+03  0.51289838728E+03  0.56109632908E+03  0.17179200220E+03 0.  0.
         24    2    3    3    0    0  0.72342852569E+02 -0.12852391240E+03  0.27397883653E+03  0.32178254602E+03  0.82022677839E+02 0.  0.
         -6    2    1    2    0  503 -0.84096903826E+02  0.12320533094E+03 -0.90595759916E+01  0.22718240120E+03  0.17110793287E+03 0.  0.
        -24    2    5    5    0    0 -0.36718068948E+02  0.13198311214E+03 -0.49549164570E+02  0.16406900943E+03  0.75470270096E+02 0.  0.
          5    1    3    3  501    0  0.11754051257E+02  0.53185814508E+01  0.23891955075E+03  0.23931378306E+03  0.47000000000E+01 0. -1.
        -11    1    4    4    0    0  0.84076362301E+02 -0.70984801991E+02  0.17912345533E+03  0.21022104810E+03  0.00000000000E+00 0.  1.
         12    1    4    4    0    0 -0.11733509732E+02 -0.57539110404E+02  0.94855381195E+02  0.11156149792E+03  0.00000000000E+00 0. -1.
         -5    1    5    5    0  503 -0.47378834878E+02 -0.87777811935E+01  0.40489588579E+02  0.63113391767E+02  0.47000000000E+01 0.  1.
         11    1    6    6    0    0 -0.38326343317E+02  0.52113219421E+02  0.86030118385E+01  0.65258777518E+02  0.00000000000E+00 0. -1.
        -12    1    6    6    0    0  0.16082743690E+01  0.79869892717E+02 -0.58152176409E+02  0.98810231911E+02  0.00000000000E+00 0.  1.
</event>
<event>
12    1  0.1683022E-002  0.1809339E+03  0.7818608E-02  0.1168786E+00
         21   -1    0    0  501  502  0.00000000000E+00  0.00000000000E+00  0.18407097456E+03  0.18407097456E+03  0.00000000000E+00 0.  1.
         21   -1    0    0  502  503 -0.00000000000E+00 -0.00000000000E+00 -0.17470402026E+03  0.17470402026E+03  0.00000000000E+00 0.  1.
          6    2    1    2  501    0 -0.21043643429E+02 -0.13317346773E+02  0.32921587891E+02  0.18390460004E+03  0.17921184200E+03 0.  0.
         24    2    3    3    0    0 -0.47811670714E+02 -0.62757848879E+02  0.54653751966E+02  0.12344579184E+03  0.77635864567E+02 0.  0.
         -6    2    1    2    0  503  0.21043643429E+02  0.13317346773E+02 -0.23554633594E+02  0.17487039479E+03  0.17147783400E+03 0.  0.
        -24    2    5    5    0    0  0.62274249194E+02 -0.16483476844E+01 -0.59580877811E+02  0.11791501633E+03  0.80456639959E+02 0.  0.
          5    1    3    3  501    0  0.26768027285E+02  0.49440502106E+02 -0.21732164075E+02  0.60458808197E+02  0.47000000000E+01 0. -1.
        -13    1    4    4    0    0  0.50222611406E+01 -0.57359298945E+02  0.28551643133E+02  0.64269033041E+02  0.00000000000E+00 0.  1.
         14    1    4    4    0    0 -0.52833931855E+02 -0.53985499347E+01  0.26102108833E+02  0.59176758801E+02  0.00000000000E+00 0. -1.
         -5    1    5    5    0  503 -0.41230605765E+02  0.14965694458E+02  0.36026244216E+02  0.56955378452E+02  0.47000000000E+01 0.  1.
         13    1    6    6    0    0  0.67471583687E+02  0.26682083525E+02 -0.47240802738E+02  0.86579683701E+02  0.00000000000E+00 0. -1.
        -14    1    6    6    0    0 -0.51973344933E+01 -0.28330431210E+02 -0.12340075073E+02  0.31335332632E+02  0.00000000000E+00 0.  1.
</event>
<event>
12    1  0.1683022E-002  0.2220180E+03  0.7818608E-02  0.1132435E+00
         21   -1    0    0  503  502  0.00000000000E+00  0.00000000000E+00  0.70067123710E+03  0.70067123710E+03  0.00000000000E+00 0.  1.
         21   -1    0    0  501  503 -0.00000000000E+00 -0.00000000000E+00 -0.75153777321E+02  0.75153777321E+02  0.00000000000E+00 0.  1.
          6    2    1    2  501    0 -0.14119133536E+03  0.71701592643E+01  0.21368464159E+03  0.30795936223E+03  0.17085502149E+03 0.  0.
         24    2    3    3    0    0 -0.41468550193E+02  0.13267461717E+02  0.18845958587E+03  0.20480799571E+03  0.67332261267E+02 0.  0.
         -6    2    1    2    0  502  0.14119133536E+03 -0.71701592643E+01  0.41183281819E+03  0.46786565220E+03  0.17118876717E+03 0.  0.
        -24    2    5    5    0    0  0.93822855040E+02 -0.55546368803E+02  0.17064728031E+03  0.21731309432E+03  0.78843893049E+02 0.  0.
          5    1    3    3  501    0 -0.99722785162E+02 -0.60973024529E+01  0.25225055729E+02  0.10315136652E+03  0.47000000000E+01 0. -1.
        -13    1    4    4    0    0 -0.51707614761E+02  0.29982282416E+02  0.12839477927E+03  0.14162568280E+03  0.00000000000E+00 0.  1.
         14    1    4    4    0    0  0.10239064568E+02 -0.16714820699E+02  0.60064806595E+02  0.63182312916E+02  0.00000000000E+00 0. -1.
         -5    1    5    5    0  502  0.47368480315E+02  0.48376209539E+02  0.24118553788E+03  0.25055255788E+03  0.47000000000E+01 0.  1.
         11    1    6    6    0    0  0.19144203351E+02 -0.35913620542E+02  0.11540487837E+03  0.12237064442E+03  0.00000000000E+00 0. -1.
        -12    1    6    6    0    0  0.74678651689E+02 -0.19632748262E+02  0.55242401938E+02  0.94942449906E+02  0.00000000000E+00 0.  1.
</event>
<event>
12    1  0.1683022E-002  0.2468532E+03  0.7818608E-02  0.1115744E+00
         21   -1    0    0  503  502  0.00000000000E+00  0.00000000000E+00  0.46491866386E+03  0.46491866386E+03  0.00000000000E+00 0.  1.
         21   -1    0    0  501  503 -0.00000000000E+00 -0.00000000000E+00 -0.15155935519E+03  0.15155935519E+03  0.00000000000E+00 0.  1.
          6    2    1    2  501    0  0.16203230530E+03 -0.61219678017E+02  0.40207393829E+02  0.25010620552E+03  0.17588110354E+03 0.  0.
         24    2    3    3    0    0  0.14556634476E+03 -0.61312613688E+02 -0.28482625576E+02  0.17931393716E+03  0.79958931803E+02 0.  0.
         -6    2    1    2    0  502 -0.16203230530E+03  0.61219678017E+02  0.27315191484E+03  0.36637181353E+03  0.17208724599E+03 0.  0.
        -24    2    5    5    0    0 -0.14133190096E+03  0.97224235414E+02  0.16470478679E+03  0.25014916309E+03  0.77586589190E+02 0.  0.
          5    1    3    3  501    0  0.16465960541E+02  0.92935670367E-01  0.68690019405E+02  0.70792268360E+02  0.47000000000E+01 0. -1.
        -13    1    4    4    0    0  0.40562763425E+02 -0.52930975022E+02 -0.31895195617E+02  0.73921102514E+02  0.00000000000E+00 0.  1.
         14    1    4    4    0    0  0.10500358133E+03 -0.83816386659E+01  0.34125700405E+01  0.10539283464E+03  0.00000000000E+00 0. -1.
         -5    1    5    5    0  502 -0.20700404338E+02 -0.36004557397E+02  0.10844712805E+03  0.11622265044E+03  0.47000000000E+01 0.  1.
         13    1    6    6    0    0 -0.10291882108E+02  0.12349442752E+02 -0.74716140621E+01  0.17727283783E+02  0.00000000000E+00 0. -1.
        -14    1    6    6    0    0 -0.13104001885E+03  0.84874792662E+02  0.17217640086E+03  0.23242187931E+03  0.00000000000E+00 0.  1.
</event>
<event>
12    1  0.1683022E-002  0.4178403E+03  0.7818608E-02  0.1037831E+00
         21   -1    0    0  503  502  0.00000000000E+00  0.00000000000E+00  0.18139427623E+03  0.18139427623E+03  0.00000000000E+00 0. -1.
         21   -1    0    0  501  503 -0.00000000000E+00 -0.00000000000E+00 -0.12576371975E+04  0.12576371975E+04  0.00000000000E+00 0. -1.
          6    2    1    2  501    0  0.37924644429E+03 -0.18480066406E+02 -0.88803641833E+03  0.98142712604E+03  0.17441658491E+03 0.  0.
         24    2    3    3    0    0  0.28706605886E+03 -0.54073603297E+02 -0.53467855874E+03  0.61448300188E+03  0.79858134823E+02 0.  0.
         -6    2    1    2    0  502 -0.37924644429E+03  0.18480066406E+02 -0.18820650297E+03  0.45760434771E+03  0.17265767553E+03 0.  0.
        -24    2    5    5    0    0 -0.70999060661E+02  0.31549322288E+01 -0.55488882253E+02  0.12161719602E+03  0.81614374355E+02 0.  0.
          5    1    3    3  501    0  0.92180385435E+02  0.35593536890E+02 -0.35335785958E+03  0.36694412416E+03  0.47000000000E+01 0. -1.
        -11    1    4    4    0    0  0.14299911271E+03 -0.66398574154E+02 -0.25990293954E+03  0.30398528726E+03  0.00000000000E+00 0.  1.
         12    1    4    4    0    0  0.14406694615E+03  0.12324970858E+02 -0.27477561920E+03  0.31049771462E+03  0.00000000000E+00 0. -1.
         -5    1    5    5    0  502 -0.30824738363E+03  0.15325134178E+02 -0.13271762072E+03  0.33598715169E+03  0.47000000000E+01 0.  1.
         13    1    6    6    0    0 -0.60765360440E+02 -0.79309435021E+00 -0.76628808197E+02  0.97800982989E+02  0.00000000000E+00 0. -1.
        -14    1    6    6    0    0 -0.10233700221E+02  0.39480265790E+01  0.21139925944E+02  0.23816213028E+02  0.00000000000E+00 0.  1.
</event>
<event>
12    1  0.1683022E-002  0.1855105E+03  0.7818608E-02  0.1163120E+00
         21   -1    0    0  501  502  0.00000000000E+00  0.00000000000E+00  0.11568306822E+03  0.11568306822E+03  0.00000000000E+00 0.  1.
         21   -1    0    0  502  503 -0.00000000000E+00 -0.00000000000E+00 -0.84553825296E+03  0.84553825296E+03  0.00000000000E+00 0.  1.
          6    2    1    2  501    0  0.12632625762E+02 -0.63204704794E+02  0.24119959363E+02  0.18475970177E+03  0.17146415665E+03 0.  0.
         24    2    3    3    0    0  0.83413384095E+01 -0.10045292108E+03 -0.16616827324E+02  0.12919513975E+03  0.79087912502E+02 0.  0.
         -6    2    1    2    0  503 -0.12632625762E+02  0.63204704794E+02 -0.75397514410E+03  0.77646161942E+03  0.17395318496E+03 0.  0.
        -24    2    5    5    0    0  0.17660549062E+02  0.97212786890E+02 -0.40789691165E+03  0.42736785111E+03  0.80629825147E+02 0.  0.
          5    1    3    3  501    0  0.42912873523E+01  0.37248216284E+02  0.40736786687E+02  0.55564562025E+02  0.47000000000E+01 0. -1.
        -11    1    4    4    0    0  0.36418324211E+01 -0.46021573084E+02  0.31911174576E+02  0.56121040576E+02  0.00000000000E+00 0.  1.
         12    1    4    4    0    0  0.46995059885E+01 -0.54431347994E+02 -0.48528001900E+02  0.73074099169E+02  0.00000000000E+00 0. -1.
         -5    1    5    5    0  503 -0.30293174824E+02 -0.34008082096E+02 -0.34607823246E+03  0.34909376831E+03  0.47000000000E+01 0.  1.
         13    1    6    6    0    0 -0.42361222049E+01  0.82353225930E+02 -0.18059811341E+03  0.19853381858E+03  0.00000000000E+00 0. -1.
        -14    1    6    6    0    0  0.21896671267E+02  0.14859560960E+02 -0.22729879823E+03  0.22883403253E+03  0.00000000000E+00 0.  1.
</event>
<event>
12    1  0.1683022E-002  0.2467112E+03  0.7818608E-02  0.1115524E+00
         21   -1    0    0  501  502  0.00000000000E+00  0.00000000000E+00  0.35460259133E+03  0.35460259133E+03  0.00000000000E+00 0.  1.
         21   -1    0    0  502  503 -0.00000000000E+00 -0.00000000000E+00 -0.22631298059E+03  0.22631298059E+03  0.00000000000E+00 0. -1.
          6    2    1    2  501    0  0.14436200267E+03 -0.99649440647E+02  0.20766451856E+03  0.32247628791E+03  0.17348200241E+03 0.  0.
         24    2    3    3    0    0  0.15091277447E+03 -0.10910722717E+03  0.12283045053E+03  0.23673673208E+03  0.79233251978E+02 0.  0.
         -6    2    1    2    0  503 -0.14436200267E+03  0.99649440647E+02 -0.79374907819E+02  0.25843928401E+03  0.17239515275E+03 0.  0.
        -24    2    5    5    0    0 -0.12319654744E+03  0.19809342859E+02  0.73489968055E+01  0.13858293940E+03  0.59844999567E+02 0.  0.
          5    1    3    3  501    0 -0.65507717955E+01  0.94577865226E+01  0.84834068023E+02  0.85739555833E+02  0.47000000000E+01 0. -1.
        -13    1    4    4    0    0  0.64615912158E+02 -0.51555633400E+02  0.10138939548E+03  0.13081669983E+03  0.00000000000E+00 0.  1.
         14    1    4    4    0    0  0.86296862309E+02 -0.57551593770E+02  0.21441055059E+02  0.10592003225E+03  0.00000000000E+00 0. -1.
         -5    1    5    5    0  503 -0.21165455233E+02  0.79840097788E+02 -0.86723904624E+02  0.11985634461E+03  0.47000000000E+01 0.  1.
         11    1    6    6    0    0 -0.62259706576E+02 -0.18645790349E+02 -0.61177725459E+01  0.65279121483E+02  0.00000000000E+00 0. -1.
        -12    1    6    6    0    0 -0.60936840862E+02  0.38455133208E+02  0.13466769351E+02  0.73303817916E+02  0.00000000000E+00 0.  1.
</event>
<event>
12    1  0.1683022E-002  0.1758866E+03  0.7818608E-02  0.1172281E+00
         21   -1    0    0  503  502  0.00000000000E+00  0.00000000000E+00  0.38645213355E+03  0.38645213355E+03  0.00000000000E+00 0.  1.
         21   -1    0    0  501  503 -0.00000000000E+00 -0.00000000000E+00 -0.11943887923E+03  0.11943887923E+03  0.00000000000E+00 0.  1.
          6    2    1    2  501    0 -0.30379641998E+02  0.34827822708E+01 -0.12756588371E+02  0.17634859233E+03  0.17320809176E+03 0.  0.
         24    2    3    3    0    0 -0.55621906153E+02 -0.48533199498E+02  0.18781941894E+02  0.11032130138E+03  0.79804513028E+02 0.  0.
         -6    2    1    2    0  502  0.30379641998E+02 -0.34827822708E+01  0.27976984268E+03  0.32954242045E+03  0.17144092155E+03 0.  0.
        -24    2    5    5    0    0  0.83671590527E+01  0.64917832298E+02  0.13256727220E+03  0.16567088468E+03  0.74755776173E+02 0.  0.
          5    1    3    3  501    0  0.25242264155E+02  0.52015981769E+02 -0.31538530264E+02  0.66027290951E+02  0.47000000000E+01 0. -1.
        -13    1    4    4    0    0  0.16449709816E+02 -0.17286962044E+02 -0.11046053640E+02  0.26295385731E+02  0.00000000000E+00 0.  1.
         14    1    4    4    0    0 -0.72071615969E+02 -0.31246237454E+02  0.29827995533E+02  0.84025915651E+02  0.00000000000E+00 0. -1.
         -5    1    5    5    0  502  0.22012482945E+02 -0.68400614568E+02  0.14720257048E+03  0.16387153577E+03  0.47000000000E+01 0.  1.
         13    1    6    6    0    0  0.37712241728E+01  0.73796280603E+02  0.13626578735E+03  0.15501121883E+03  0.00000000000E+00 0. -1.
        -14    1    6    6    0    0  0.45959348799E+01 -0.88784483057E+01 -0.36985151447E+01  0.10659665849E+02  0.00000000000E+00 0.  1.
</event>
<event>
12    1  0.1683022E-002  0.2247106E+03  0.7818608E-02  0.1130425E+00
         21   -1    0    0  503  502  0.00000000000E+00  0.00000000000E+00  0.17023541469E+03  0.17023541469E+03  0.00000000000E+00 0.  1.
         21   -1    0    0  501  503 -0.00000000000E+00 -0.00000000000E+00 -0.29843653095E+03  0.29843653095E+03  0.00000000000E+00 0.  1.
          6    2    1    2  501    0 -0.14272697583E+03  0.21313738558E+02 -0.45609743529E+02  0.22929264890E+03  0.17224867215E+03 0.  0.
         24    2    3    3    0    0 -0.22005034219E+02 -0.43098257069E+01  0.25935451128E+02  0.86565079354E+02  0.79486283155E+02 0.  0.
         -6    2    1    2    0  502  0.14272697583E+03 -0.21313738558E+02 -0.82591372733E+02  0.23937929674E+03  0.17220873317E+03 0.  0.
        -24    2    5    5    0    0  0.14487845098E+03 -0.40194982449E+01 -0.11389659191E+03  0.20324307750E+03  0.85611874049E+02 0.  0.
          5    1    3    3  501    0 -0.12072194161E+03  0.25623564264E+02 -0.71545194657E+02  0.14272756955E+03  0.47000000000E+01 0. -1.
        -13    1    4    4    0    0 -0.23032024740E+02  0.10682884288E+02 -0.23683465524E+02  0.34720379024E+02  0.00000000000E+00 0.  1.
         14    1    4    4    0    0  0.10269905211E+01 -0.14992709995E+02  0.49618916652E+02  0.51844700330E+02  0.00000000000E+00 0. -1.
         -5    1    5    5    0  502 -0.21514751496E+01 -0.17294240313E+02  0.31305219181E+02  0.36136219244E+02  0.47000000000E+01 0.  1.
         11    1    6    6    0    0  0.78431029707E+02  0.11811044160E+02 -0.11486571549E+02  0.80142800744E+02  0.00000000000E+00 0. -1.
        -12    1    6    6    0    0  0.66447421270E+02 -0.15830542405E+02 -0.10241002036E+03  0.12310027676E+03  0.00000000000E+00 0.  1.
</event>
<event>
12    1  0.1683022E-002  0.1932386E+03  0.7818608E-02  0.1157330E+00
         21   -1    0    0  503  502  0.00000000000E+00  0.00000000000E+00  0.69802893432E+02  0.69802893432E+02  0.00000000000E+00 0.  1.
         21   -1    0    0  501  503 -0.00000000000E+00 -0.00000000000E+00 -0.51362543575E+03  0.51362543575E+03  0.00000000000E+00 0.  1.
          6    2    1    2  501    0  0.34955474913E+02  0.54970830152E+02 -0.21479974345E+03  0.28377420414E+03  0.17362370735E+03 0.  0.
         24    2    3    3    0    0 -0.20835140088E+00  0.47128529515E+02 -0.33458202586E+02  0.98828696477E+02  0.80165567562E+02 0.  0.
         -6    2    1    2    0  502 -0.34955474913E+02 -0.54970830152E+02 -0.22902279887E+03  0.29965412504E+03  0.18192711415E+03 0.  0.
        -24    2    5    5    0    0 -0.65447597724E+02  0.22979701787E+02 -0.11172849831E+03  0.15548027885E+03  0.82942178865E+02 0.  0.
          5    1    3    3  501    0  0.35163826313E+02  0.78423006375E+01 -0.18134154086E+03  0.18494550766E+03  0.47000000000E+01 0. -1.
        -13    1    4    4    0    0 -0.16987127239E+02  0.48824514566E+02 -0.52303454978E+02  0.73539425597E+02  0.00000000000E+00 0.  1.
         14    1    4    4    0    0  0.16778775838E+02 -0.16959850515E+01  0.18845252392E+02  0.25289270880E+02  0.00000000000E+00 0. -1.
         -5    1    5    5    0  502  0.30492122811E+02 -0.77950531939E+02 -0.11729430056E+03  0.14417384619E+03  0.47000000000E+01 0.  1.
         11    1    6    6    0    0 -0.65375774139E+02 -0.78301843989E+01 -0.10501177482E+03  0.12394666790E+03  0.00000000000E+00 0. -1.
        -12    1    6    6    0    0 -0.71823584370E-01  0.30809886186E+02 -0.67167234923E+01  0.31533610955E+02  0.00000000000E+00 0.  1.
</event>
<event>
12    1  0.1683022E-002  0.2125709E+03  0.7818608E-02  0.1140015E+00
         21   -1    0    0  501  502  0.00000000000E+00  0.00000000000E+00  0.51505420692E+02  0.51505420692E+02  0.00000000000E+00 0.  1.
         21   -1    0    0  502  503 -0.00000000000E+00 -0.00000000000E+00 -0.10773681637E+04  0.10773681637E+04  0.00000000000E+00 0.  1.
          6    2    1    2  501    0 -0.10199778937E+03 -0.66177782895E+02 -0.26146668252E+03  0.33547096189E+03  0.17144355403E+03 0.  0.
         24    2    3    3    0    0 -0.30922166205E+02 -0.11409051275E+02 -0.39511922377E+02  0.96018745944E+02  0.81068247477E+02 0.  0.
         -6    2    1    2    0  503  0.10199778937E+03  0.66177782895E+02 -0.76439606051E+03  0.79340262252E+03  0.17436552446E+03 0.  0.
        -24    2    5    5    0    0  0.14374022204E+02  0.57067147110E+02 -0.21747367953E+03  0.23941064689E+03  0.80990028766E+02 0.  0.
          5    1    3    3  501    0 -0.71075623164E+02 -0.54768731619E+02 -0.22195476014E+03  0.23945221595E+03  0.47000000000E+01 0. -1.
        -11    1    4    4    0    0 -0.19933942080E+02 -0.38826196654E+02 -0.48401258570E+02  0.65172980787E+02  0.00000000000E+00 0.  1.
         12    1    4    4    0    0 -0.10988224125E+02  0.27417145379E+02  0.88893361936E+01  0.30845765157E+02  0.00000000000E+00 0. -1.
         -5    1    5    5    0  503  0.87623767164E+02  0.91106357842E+01 -0.54692238098E+03  0.55399197564E+03  0.47000000000E+01 0.  1.
         13    1    6    6    0    0  0.25682689502E+01 -0.17911306412E+02 -0.16148109737E+02  0.24252264861E+02  0.00000000000E+00 0. -1.
        -14    1    6    6    0    0  0.11805753254E+02  0.74978453523E+02 -0.20132556979E+03  0.21515838202E+03  0.00000000000E+00 0.  1.
</event>
<event>
12    1  0.1683022E-002  0.2119268E+03  0.7818608E-02  0.1140371E+00
         21   -1    0    0  501  502  0.00000000000E+00  0.00000000000E+00  0.30089169779E+03  0.30089169779E+03  0.00000000000E+00 0. -1.
         21   -1    0    0  502  503 -0.00000000000E+00 -0.00000000000E+00 -0.14928962056E+03  0.14928962056E+03  0.00000000000E+00 0. -1.
          6    2    1    2  501    0 -0.11966976361E+03  0.16620248753E+02  0.96067953389E+02  0.23268442128E+03  0.17411462674E+03 0.  0.
         24    2    3    3    0    0 -0.42870789498E+02 -0.51165295234E+02  0.20048411506E+02  0.10503637724E+03  0.78580593734E+02 0.  0.
         -6    2    1    2    0  503  0.11966976361E+03 -0.16620248753E+02  0.55534123842E+02  0.21749689706E+03  0.17211559002E+03 0.  0.
        -24    2    5    5    0    0  0.34565302311E+02 -0.18154710715E+02 -0.33141277238E+02  0.94490634361E+02  0.79408954658E+02 0.  0.
          5    1    3    3  501    0 -0.76798974117E+02  0.67785543987E+02  0.76019541882E+02  0.12764804404E+03  0.47000000000E+01 0. -1.
        -13    1    4    4    0    0 -0.36457535372E+02 -0.33696050903E+02 -0.25516257324E+02  0.55818053707E+02  0.00000000000E+00 0.  1.
         14    1    4    4    0    0 -0.64132541259E+01 -0.17469244331E+02  0.45564668830E+02  0.49218323535E+02  0.00000000000E+00 0. -1.
         -5    1    5    5    0  503  0.85104461304E+02  0.15344619624E+01  0.88675401079E+02  0.12300626270E+03  0.47000000000E+01 0.  1.
         11    1    6    6    0    0  0.44397414168E+02 -0.42171936845E+02 -0.30486320598E+02  0.68403350690E+02  0.00000000000E+00 0. -1.
        -12    1    6    6    0    0 -0.98321118569E+01  0.24017226130E+02 -0.26549566401E+01  0.26087283670E+02  0.00000000000E+00 0.  1.
</event>
<event>
12    1  0.1683022E-002  0.1789735E+03  0.7818608E-02  0.1170127E+00
         21   -1    0    0  501  502  0.00000000000E+00  0.00000000000E+00  0.15490287656E+03  0.15490287656E+03  0.00000000000E+00 0. -1.
         21   -1    0    0  502  503 -0.00000000000E+00 -0.00000000000E+00 -0.30214055569E+03  0.30214055569E+03  0.00000000000E+00 0. -1.
          6    2    1    2  501    0  0.13805502035E+02 -0.97188709943E+01  0.59564322025E+02  0.18355014724E+03  0.17279380704E+03 0.  0.
         24    2    3    3    0    0 -0.41771303492E+02  0.32915968163E+02  0.61645925883E+02  0.11331529907E+03  0.78815189333E+02 0.  0.
         -6    2    1    2    0  503 -0.13805502035E+02  0.97188709943E+01 -0.20680200116E+03  0.27349328501E+03  0.17817536565E+03 0.  0.
        -24    2    5    5    0    0  0.37524825676E+02 -0.11039562357E+02 -0.19809280465E+03  0.21724690556E+03  0.80159055896E+02 0.  0.
          5    1    3    3  501    0  0.55576805527E+02 -0.42634839158E+02 -0.20816038578E+01  0.70234848168E+02  0.47000000000E+01 0. -1.
        -13    1    4    4    0    0 -0.11886431696E+02 -0.71040148463E+01 -0.15894593289E+02  0.21080616244E+02  0.00000000000E+00 0.  1.
         14    1    4    4    0    0 -0.29884871795E+02  0.40019983010E+02  0.77540519172E+02  0.92234682825E+02  0.00000000000E+00 0. -1.
         -5    1    5    5    0  503 -0.51330327712E+02  0.20758433351E+02 -0.87091965163E+01  0.56246379458E+02  0.47000000000E+01 0.  1.
         11    1    6    6    0    0 -0.83575207414E+01  0.51114208757E+01 -0.14465349653E+03  0.14498485726E+03  0.00000000000E+00 0. -1.
        -12    1    6    6    0    0  0.45882346418E+02 -0.16150983232E+02 -0.53439308120E+02  0.72262048300E+02  0.00000000000E+00 0.  1.
</event>
<event>
12    1  0.1683022E-002  0.3049998E+03  0.7818608E-02  0.1082813E+00
         21   -1    0    0  501  502  0.00000000000E+00  0.00000000000E+00  0.96064399239E+03  0.96064399239E+03  0.00000000000E+00 0. -1.
         21   -1    0    0  502  503 -0.00000000000E+00 -0.00000000000E+00 -0.12555586216E+03  0.12555586216E+03  0.00000000000E+00 0.  1.
          6    2    1    2  501    0 -0.88805225865E+02 -0.23501427831E+03  0.67762780823E+03  0.74295263313E+03  0.17228200554E+03 0.  0.
         24    2    3    3    0    0 -0.35425709239E+02 -0.38195634235E+02  0.23179195263E+03  0.25266837722E+03  0.86022742304E+02 0.  0.
         -6    2    1    2    0  503  0.88805225865E+02  0.23501427831E+03  0.15746032199E+03  0.34324722142E+03  0.17293589233E+03 0.  0.
        -24    2    5    5    0    0 -0.15766332855E+02  0.14554796581E+03  0.93815595090E+02  0.19154958390E+03  0.80356017863E+02 0.  0.
          5    1    3    3  501    0 -0.53379516626E+02 -0.19681864408E+03  0.44583585560E+03  0.49028425591E+03  0.47000000000E+01 0. -1.
        -13    1    4    4    0    0 -0.10309379691E+02 -0.41715774820E+02  0.22094420242E+03  0.22508405043E+03  0.00000000000E+00 0.  1.
         14    1    4    4    0    0 -0.25116329547E+02  0.35201405847E+01  0.10847750218E+02  0.27584326790E+02  0.00000000000E+00 0. -1.
         -5    1    5    5    0  503  0.10457155872E+03  0.89466312502E+02  0.63644726905E+02  0.15169763752E+03  0.47000000000E+01 0.  1.
         13    1    6    6    0    0 -0.27035456844E+02  0.10189034274E+02  0.29406621824E+02  0.41224771113E+02  0.00000000000E+00 0. -1.
        -14    1    6    6    0    0  0.11269123989E+02  0.13535893154E+03  0.64408973265E+02  0.15032481279E+03  0.00000000000E+00 0.  1.
</event>
<event>
12    1  0.1683022E-002  0.1771578E+03  0.7818608E-02  0.1170623E+00
         21   -1    0    0  503  502  0.00000000000E+00  0.00000000000E+00  0.54624582982E+02  0.54624582982E+02  0.00000000000E+00 0. -1.
         21   -1    0    0  501  503 -0.00000000000E+00 -0.00000000000E+00 -0.68992207150E+03  0.68992207150E+03  0.00000000000E+00 0.  1.
          6    2    1    2  501    0 -0.24943577864E+02 -0.41122468484E+02 -0.47035624714E+03  0.50261307088E+03  0.17050413575E+03 0.  0.
         24    2    3    3    0    0 -0.52108943596E+02 -0.53504721289E+02 -0.45654791012E+03  0.46938601186E+03  0.79430074219E+02 0.  0.
         -6    2    1    2    0  502  0.24943577864E+02  0.41122468484E+02 -0.16494124138E+03  0.24193358361E+03  0.17033204712E+03 0.  0.
        -24    2    5    5    0    0  0.15548092554E+02  0.91470493686E+02 -0.14418583614E+03  0.18647120327E+03  0.73303205294E+02 0.  0.
          5    1    3    3  501    0  0.27165365732E+02  0.12382252805E+02 -0.13808337014E+02  0.33227059018E+02  0.47000000000E+01 0. -1.
        -13    1    4    4    0    0 -0.65524579636E+02 -0.30036857974E+02 -0.22496268531E+03  0.23622847659E+03  0.00000000000E+00 0.  1.
         14    1    4    4    0    0  0.13415636039E+02 -0.23467863315E+02 -0.23158522481E+03  0.23315753527E+03  0.00000000000E+00 0. -1.
         -5    1    5    5    0  502  0.93954853100E+01 -0.50348025203E+02 -0.20755405241E+02  0.55462380338E+02  0.47000000000E+01 0.  1.
         11    1    6    6    0    0  0.44905600010E+02  0.59899860930E+02 -0.85331054340E+02  0.11351605651E+03  0.00000000000E+00 0. -1.
        -12    1    6    6    0    0 -0.29357507456E+02  0.31570632756E+02 -0.58854781803E+02  0.72955146753E+02  0.00000000000E+00 0.  1.
</event>
<event>
12    1  0.1683022E-002  0.2520292E+03  0.7818608E-02  0.1112162E+00
         21   -1    0    0  503  502  0.00000000000E+00  0.00000000000E+00  0.73312251445E+02  0.73312251445E+02  0.00000000000E+00 0.  1.
         21   -1    0    0  501  503 -0.00000000000E+00 -0.00000000000E+00 -0.95619405259E+03  0.95619405259E+03  0.00000000000E+00 0.  1.
          6    2    1    2  501    0 -0.17772311140E+03  0.49230791191E+02 -0.60104200100E+03  0.65141582012E+03  0.17053418603E+03 0.  0.
         24    2    3    3    0    0 -0.15772606629E+03 -0.19652562228E+02 -0.39495906096E+03  0.43315664765E+03  0.79801543702E+02 0.  0.
         -6    2    1    2    0  502  0.17772311140E+03 -0.49230791191E+02 -0.28183980014E+03  0.37809048391E+03  0.17178348570E+03 0.  0.
        -24    2    5    5    0    0  0.77025591009E+02  0.32689243161E+02 -0.17704945500E+03  0.21119533996E+03  0.79091300516E+02 0.  0.
          5    1    3    3  501    0 -0.19997045107E+02  0.68883353419E+02 -0.20608294004E+03  0.21825917247E+03  0.47000000000E+01 0. -1.
        -13    1    4    4    0    0 -0.68781171312E+02  0.14164775921E+02 -0.92848557524E+02  0.11641453963E+03  0.00000000000E+00 0.  1.
         14    1    4    4    0    0 -0.88944894977E+02 -0.33817338149E+02 -0.30211050344E+03  0.31674210801E+03  0.00000000000E+00 0. -1.
         -5    1    5    5    0  502  0.10069752039E+03 -0.81920034352E+02 -0.10479034514E+03  0.16689514395E+03  0.47000000000E+01 0.  1.
         11    1    6    6    0    0  0.11573680319E+02 -0.10262013745E+02  0.21737401217E+01  0.15619991944E+02  0.00000000000E+00 0. -1.
        -12    1    6    6    0    0  0.65451910690E+02  0.42951256906E+02 -0.17922319512E+03  0.19557534802E+03  0.00000000000E+00 0.  1.
</event>
<event>
12    1  0.1683022E-002  0.2748407E+03  0.7818608E-02  0.1098827E+00
         21   -1    0    0  501  502  0.00000000000E+00  0.00000000000E+00  0.12316258613E+04  0.12316258613E+04  0.00000000000E+00 0.  1.
         21   -1    0    0  502  503 -0.00000000000E+00 -0.00000000000E+00 -0.93730666394E+02  0.93730666394E+02  0.00000000000E+00 0.  1.
          6    2    1    2  501    0  0.16704000120E+03 -0.12970300497E+03  0.96265792680E+03  0.10011232153E+04  0.17553397600E+03 0.  0.
         24    2    3    3    0    0  0.16821847426E+03 -0.14393103528E+03  0.95743722915E+03  0.98521185683E+03  0.70304744271E+02 0.  0.
         -6    2    1    2    0  503 -0.16704000120E+03  0.12970300497E+03  0.17523726813E+03  0.32423331239E+03  0.17231920737E+03 0.  0.
        -24    2    5    5    0    0 -0.98431130594E+01  0.26988077953E+02  0.52261027271E+02  0.99719473874E+02  0.79921932359E+02 0.  0.
          5    1    3    3  501    0 -0.11784730644E+01  0.14228030310E+02  0.52206976492E+01  0.15911358497E+02  0.47000000000E+01 0. -1.
        -13    1    4    4    0    0  0.65563064858E+02 -0.14776990103E+02  0.29013463223E+03  0.29781702391E+03  0.00000000000E+00 0.  1.
         14    1    4    4    0    0  0.10265540940E+03 -0.12915404518E+03  0.66730259692E+03  0.68739483292E+03  0.00000000000E+00 0. -1.
         -5    1    5    5    0  503 -0.15719688814E+03  0.10271492702E+03  0.12297624086E+03  0.22451383852E+03  0.47000000000E+01 0.  1.
         11    1    6    6    0    0 -0.13223007643E+02 -0.20454805817E+02 -0.54251404933E+01  0.24953540060E+02  0.00000000000E+00 0. -1.
        -12    1    6    6    0    0  0.33798945832E+01  0.47442883770E+02  0.57686167764E+02  0.74765933814E+02  0.00000000000E+00 0.  1.
</event>
<event>
12    1  0.1683022E-002  0.2309755E+03  0.7818608E-02  0.1126224E+00
         21   -1    0    0  501  502  0.00000000000E+00  0.00000000000E+00  0.96500708466E+03  0.96500708466E+03  0.00000000000E+00 0. -1.
         21   -1    0    0  502  503 -0.00000000000E+00 -0.00000000000E+00 -0.66198469367E+02  0.66198469367E+02  0.00000000000E+00 0.  1.
          6    2    1    2  501    0  0.23746384393E+02 -0.15097587464E+03  0.66100074765E+03  0.69969044229E+03  0.17113480401E+03 0.  0.
         24    2    3    3    0    0  0.14376304916E+02 -0.16862072702E+03  0.44241455082E+03  0.48014282866E+03  0.78529442988E+02 0.  0.
         -6    2    1    2    0  503 -0.23746384393E+02  0.15097587464E+03  0.23780786764E+03  0.33151511173E+03  0.17318222167E+03 0.  0.
        -24    2    5    5    0    0  0.20791960189E+02  0.31313017567E+02  0.15759523680E+03  0.18065418357E+03  0.79917862216E+02 0.  0.
          5    1    3    3  501    0  0.93700794774E+01  0.17644852381E+02  0.21858619684E+03  0.21954761363E+03  0.47000000000E+01 0. -1.
        -11    1    4    4    0    0  0.27963528647E+02 -0.83788546761E+02  0.30967149271E+03  0.32202315584E+03  0.00000000000E+00 0.  1.
         12    1    4    4    0    0 -0.13587223732E+02 -0.84832180256E+02  0.13274305811E+03  0.15811967282E+03  0.00000000000E+00 0. -1.
         -5    1    5    5    0  503 -0.44538344582E+02  0.11966285707E+03  0.80212630838E+02  0.15086092816E+03  0.47000000000E+01 0.  1.
         11    1    6    6    0    0  0.17723701137E+02  0.31369100404E+02  0.16695795602E+03  0.17080137330E+03  0.00000000000E+00 0. -1.
        -12    1    6    6    0    0  0.30682590517E+01 -0.56082837122E-01 -0.93627192237E+01  0.98528102669E+01  0.00000000000E+00 0.  1.
</event>
<event>
12    1  0.1683022E-002  0.2267874E+03  0.7818608E-02  0.1129042E+00
         21   -1    0    0  503  502  0.00000000000E+00  0.00000000000E+00  0.77994781856E+03  0.77994781856E+03  0.00000000000E+00 0. -1.
         21   -1    0    0  501  503 -0.00000000000E+00 -0.00000000000E+00 -0.12925351083E+03  0.12925351083E+03  0.00000000000E+00 0.  1.
          6    2    1    2  501    0  0.14010834004E+03  0.26025041764E+02  0.64543110960E+01  0.22620961178E+03  0.17556047557E+03 0.  0.
         24    2    3    3    0    0  0.11847655105E+03  0.48543226593E+02 -0.52356832934E+02  0.15945750616E+03  0.79324147135E+02 0.  0.
         -6    2    1    2    0  502 -0.14010834004E+03 -0.26025041764E+02  0.64423999664E+03  0.68299171761E+03  0.17642240023E+03 0.  0.
        -24    2    5    5    0    0 -0.16198713417E+03 -0.28599819923E+02  0.42821274607E+03  0.46579325052E+03  0.80866649480E+02 0.  0.
          5    1    3    3  501    0  0.21631788993E+02 -0.22518184829E+02  0.58811144030E+02  0.66752105623E+02  0.47000000000E+01 0. -1.
        -13    1    4    4    0    0  0.62742244442E+02 -0.11223066409E+02 -0.43697865435E+02  0.77279039208E+02  0.00000000000E+00 0.  1.
         14    1    4    4    0    0  0.55734306606E+02  0.59766293002E+02 -0.86589674990E+01  0.82178466950E+02  0.00000000000E+00 0. -1.
         -5    1    5    5    0  502  0.21878794133E+02  0.25747781589E+01  0.21602725057E+03  0.21719846709E+03  0.47000000000E+01 0.  1.
         13    1    6    6    0    0 -0.14673513589E+03 -0.13069883513E+02  0.28387513294E+03  0.31982356552E+03  0.00000000000E+00 0. -1.
        -14    1    6    6    0    0 -0.15251998288E+02 -0.15529936410E+02  0.14433761312E+03  0.14596968500E+03  0.00000000000E+00 0.  1.
</event>
<event>
12    1  0.1683022E-002  0.4279154E+03  0.7818608E-02  0.1034534E+00
         21   -1    0    0  503  502  0.00000000000E+00  0.00000000000E+00  0.12170519811E+03  0.12170519811E+03  0.00000000000E+00 0.  1.
         21   -1    0    0  501  503 -0.00000000000E+00 -0.00000000000E+00 -0.15165208652E+04  0.15165208652E+04  0.00000000000E+00 0.  1.
          6    2    1    2  501    0  0.27747760623E+03 -0.27659559625E+03 -0.77204255098E+03  0.88270113665E+03  0.17208326562E+03 0.  0.
         24    2    3    3    0    0  0.28930209741E+03 -0.28283645833E+03 -0.75758924112E+03  0.86245872778E+03  0.78749178631E+02 0.  0.
         -6    2    1    2    0  502 -0.27747760623E+03  0.27659559625E+03 -0.62277311616E+03  0.75552492670E+03  0.17167590054E+03 0.  0.
        -24    2    5    5    0    0 -0.25644860301E+03  0.27566413616E+03 -0.62483793131E+03  0.73385836131E+03  0.79806341275E+02 0.  0.
          5    1    3    3  501    0 -0.11824491179E+02  0.62408620830E+01 -0.14453309862E+02  0.20242408877E+02  0.47000000000E+01 0.  1.
        -13    1    4    4    0    0  0.28402262575E+03 -0.25142045469E+03 -0.71354583044E+03  0.80810194228E+03  0.00000000000E+00 0.  1.
         14    1    4    4    0    0  0.52794716578E+01 -0.31416003637E+02 -0.44043410675E+02  0.54356785495E+02  0.00000000000E+00 0. -1.
         -5    1    5    5    0  502 -0.21029003224E+02  0.93146008712E+00  0.20648151432E+01  0.21666565396E+02  0.47000000000E+01 0.  1.
         13    1    6    6    0    0 -0.14607377031E+03  0.17970291821E+03 -0.44849463900E+03  0.50475551151E+03  0.00000000000E+00 0. -1.
        -14    1    6    6    0    0 -0.11037483270E+03  0.95961217949E+02 -0.17634329231E+03  0.22910284980E+03  0.00000000000E+00 0.  1.
</event>
<event>
12    1  0.1683022E-002  0.2427208E+03  0.7818608E-02  0.1118319E+00
         21   -1    0    0  501  502  0.00000000000E+00  0.00000000000E+00  0.35391984519E+03  0.35391984519E+03  0.00000000000E+00 0.  1.
         21   -1    0    0  502  503 -0.00000000000E+00 -0.00000000000E+00 -0.17976691465E+03  0.17976691465E+03  0.00000000000E+00 0.  1.
          6    2    1    2  501    0  0.23895024088E+02 -0.16892904982E+03  0.16294590447E+03  0.29070734984E+03  0.16985699697E+03 0.  0.
         24    2    3    3    0    0  0.57436283421E+02 -0.76419461573E+02  0.14643861854E+03  0.19081931010E+03  0.76347097826E+02 0.  0.
         -6    2    1    2    0  503 -0.23895024088E+02  0.16892904982E+03  0.11207026070E+02  0.24297941000E+03  0.17264240557E+03 0.  0.
        -24    2    5    5    0    0  0.47644430514E+02  0.12767635041E+03 -0.77215609933E+01  0.15812624164E+03  0.79831344574E+02 0.  0.
          5    1    3    3  501    0 -0.33541259333E+02 -0.92509588245E+02  0.16507285937E+02  0.99888039744E+02  0.47000000000E+01 0. -1.
        -13    1    4    4    0    0  0.48056929241E+02 -0.89139633331E+02  0.10234368374E+03  0.14397767980E+03  0.00000000000E+00 0.  1.
         14    1    4    4    0    0  0.93793541801E+01  0.12720171758E+02  0.44094934795E+02  0.46841630298E+02  0.00000000000E+00 0. -1.
         -5    1    5    5    0  503 -0.71539454602E+02  0.41252699404E+02  0.18928587064E+02  0.84853168362E+02  0.47000000000E+01 0.  1.
         13    1    6    6    0    0 -0.23279376889E+01  0.27850681145E+02  0.29320100122E+02  0.40506147747E+02  0.00000000000E+00 0. -1.
        -14    1    6    6    0    0  0.49972368203E+02  0.99825669270E+02 -0.37041661115E+02  0.11762009389E+03  0.00000000000E+00 0.  1.
</event>
<event>
12    1  0.1683022E-002  0.1796763E+03  0.7818608E-02  0.1169286E+00
         21   -1    0    0  503  502  0.00000000000E+00  0.00000000000E+00  0.85067374961E+03  0.85067374961E+03  0.00000000000E+00 0.  1.
         21   -1    0    0  501  503 -0.00000000000E+00 -0.00000000000E+00 -0.47951984130E+02  0.47951984130E+02  0.00000000000E+00 0.  1.
          6    2    1    2  501    0  0.35350937068E+02  0.36490325436E+02  0.61238589352E+03  0.63687908488E+03  0.16738355226E+03 0.  0.
         24    2    3    3    0    0  0.10234911135E+02  0.81024085512E+02  0.50231484014E+03  0.51542210757E+03  0.81670646527E+02 0.  0.
         -6    2    1    2    0  502 -0.35350937068E+02 -0.36490325436E+02  0.19033587196E+03  0.26174664886E+03  0.17234364344E+03 0.  0.
        -24    2    5    5    0    0 -0.72313786396E+02 -0.49903314808E+02  0.18677209792E+03  0.22198547433E+03  0.81695224610E+02 0.  0.
          5    1    3    3  501    0  0.25116025933E+02 -0.44533760075E+02  0.11007105338E+03  0.12145697731E+03  0.47000000000E+01 0. -1.
        -13    1    4    4    0    0 -0.74863629772E+01  0.34570194156E+02  0.40108216999E+03  0.40263885932E+03  0.00000000000E+00 0.  1.
         14    1    4    4    0    0  0.17721274112E+02  0.46453891356E+02  0.10123267015E+03  0.11278324825E+03  0.00000000000E+00 0. -1.
         -5    1    5    5    0  502  0.36962849328E+02  0.13412989371E+02  0.35637740434E+01  0.39761174527E+02  0.47000000000E+01 0.  1.
         13    1    6    6    0    0 -0.49093508981E+02 -0.33931861459E+02  0.18426867338E+03  0.19369173404E+03  0.00000000000E+00 0. -1.
        -14    1    6    6    0    0 -0.23220277415E+02 -0.15971453349E+02  0.25034245319E+01  0.28293740291E+02  0.00000000000E+00 0.  1.
</event>
<event>
12    1  0.1683022E-002  0.1822498E+03  0.7818608E-02  0.1166431E+00
         21   -1    0    0  503  502  0.00000000000E+00  0.00000000000E+00  0.23392757556E+03  0.23392757556E+03  0.00000000000E+00 0.  1.
         21   -1    0    0  501  503 -0.00000000000E+00 -0.00000000000E+00 -0.18234689446E+03  0.18234689446E+03  0.00000000000E+00 0.  1.
          6    2    1    2  501    0  0.17674650448E+02 -0.55354855559E+02 -0.75338780613E+02  0.19418544858E+03  0.16927936458E+03 0.  0.
         24    2    3    3    0    0  0.19332017802E+02 -0.46788307638E+02  0.22352982261E+02  0.95992255624E+02  0.78434588542E+02 0.  0.
         -6    2    1    2    0  502 -0.17674650448E+02  0.55354855559E+02  0.12691946171E+03  0.22208902144E+03  0.17273803976E+03 0.  0.
        -24    2    5    5    0    0 -0.76106832375E+02  0.37077229590E+02  0.47245290465E+02  0.12149848978E+03  0.73231104449E+02 0.  0.
          5    1    3    3  501    0 -0.16573673539E+01 -0.85665479213E+01 -0.97691762874E+02  0.98193192958E+02  0.47000000000E+01 0. -1.
        -11    1    4    4    0    0 -0.28154769566E+02 -0.25234979389E+01  0.41525547442E+01  0.28571013318E+02  0.00000000000E+00 0.  1.
         12    1    4    4    0    0  0.47486787367E+02 -0.44264809699E+02  0.18200427517E+02  0.67421242305E+02  0.00000000000E+00 0. -1.
         -5    1    5    5    0  502  0.58432181928E+02  0.18277625969E+02  0.79674171249E+02  0.10059053166E+03  0.47000000000E+01 0.  1.
         11    1    6    6    0    0 -0.27756001405E+02 -0.92275926398E+01  0.46033611615E+02  0.54540237240E+02  0.00000000000E+00 0. -1.
        -12    1    6    6    0    0 -0.48350830970E+02  0.46304822230E+02  0.12116788503E+01  0.66958252537E+02  0.00000000000E+00 0.  1.
</event>
<event>
12    1  0.1683022E-002  0.2432135E+03  0.7818608E-02  0.1117777E+00
         21   -1    0    0  503  502  0.00000000000E+00  0.00000000000E+00  0.20897639764E+03  0.20897639764E+03  0.00000000000E+00 0.  1.
         21   -1    0    0  501  503 -0.00000000000E+00 -0.00000000000E+00 -0.30374945085E+03  0.30374945085E+03  0.00000000000E+00 0. -1.
          6    2    1    2  501    0 -0.15728549704E+02  0.16994785672E+03 -0.11544612695E+03  0.26863534982E+03  0.17235858454E+03 0.  0.
         24    2    3    3    0    0 -0.24858218151E+02  0.11025794570E+03  0.40108834576E+00  0.13791081649E+03  0.79022065473E+02 0.  0.
         -6    2    1    2    0  502  0.15728549704E+02 -0.16994785672E+03  0.20673073745E+02  0.24409049868E+03  0.17327185082E+03 0.  0.
        -24    2    5    5    0    0  0.40177888291E+02 -0.21579348005E+02  0.30486122740E+01  0.92618731743E+02  0.80554357207E+02 0.  0.
          5    1    3    3  501    0  0.91296684476E+01  0.59689911018E+02 -0.11584721530E+03  0.13072453333E+03  0.47000000000E+01 0. -1.
        -11    1    4    4    0    0 -0.46549009475E+02  0.47921922909E+02 -0.18376973146E+02  0.69289495022E+02  0.00000000000E+00 0.  1.
         12    1    4    4    0    0  0.21690791323E+02  0.62336022794E+02  0.18778061492E+02  0.68621321463E+02  0.00000000000E+00 0. -1.
         -5    1    5    5    0  502 -0.24449338587E+02 -0.14836850871E+03  0.17624461471E+02  0.15147176693E+03  0.47000000000E+01 0.  1.
         13    1    6    6    0    0  0.50463676607E+02 -0.17092696261E+02 -0.27582946456E+02  0.59996348700E+02  0.00000000000E+00 0. -1.
        -14    1    6    6    0    0 -0.10285788316E+02 -0.44866517441E+01  0.30631558730E+02  0.32622383043E+02  0.00000000000E+00 0.  1.
</event>
<event>
12    1  0.1683022E-002  0.2428788E+03  0.7818608E-02  0.1118416E+00
         21   -1    0    0  503  502  0.00000000000E+00  0.00000000000E+00  0.12575975713E+03  0.12575975713E+03  0.00000000000E+00 0. -1.
         21   -1    0    0  501  503 -0.00000000000E+00 -0.00000000000E+00 -0.52017172292E+03  0.52017172292E+03  0.00000000000E+00 0. -1.
          6    2    1    2  501    0 -0.17157748364E+03  0.54814496698E+00 -0.30549259396E+03  0.39027662655E+03  0.17190400493E+03 0.  0.
         24    2    3    3    0    0 -0.34287235904E+02  0.35928298919E+01 -0.49040337204E+02  0.99333793291E+02  0.79206848465E+02 0.  0.
         -6    2    1    2    0  502  0.17157748364E+03 -0.54814496698E+00 -0.88919371830E+02  0.25565485350E+03  0.16737268617E+03 0.  0.
        -24    2    5    5    0    0  0.17999675801E+03 -0.32590119356E+02 -0.87348819625E+02  0.22215666045E+03  0.90900036944E+02 0.  0.
          5    1    3    3  501    0 -0.13729024774E+03 -0.30446849249E+01 -0.25645225675E+03  0.29094283326E+03  0.47000000000E+01 0. -1.
        -13    1    4    4    0    0 -0.39138871260E+01  0.33805055990E+01 -0.64874448321E+02  0.65080261028E+02  0.00000000000E+00 0.  1.
         14    1    4    4    0    0 -0.30373348778E+02  0.21232429289E+00  0.15834111117E+02  0.34253532262E+02  0.00000000000E+00 0. -1.
         -5    1    5    5    0  502 -0.84192743707E+01  0.32041974389E+02 -0.15705522053E+01  0.33498193054E+02  0.47000000000E+01 0.  1.
         11    1    6    6    0    0  0.11170182608E+03  0.20009644555E+02 -0.72559513419E+02  0.13469434588E+03  0.00000000000E+00 0. -1.
        -12    1    6    6    0    0  0.68294931931E+02 -0.52599763910E+02 -0.14789306206E+02  0.87462314564E+02  0.00000000000E+00 0.  1.
</event>
<event>
12    1  0.1683022E-002  0.2807770E+03  0.7818608E-02  0.1096772E+00
         21   -1    0    0  503  502  0.00000000000E+00  0.00000000000E+00  0.24015389060E+03  0.24015389060E+03  0.00000000000E+00 0. -1.
         21   -1    0    0  501  503 -0.00000000000E+00 -0.00000000000E+00 -0.69598357495E+03  0.69598357495E+03  0.00000000000E+00 0. -1.
          6    2    1    2  501    0  0.43554038169E+01 -0.22140228876E+03 -0.57183198242E+03  0.63234104032E+03  0.15435489024E+03 0.  0.
         24    2    3    3    0    0  0.31165380701E+02 -0.12261566728E+03 -0.44316311004E+03  0.46785596451E+03  0.80559162184E+02 0.  0.
         -6    2    1    2    0  502 -0.43554038169E+01  0.22140228876E+03  0.11600229807E+03  0.30379642523E+03  0.17262036905E+03 0.  0.
        -24    2    5    5    0    0 -0.29406837926E+02  0.17972077988E+03  0.14578653074E+03  0.24657655936E+03  0.79887209535E+02 0.  0.
          5    1    3    3  501    0 -0.26809976884E+02 -0.98786621483E+02 -0.12866887239E+03  0.16448507582E+03  0.47000000000E+01 0. -1.
        -11    1    4    4    0    0  0.43184852580E+02 -0.10312814000E+03 -0.25668813022E+03  0.27998060816E+03  0.00000000000E+00 0.  1.
         12    1    4    4    0    0 -0.12019471879E+02 -0.19487527282E+02 -0.18647497982E+03  0.18787535635E+03  0.00000000000E+00 0. -1.
         -5    1    5    5    0  502  0.25051434109E+02  0.41681508888E+02 -0.29784232664E+02  0.57219865864E+02  0.47000000000E+01 0.  1.
         13    1    6    6    0    0 -0.12540292013E+02  0.22682859162E+02 -0.69806844923E+01  0.26842149309E+02  0.00000000000E+00 0. -1.
        -14    1    6    6    0    0 -0.16866545913E+02  0.15703792071E+03  0.15276721523E+03  0.21973441006E+03  0.00000000000E+00 0.  1.
</event>
<event>
12    1  0.1683022E-002  0.2790136E+03  0.7818608E-02  0.1096286E+00
         21   -1    0    0  501  502  0.00000000000E+00  0.00000000000E+00  0.42957303491E+02  0.42957303491E+02  0.00000000000E+00 0. -1.
         21   -1    0    0  502  503 -0.00000000000E+00 -0.00000000000E+00 -0.18095364859E+04  0.18095364859E+04  0.00000000000E+00 0.  1.
          6    2    1    2  501    0 -0.52843406014E+02 -0.21444123783E+03 -0.88209118895E+03  0.92504158151E+03  0.16982223606E+03 0.  0.
         24    2    3    3    0    0 -0.58609033030E+02 -0.68845950372E+02 -0.26293868225E+03  0.28895735224E+03  0.78643608452E+02 0.  0.
         -6    2    1    2    0  503  0.52843406014E+02  0.21444123783E+03 -0.88448799347E+03  0.92745220789E+03  0.17050254335E+03 0.  0.
        -24    2    5    5    0    0  0.67828897139E+02  0.10663059975E+03 -0.32339066125E+03  0.35587543714E+03  0.78070243318E+02 0.  0.
          5    1    3    3  501    0  0.57656270163E+01 -0.14559528746E+03 -0.61915250669E+03  0.63608422927E+03  0.47000000000E+01 0. -1.
        -13    1    4    4    0    0 -0.54019109008E+02 -0.10427699169E+02 -0.17365462180E+03  0.18216127119E+03  0.00000000000E+00 0.  1.
         14    1    4    4    0    0 -0.45899240218E+01 -0.58418251203E+02 -0.89284060451E+02  0.10679608105E+03  0.00000000000E+00 0. -1.
         -5    1    5    5    0  503 -0.14985491125E+02  0.10781063808E+03 -0.56109733223E+03  0.57157677075E+03  0.47000000000E+01 0.  1.
         13    1    6    6    0    0  0.61353302805E+02  0.10451745485E+03 -0.32658838124E+03  0.34835053738E+03  0.00000000000E+00 0. -1.
        -14    1    6    6    0    0  0.64755943340E+01  0.21131449061E+01  0.31977199907E+01  0.75248997675E+01  0.00000000000E+00 0.  1.
</event>
<event>
12    1  0.1683022E-002  0.2627637E+03  0.7818608E-02  0.1105514E+00
         21   -1    0    0  503  502  0.00000000000E+00  0.00000000000E+00  0.48857135832E+03  0.48857135832E+03  0.00000000000E+00 0.  1.
         21   -1    0    0  501  503 -0.00000000000E+00 -0.00000000000E+00 -0.23714708380E+03  0.23714708380E+03  0.00000000000E+00 0.  1.
          6    2    1    2  501    0 -0.47993630554E+02  0.19292917423E+03 -0.10501819726E+03  0.28297277336E+03  0.17181302007E+03 0.  0.
         24    2    3    3    0    0  0.68891194182E+01  0.17790722929E+03 -0.11017330934E+03  0.22564529081E+03  0.84137963946E+02 0.  0.
         -6    2    1    2    0  502  0.47993630554E+02 -0.19292917423E+03  0.35644247177E+03  0.44274566876E+03  0.17160255442E+03 0.  0.
        -24    2    5    5    0    0 -0.33696270958E+02 -0.12187264590E+03  0.16273610786E+03  0.22078505143E+03  0.79212484100E+02 0.  0.
          5    1    3    3  501    0 -0.54882749972E+02  0.15021944937E+02  0.51551120797E+01  0.57327482544E+02  0.47000000000E+01 0. -1.
        -13    1    4    4    0    0  0.68524827802E-01  0.15801650433E+03 -0.56187455053E+02  0.16770882637E+03  0.00000000000E+00 0.  1.
         14    1    4    4    0    0  0.68205945904E+01  0.19890724960E+02 -0.53985854283E+02  0.57936464448E+02  0.00000000000E+00 0. -1.
         -5    1    5    5    0  502  0.81689901512E+02 -0.71056528326E+02  0.19370636392E+03  0.22196061734E+03  0.47000000000E+01 0.  1.
         13    1    6    6    0    0 -0.28040858863E+02 -0.95308820525E+01  0.66326147479E+02  0.72638043186E+02  0.00000000000E+00 0. -1.
        -14    1    6    6    0    0 -0.56554120947E+01 -0.11234176385E+03  0.96409960380E+02  0.14814700824E+03  0.00000000000E+00 0.  1.
</event>
<event>
12    1  0.1683022E-002  0.2094793E+03  0.7818608E-02  0.1141998E+00
         21   -1    0    0  501  502  0.00000000000E+00  0.00000000000E+00  0.46512330111E+02  0.46512330111E+02  0.00000000000E+00 0.  1.
         21   -1    0    0  502  503 -0.00000000000E+00 -0.00000000000E+00 -0.94700543978E+03  0.94700543978E+03  0.00000000000E+00 0.  1.
          6    2    1    2  501    0  0.37496555242E+02  0.11298936855E+03 -0.41803852401E+03  0.46758717412E+03  0.17236289850E+03 0.  0.
         24    2    3    3    0    0  0.48517194379E+02  0.12448847106E+03 -0.21358056509E+03  0.26245592147E+03  0.73587739141E+02 0.  0.
         -6    2    1    2    0  503 -0.37496555242E+02 -0.11298936855E+03 -0.48245458565E+03  0.52593059577E+03  0.17224394123E+03 0.  0.
        -24    2    5    5    0    0  0.19860582670E+01 -0.13443187917E+03 -0.30556155030E+03  0.34336035179E+03  0.80328049852E+02 0.  0.
          5    1    3    3  501    0 -0.11020639137E+02 -0.11499102517E+02 -0.20445795892E+03  0.20513125265E+03  0.47000000000E+01 0. -1.
        -11    1    4    4    0    0  0.48644728835E+01  0.82229066254E+02 -0.16589647237E+03  0.18522127842E+03  0.00000000000E+00 0.  1.
         12    1    4    4    0    0  0.43652721496E+02  0.42259404811E+02 -0.47684092718E+02  0.77234643051E+02  0.00000000000E+00 0. -1.
         -5    1    5    5    0  503 -0.39482613509E+02  0.21442510625E+02 -0.17689303535E+03  0.18257024398E+03  0.47000000000E+01 0.  1.
         13    1    6    6    0    0  0.28779296401E+02 -0.12488057861E+03 -0.24808336737E+03  0.27922887383E+03  0.00000000000E+00 0. -1.
        -14    1    6    6    0    0 -0.26793238134E+02 -0.95513005660E+01 -0.57478182933E+02  0.64131477961E+02  0.00000000000E+00 0.  1.
</event>
<event>
12    1  0.1683022E-002  0.2629914E+03  0.7818608E-02  0.1105614E+00
         21   -1    0    0  503  502  0.00000000000E+00  0.00000000000E+00  0.47440485707E+03  0.47440485707E+03  0.00000000000E+00 0. -1.
         21   -1    0    0  501  503 -0.00000000000E+00 -0.00000000000E+00 -0.15314385536E+03  0.15314385536E+03  0.00000000000E+00 0.  1.
          6    2    1    2  501    0 -0.16772668019E+03  0.10029390665E+03  0.88069341506E+02  0.27734576615E+03  0.17599249453E+03 0.  0.
         24    2    3    3    0    0 -0.15789982193E+03  0.11501125593E+03  0.25626607112E+02  0.21227386291E+03  0.79015992850E+02 0.  0.
         -6    2    1    2    0  502  0.16772668019E+03 -0.10029390665E+03  0.23319166020E+03  0.35020294628E+03  0.17341466558E+03 0.  0.
        -24    2    5    5    0    0  0.16843668924E+03 -0.48930493673E+02  0.12298638295E+03  0.22852304885E+03  0.79574003100E+02 0.  0.
          5    1    3    3  501    0 -0.98268582560E+01 -0.14717349282E+02  0.62442734394E+02  0.65071903243E+02  0.47000000000E+01 0. -1.
        -13    1    4    4    0    0 -0.13929542669E+03  0.92710811196E+02  0.49699054687E+02  0.17455230290E+03  0.00000000000E+00 0.  1.
         14    1    4    4    0    0 -0.18604395238E+02  0.22300444735E+02 -0.24072447575E+02  0.37721560013E+02  0.00000000000E+00 0. -1.
         -5    1    5    5    0  502 -0.71000905341E+00 -0.51363412976E+02  0.11020527725E+03  0.12167989743E+03  0.47000000000E+01 0.  1.
         13    1    6    6    0    0  0.16092653327E+03 -0.65954776413E+02  0.10909612308E+03  0.20530305822E+03  0.00000000000E+00 0. -1.
        -14    1    6    6    0    0  0.75101559690E+01  0.17024282740E+02  0.13890259876E+02  0.23219990632E+02  0.00000000000E+00 0.  1.
</event>
<event>
12    1  0.1683022E-002  0.2112802E+03  0.7818608E-02  0.1141094E+00
         21   -1    0    0  501  502  0.00000000000E+00  0.00000000000E+00  0.81795292511E+02  0.81795292511E+02  0.00000000000E+00 0.  1.
         21   -1    0    0  502  503 -0.00000000000E+00 -0.00000000000E+00 -0.55800795500E+03  0.55800795500E+03  0.00000000000E+00 0.  1.
          6    2    1    2  501    0  0.76327412961E+02  0.90056350968E+02 -0.17717817946E+03  0.27365988393E+03  0.17193488441E+03 0.  0.
         24    2    3    3    0    0  0.80309319358E+02  0.10684448037E+02 -0.56269088431E+02  0.12889506484E+03  0.82969772934E+02 0.  0.
         -6    2    1    2    0  503 -0.76327412961E+02 -0.90056350968E+02 -0.29903448303E+03  0.36614336358E+03  0.17522362950E+03 0.  0.
        -24    2    5    5    0    0  0.30660853883E+02 -0.45051773598E+02 -0.14603684736E+03  0.17404373384E+03  0.77425514124E+02 0.  0.
          5    1    3    3  501    0 -0.39819063979E+01  0.79371902931E+02 -0.12090909103E+03  0.14476481909E+03  0.47000000000E+01 0. -1.
        -13    1    4    4    0    0  0.37668907507E+02  0.38056447032E+02 -0.50531104540E+00  0.53548997122E+02  0.00000000000E+00 0.  1.
         14    1    4    4    0    0  0.42640411851E+02 -0.27371998995E+02 -0.55763777386E+02  0.75346067715E+02  0.00000000000E+00 0. -1.
         -5    1    5    5    0  503 -0.10698826684E+03 -0.45004577370E+02 -0.15299763567E+03  0.19209962974E+03  0.47000000000E+01 0.  1.
         13    1    6    6    0    0  0.13615340200E+02  0.33099000689E+01  0.47352559989E+01  0.14790387980E+02  0.00000000000E+00 0. -1.
        -14    1    6    6    0    0  0.17045513683E+02 -0.48361673667E+02 -0.15077210336E+03  0.15925334586E+03  0.00000000000E+00 0.  1.
</event>
<event>
12    1  0.1683022E-002  0.1895479E+03  0.7818608E-02  0.1162574E+00
         21   -1    0    0  501  502  0.00000000000E+00  0.00000000000E+00  0.96872957883E+03  0.96872957883E+03  0.00000000000E+00 0.  1.
         21   -1    0    0  502  503 -0.00000000000E+00 -0.00000000000E+00 -0.34239835993E+02  0.34239835993E+02  0.00000000000E+00 0.  1.
          6    2    1    2  501    0  0.22586631783E+02 -0.12023447729E+02  0.41422776961E+03  0.44925384530E+03  0.17201643285E+03 0.  0.
         24    2    3    3    0    0  0.25720964622E+02 -0.22155442360E+02  0.42486075048E+03  0.43351752934E+03  0.79236098454E+02 0.  0.
         -6    2    1    2    0  503 -0.22586631783E+02  0.12023447729E+02  0.52026197323E+03  0.55371556952E+03  0.18781291733E+03 0.  0.
        -24    2    5    5    0    0  0.18824499961E+01  0.28146575667E+02  0.51750298565E+03  0.52390964343E+03  0.76656382534E+02 0.  0.
          5    1    3    3  501    0 -0.31343328384E+01  0.10131994631E+02 -0.10632980876E+02  0.15736315955E+02  0.47000000000E+01 0. -1.
        -11    1    4    4    0    0 -0.11149004513E+02 -0.33718332446E+02  0.31625243255E+03  0.31824020384E+03  0.00000000000E+00 0.  1.
         12    1    4    4    0    0  0.36869969135E+02  0.11562890087E+02  0.10860831793E+03  0.11527732550E+03  0.00000000000E+00 0. -1.
         -5    1    5    5    0  503 -0.24469081780E+02 -0.16123127938E+02  0.27589875741E+01  0.29805926090E+02  0.47000000000E+01 0.  1.
         13    1    6    6    0    0 -0.20219453778E+02  0.47632080977E+02  0.35596096735E+03  0.35970244887E+03  0.00000000000E+00 0. -1.
        -14    1    6    6    0    0  0.22101903774E+02 -0.19485505311E+02  0.16154201831E+03  0.16420719456E+03  0.00000000000E+00 0.  1.
</event>
<event>
12    1  0.1683022E-002  0.1792441E+03  0.7818608E-02  0.1169979E+00
         21   -1    0    0  503  502  0.00000000000E+00  0.00000000000E+00  0.53509058427E+02  0.53509058427E+02  0.00000000000E+00 0.  1.
         21   -1    0    0  501  503 -0.00000000000E+00 -0.00000000000E+00 -0.69566099624E+03  0.69566099624E+03  0.00000000000E+00 0.  1.
          6    2    1    2  501    0 -0.56561735022E+01 -0.46727370891E+02 -0.17349864816E+03  0.24945989372E+03  0.17295380357E+03 0.  0.
         24    2    3    3    0    0 -0.26564542765E+02 -0.73495724323E+02 -0.55344463775E+02  0.12643060477E+03  0.82549329047E+02 0.  0.
         -6    2    1    2    0  502  0.56561735022E+01  0.46727370891E+02 -0.46865328965E+03  0.49971016095E+03  0.16690985461E+03 0.  0.
        -24    2    5    5    0    0  0.55725642722E+02  0.65736187189E+02 -0.35393957764E+03  0.37302309543E+03  0.80289548169E+02 0.  0.
          5    1    3    3  501    0  0.20908369263E+02  0.26768353432E+02 -0.11815418438E+03  0.12302928894E+03  0.47000000000E+01 0. -1.
        -13    1    4    4    0    0  0.66090607655E+01 -0.38612139968E+02 -0.66348538992E+02  0.77050020529E+02  0.00000000000E+00 0.  1.
         14    1    4    4    0    0 -0.33173603531E+02 -0.34883584355E+02  0.11004075218E+02  0.49380584242E+02  0.00000000000E+00 0. -1.
         -5    1    5    5    0  502 -0.50069469219E+02 -0.19008816298E+02 -0.11471371202E+03  0.12668706552E+03  0.47000000000E+01 0.  1.
         13    1    6    6    0    0  0.25919564776E+02  0.12610232220E+02 -0.25646257050E+03  0.25807729823E+03  0.00000000000E+00 0. -1.
        -14    1    6    6    0    0  0.29806077945E+02  0.53125954969E+02 -0.97477007139E+02  0.11494579720E+03  0.00000000000E+00 0.  1.
</event>
<event>
12    1  0.1683022E-002  0.2369903E+03  0.7818608E-02  0.1122031E+00
         21   -1    0    0  503  502  0.00000000000E+00  0.00000000000E+00  0.11882640219E+04  0.11882640219E+04  0.00000000000E+00 0.  1.
         21   -1    0    0  501  503 -0.00000000000E+00 -0.00000000000E+00 -0.47394790432E+02  0.47394790432E+02  0.00000000000E+00 0. -1.
          6    2    1    2  501    0  0.11135300809E+03 -0.11758946070E+03  0.62442879677E+03  0.66743777539E+03  0.17127489047E+03 0.  0.
         24    2    3    3    0    0  0.64788196547E+02 -0.92766902944E+02  0.20220727796E+03  0.24190570610E+03  0.69479340034E+02 0.  0.
         -6    2    1    2    0  502 -0.11135300809E+03  0.11758946070E+03  0.51644043473E+03  0.56822103697E+03  0.17302499979E+03 0.  0.
        -24    2    5    5    0    0 -0.28341045975E+02  0.12448562426E+03  0.37379149410E+03  0.40296561894E+03  0.79757905236E+02 0.  0.
          5    1    3    3  501    0  0.46564811548E+02 -0.24822557758E+02  0.42222151881E+03  0.42553206929E+03  0.47000000000E+01 0. -1.
        -13    1    4    4    0    0  0.91329146089E+01 -0.41802291432E+02  0.13226310241E+03  0.13901212162E+03  0.00000000000E+00 0.  1.
         14    1    4    4    0    0  0.55655281938E+02 -0.50964611512E+02  0.69944175545E+02  0.10289358448E+03  0.00000000000E+00 0. -1.
         -5    1    5    5    0  502 -0.83011962120E+02 -0.68961635611E+01  0.14264894063E+03  0.16525541804E+03  0.47000000000E+01 0.  1.
         13    1    6    6    0    0  0.24735866170E+02  0.54804515457E+02  0.19156385011E+03  0.20077875052E+03  0.00000000000E+00 0. -1.
        -14    1    6    6    0    0 -0.53076912145E+02  0.69681108807E+02  0.18222764399E+03  0.20218686842E+03  0.00000000000E+00 0.  1.
</event>
<event>
12    1  0.1683022E-002  0.4012248E+03  0.7818608E-02  0.1043381E+00
         21   -1    0    0  501  502  0.00000000000E+00  0.00000000000E+00  0.64241451439E+02  0.64241451439E+02  0.00000000000E+00 0.  1.
         21   -1    0    0  502  503 -0.00000000000E+00 -0.00000000000E+00 -0.25420228537E+04  0.25420228537E+04  0.00000000000E+00 0.  1.
          6    2    1    2  501    0 -0.31658604845E+03  0.17696687764E+03 -0.10792024699E+04  0.11512713852E+04  0.17089127955E+03 0.  0.
         24    2    3    3    0    0 -0.30832781170E+03  0.16710651632E+03 -0.10794655241E+04  0.11375752398E+04  0.76426312347E+02 0.  0.
         -6    2    1    2    0  503  0.31658604845E+03 -0.17696687764E+03 -0.13985789324E+04  0.14549929200E+04  0.17157320668E+03 0.  0.
        -24    2    5    5    0    0  0.25863677264E+03 -0.20158972324E+03 -0.11599588728E+04  0.12081609408E+04  0.81344180592E+02 0.  0.
          5    1    3    3  501    0 -0.82582367589E+01  0.98603613240E+01  0.26305423252E+00  0.13696145346E+02  0.47000000000E+01 0. -1.
        -13    1    4    4    0    0 -0.22459848154E+03  0.13004970356E+03 -0.68234594337E+03  0.73003656740E+03  0.00000000000E+00 0.  1.
         14    1    4    4    0    0 -0.83729330154E+02  0.37056812758E+02 -0.39711958078E+03  0.40753867244E+03  0.00000000000E+00 0. -1.
         -5    1    5    5    0  503  0.57949275816E+02  0.24622845596E+02 -0.23862005962E+03  0.24683197918E+03  0.47000000000E+01 0.  1.
         13    1    6    6    0    0  0.29846805037E+02 -0.52113018475E+02 -0.29514162663E+03  0.30118960512E+03  0.00000000000E+00 0. -1.
        -14    1    6    6    0    0  0.22878996760E+03 -0.14947670476E+03 -0.86481724615E+03  0.90697133570E+03  0.00000000000E+00 0.  1.
</event>
<event>
12    1  0.1683022E-002  0.2057939E+03  0.7818608E-02  0.1145426E+00
         21   -1    0    0  503  502  0.00000000000E+00  0.00000000000E+00  0.46025873403E+03  0.46025873403E+03  0.00000000000E+00 0.  1.
         21   -1    0    0  501  503 -0.00000000000E+00 -0.00000000000E+00 -0.94292276113E+02  0.94292276113E+02  0.00000000000E+00 0.  1.
          6    2    1    2  501    0 -0.98620061105E+02  0.55945724894E+02  0.13186220681E+03  0.24441513607E+03  0.17174188938E+03 0.  0.
         24    2    3    3    0    0 -0.77198285150E+02 -0.27003117589E+02  0.10046365402E+03  0.15305123690E+03  0.81504550472E+02 0.  0.
         -6    2    1    2    0  502  0.98620061105E+02 -0.55945724894E+02  0.23410425111E+03  0.31013587407E+03  0.16888937034E+03 0.  0.
        -24    2    5    5    0    0  0.80822716763E+01 -0.71473787037E+02  0.99944676018E+02  0.14747335959E+03  0.81151883378E+02 0.  0.
          5    1    3    3  501    0 -0.21421775955E+02  0.82948842483E+02  0.31398552786E+02  0.91363899169E+02  0.47000000000E+01 0. -1.
        -13    1    4    4    0    0 -0.59896478958E+02  0.83456565696E+01  0.95976408482E+02  0.11344033304E+03  0.00000000000E+00 0.  1.
         14    1    4    4    0    0 -0.17301806192E+02 -0.35348774159E+02  0.44872455389E+01  0.39610903860E+02  0.00000000000E+00 0. -1.
         -5    1    5    5    0  502  0.90537789429E+02  0.15528062143E+02  0.13415957509E+03  0.16266251448E+03  0.47000000000E+01 0.  1.
         13    1    6    6    0    0 -0.28629967833E+01 -0.28140209975E+02  0.98794668389E+02  0.10276407286E+03  0.00000000000E+00 0. -1.
        -14    1    6    6    0    0  0.10945268460E+02 -0.43333577063E+02  0.11500076286E+01  0.44709286734E+02  0.00000000000E+00 0.  1.
</event>
<event>
12    1  0.1683022E-002  0.2103101E+03  0.7818608E-02  0.1141491E+00
         21   -1    0    0  503  502  0.00000000000E+00  0.00000000000E+00  0.81759894107E+03  0.81759894107E+03  0.00000000000E+00 0.  1.
         21   -1    0    0  501  503 -0.00000000000E+00 -0.00000000000E+00 -0.65010936657E+02  0.65010936657E+02  0.00000000000E+00 0. -1.
          6    2    1    2  501    0 -0.11832076317E+03 -0.26799466841E+02  0.19429962637E+03  0.28632616540E+03  0.17179148339E+03 0.  0.
         24    2    3    3    0    0 -0.68863947046E+02  0.53376002903E+02  0.11202831098E+03  0.16116729858E+03  0.76376140121E+02 0.  0.
         -6    2    1    2    0  502  0.11832076317E+03  0.26799466841E+02  0.55828837804E+03  0.59628371232E+03  0.17073470095E+03 0.  0.
        -24    2    5    5    0    0  0.70037802617E+01 -0.28634490479E+02  0.24029954770E+03  0.25481134078E+03  0.79473012915E+02 0.  0.
          5    1    3    3  501    0 -0.49456816120E+02 -0.80175469744E+02  0.82271315389E+02  0.12515886683E+03  0.47000000000E+01 0. -1.
        -13    1    4    4    0    0 -0.83550952375E+01 -0.34898063844E+01  0.65221877917E+02  0.65847397246E+02  0.00000000000E+00 0.  1.
         14    1    4    4    0    0 -0.60508851809E+02  0.56865809288E+02  0.46806433066E+02  0.95319901329E+02  0.00000000000E+00 0. -1.
         -5    1    5    5    0  502  0.11131698290E+03  0.55433957320E+02  0.31798883034E+03  0.34147237154E+03  0.47000000000E+01 0.  1.
         11    1    6    6    0    0  0.25607301688E+02 -0.13489152940E+02  0.25193893506E+02  0.38372169821E+02  0.00000000000E+00 0. -1.
        -12    1    6    6    0    0 -0.18603521427E+02 -0.15145337539E+02  0.21510565420E+03  0.21643917096E+03  0.00000000000E+00 0.  1.
</event>
<event>
12    1  0.1683022E-002  0.2202553E+03  0.7818608E-02  0.1134535E+00
         21   -1    0    0  503  502  0.00000000000E+00  0.00000000000E+00  0.88672104325E+03  0.88672104325E+03  0.00000000000E+00 0. -1.
         21   -1    0    0  501  503 -0.00000000000E+00 -0.00000000000E+00 -0.57303259256E+02  0.57303259256E+02  0.00000000000E+00 0. -1.
          6    2    1    2  501    0 -0.13084262417E+03 -0.38331177799E+02  0.29875901529E+03  0.37117292063E+03  0.17298357235E+03 0.  0.
         24    2    3    3    0    0 -0.14611463991E+03 -0.67441710975E+02  0.26787225453E+03  0.32582162961E+03  0.92229698067E+02 0.  0.
         -6    2    1    2    0  502  0.13084262417E+03  0.38331177799E+02  0.53065876870E+03  0.57285138187E+03  0.16724504603E+03 0.  0.
        -24    2    5    5    0    0  0.82747144504E+02  0.76514789968E+02  0.45468363937E+03  0.47504814226E+03  0.78942526820E+02 0.  0.
          5    1    3    3  501    0  0.15272015737E+02  0.29110533177E+02  0.30886760768E+02  0.45351291020E+02  0.47000000000E+01 0. -1.
        -11    1    4    4    0    0 -0.66010525423E+02  0.12641088212E+02  0.13798426278E+03  0.15348238776E+03  0.00000000000E+00 0.  1.
         12    1    4    4    0    0 -0.80104114483E+02 -0.80082799187E+02  0.12988799174E+03  0.17233924185E+03  0.00000000000E+00 0. -1.
         -5    1    5    5    0  502  0.48095479665E+02 -0.38183612170E+02  0.75975129324E+02  0.97803239611E+02  0.47000000000E+01 0.  1.
         13    1    6    6    0    0  0.25780403401E+02 -0.23097156202E+01  0.21243659313E+03  0.21400764025E+03  0.00000000000E+00 0. -1.
        -14    1    6    6    0    0  0.56966741103E+02  0.78824505588E+02  0.24224704624E+03  0.26104050200E+03  0.00000000000E+00 0.  1.
</event>
<event>
12    1  0.2066315E-002  0.2101262E+03  0.7818608E-02  0.1141900E+00
         21   -1    0    0  503  502  0.00000000000E+00  0.00000000000E+00  0.87824845572E+02  0.87824845572E+02  0.00000000000E+00 0. -1.
         21   -1    0    0  501  503 -0.00000000000E+00 -0.00000000000E+00 -0.50487196027E+03  0.50487196027E+03  0.00000000000E+00 0. -1.
          6    2    1    2  501    0 -0.44804768050E+02 -0.10614361979E+03 -0.24533762312E+03  0.32302258145E+03  0.17572451037E+03 0.  0.
         24    2    3    3    0    0 -0.72050669191E+01 -0.56990336339E+02 -0.36779455633E+02  0.10542574778E+03  0.80386867784E+02 0.  0.
         -6    2    1    2    0  502  0.44804768050E+02  0.10614361979E+03 -0.17170949158E+03  0.26967422439E+03  0.17310719956E+03 0.  0.
        -24    2    5    5    0    0  0.37067334805E+01  0.18229224514E+02 -0.10161331137E+02  0.81159271445E+02  0.78342390770E+02 0.  0.
          5    1    3    3  501    0 -0.37599701131E+02 -0.49153283453E+02 -0.20855816749E+03  0.21759683367E+03  0.47000000000E+01 0. -1.
        -13    1    4    4    0    0  0.41853202000E+01  0.19329395702E+02  0.37690822786E+00  0.19780912597E+02  0.00000000000E+00 0.  1.
         14    1    4    4    0    0 -0.11390387119E+02 -0.76319732040E+02 -0.37156363861E+02  0.85644835179E+02  0.00000000000E+00 0. -1.
         -5    1    5    5    0  502  0.41098034570E+02  0.87914395278E+02 -0.16154816044E+03  0.18851495294E+03  0.47000000000E+01 0.  1.
         11    1    6    6    0    0 -0.24672739730E+02  0.35906850154E+02 -0.17463364472E+02  0.46936287373E+02  0.00000000000E+00 0. -1.
        -12    1    6    6    0    0  0.28379473210E+02 -0.17677625640E+02  0.73020333346E+01  0.34222984072E+02  0.00000000000E+00 0.  1.
</event>
<event>
12    1  0.1683022E-002  0.2164290E+03  0.7818608E-02  0.1136738E+00
         21   -1    0    0  503  502  0.00000000000E+00  0.00000000000E+00  0.93755368447E+02  0.93755368447E+02  0.00000000000E+00 0. -1.
         21   -1    0    0  501  503 -0.00000000000E+00 -0.00000000000E+00 -0.70639560522E+03  0.70639560522E+03  0.00000000000E+00 0.  1.
          6    2    1    2  501    0 -0.57878736012E+02 -0.11677391181E+03 -0.52424273179E+03  0.56716132687E+03  0.17278725155E+03 0.  0.
         24    2    3    3    0    0 -0.13618418486E+02 -0.34153935528E+02 -0.40994232335E+03  0.41927045643E+03  0.79894020629E+02 0.  0.
         -6    2    1    2    0  502  0.57878736012E+02  0.11677391181E+03 -0.88397504985E+02  0.23298964680E+03  0.17170894580E+03 0.  0.
        -24    2    5    5    0    0  0.83436886113E+02  0.11778858848E+03 -0.28764451785E+02  0.16793244398E+03  0.80858187671E+02 0.  0.
          5    1    3    3  501    0 -0.44260317527E+02 -0.82619976280E+02 -0.11430040844E+03  0.14789087044E+03  0.47000000000E+01 0. -1.
        -11    1    4    4    0    0 -0.12219414730E+02  0.25343821539E+02 -0.11595835651E+03  0.11932293925E+03  0.00000000000E+00 0.  1.
         12    1    4    4    0    0 -0.13990037555E+01 -0.59497757067E+02 -0.29398396684E+03  0.29994751718E+03  0.00000000000E+00 0. -1.
         -5    1    5    5    0  502 -0.25558150100E+02 -0.10146766720E+01 -0.59633053200E+02  0.65057202824E+02  0.47000000000E+01 0.  1.
         11    1    6    6    0    0  0.63656623657E+02  0.36547802994E+02  0.12876398571E+02  0.74523213023E+02  0.00000000000E+00 0. -1.
        -12    1    6    6    0    0  0.19780262456E+02  0.81240785486E+02 -0.41640850356E+02  0.93409230955E+02  0.00000000000E+00 0.  1.
</event>
<event>
12    1  0.1683022E-002  0.1920375E+03  0.7818608E-02  0.1156962E+00
         21   -1    0    0  501  502  0.00000000000E+00  0.00000000000E+00  0.11489533170E+03  0.11489533170E+03  0.00000000000E+00 0. -1.
         21   -1    0    0  502  503 -0.00000000000E+00 -0.00000000000E+00 -0.33564718628E+03  0.33564718628E+03  0.00000000000E+00 0. -1.
          6    2    1    2  501    0  0.83873714264E+02  0.17433427286E+02 -0.59117920626E+02  0.19953669272E+03  0.17023877018E+03 0.  0.
         24    2    3    3    0    0  0.10853918716E+03 -0.25828127555E+02 -0.59416265591E+02  0.14951543034E+03  0.79854392317E+02 0.  0.
         -6    2    1    2    0  503 -0.83873714264E+02 -0.17433427286E+02 -0.16163393396E+03  0.25100582525E+03  0.17187108940E+03 0.  0.
        -24    2    5    5    0    0 -0.80620808411E+02 -0.73659401277E+02 -0.11828718150E+03  0.17978102271E+03  0.80024600440E+02 0.  0.
          5    1    3    3  501    0 -0.24665472894E+02  0.43261554841E+02  0.29834496499E+00  0.50021262380E+02  0.47000000000E+01 0. -1.
        -13    1    4    4    0    0 -0.29983807003E+01  0.10956333506E+02 -0.24472985390E+02  0.26980706896E+02  0.00000000000E+00 0.  1.
         14    1    4    4    0    0  0.11153756786E+03 -0.36784461060E+02 -0.34943280201E+02  0.12253472345E+03  0.00000000000E+00 0. -1.
         -5    1    5    5    0  503 -0.32529058523E+01  0.56225973991E+02 -0.43346752462E+02  0.71224802539E+02  0.47000000000E+01 0.  1.
         11    1    6    6    0    0 -0.22305283693E+02 -0.67421554939E+02 -0.38568273523E+02  0.80812768011E+02  0.00000000000E+00 0. -1.
        -12    1    6    6    0    0 -0.58315524718E+02 -0.62378463384E+01 -0.79718907973E+02  0.98968254701E+02  0.00000000000E+00 0.  1.
</event>
<event>
12    1  0.1683022E-002  0.2249889E+03  0.7818608E-02  0.1130284E+00
         21   -1    0    0  501  502  0.00000000000E+00  0.00000000000E+00  0.24699565410E+03  0.24699565410E+03  0.00000000000E+00 0.  1.
         21   -1    0    0  502  503 -0.00000000000E+00 -0.00000000000E+00 -0.26994170580E+03  0.26994170580E+03  0.00000000000E+00 0.  1.
          6    2    1    2  501    0  0.50023870933E+02 -0.13589354032E+03  0.11567789841E+03  0.25298494862E+03  0.17219339733E+03 0.  0.
         24    2    3    3    0    0  0.15557140049E+02 -0.90547509951E+02 -0.29627997110E+01  0.12129621236E+03  0.79139855855E+02 0.  0.
         -6    2    1    2    0  503 -0.50023870933E+02  0.13589354032E+03 -0.13862395012E+03  0.26395241128E+03  0.17171148451E+03 0.  0.
        -24    2    5    5    0    0  0.25720902866E+02  0.98783851757E+02 -0.44513376054E+02  0.13748783168E+03  0.80632803503E+02 0.  0.
          5    1    3    3  501    0  0.34466730884E+02 -0.45346030365E+02  0.11864069812E+03  0.13168873627E+03  0.47000000000E+01 0. -1.
        -11    1    4    4    0    0 -0.13355302131E+02 -0.57429645611E+02  0.30182853971E+02  0.66238455325E+02  0.00000000000E+00 0.  1.
         12    1    4    4    0    0  0.28912442180E+02 -0.33117864340E+02 -0.33145653682E+02  0.55057757031E+02  0.00000000000E+00 0. -1.
         -5    1    5    5    0  503 -0.75744773799E+02  0.37109688559E+02 -0.94110574062E+02  0.12646457960E+03  0.47000000000E+01 0.  1.
         11    1    6    6    0    0  0.51707413853E+02  0.72318015476E+02 -0.46529446019E+02  0.10034212155E+03  0.00000000000E+00 0. -1.
        -12    1    6    6    0    0 -0.25986510987E+02  0.26465836280E+02  0.20160699653E+01  0.37145710135E+02  0.00000000000E+00 0.  1.
</event>
<event>
12    1  0.1683022E-002  0.1841181E+03  0.7818608E-02  0.1164023E+00
         21   -1    0    0  501  502  0.00000000000E+00  0.00000000000E+00  0.43217383557E+03  0.43217383557E+03  0.00000000000E+00 0.  1.
         21   -1    0    0  502  503 -0.00000000000E+00 -0.00000000000E+00 -0.95383379380E+02  0.95383379380E+02  0.00000000000E+00 0.  1.
          6    2    1    2  501    0 -0.40247867318E-01 -0.63495263737E+02  0.28020675140E+03  0.33494055774E+03  0.17215604419E+03 0.  0.
         24    2    3    3    0    0 -0.25616270293E+02 -0.99032098246E+02  0.15135940818E+03  0.19877621811E+03  0.78350269032E+02 0.  0.
         -6    2    1    2    0  503  0.40247867318E-01  0.63495263737E+02  0.56583704792E+02  0.19261665721E+03  0.17282306227E+03 0.  0.
        -24    2    5    5    0    0 -0.41353887268E+02  0.25736286569E+02  0.87730446233E+02  0.12834050080E+03  0.80013452066E+02 0.  0.
          5    1    3    3  501    0  0.25576022426E+02  0.35536834509E+02  0.12884734322E+03  0.13616433962E+03  0.47000000000E+01 0. -1.
        -11    1    4    4    0    0 -0.53193920727E+02 -0.53621942230E+02  0.83492403659E+02  0.11258724333E+03  0.00000000000E+00 0.  1.
         12    1    4    4    0    0  0.27577650434E+02 -0.45410156016E+02  0.67867004519E+02  0.86188974789E+02  0.00000000000E+00 0. -1.
         -5    1    5    5    0  503  0.41394135136E+02  0.37758977168E+02 -0.31146741441E+02  0.64276156410E+02  0.47000000000E+01 0.  1.
         13    1    6    6    0    0  0.17213633715E+02 -0.24454916565E+01  0.50562907393E+02  0.53468656418E+02  0.00000000000E+00 0. -1.
        -14    1    6    6    0    0 -0.58567520984E+02  0.28181778225E+02  0.37167538840E+02  0.74871844385E+02  0.00000000000E+00 0.  1.
</event>
<event>
12    1  0.1683022E-002  0.1835363E+03  0.7818608E-02  0.1164495E+00
         21   -1    0    0  501  502  0.00000000000E+00  0.00000000000E+00  0.75268480236E+03  0.75268480236E+03  0.00000000000E+00 0. -1.
         21   -1    0    0  502  503 -0.00000000000E+00 -0.00000000000E+00 -0.47434754945E+02  0.47434754945E+02  0.00000000000E+00 0. -1.
          6    2    1    2  501    0  0.43415667435E+02 -0.44057092333E+02  0.44929923392E+03  0.48534046282E+03  0.17279935096E+03 0.  0.
         24    2    3    3    0    0  0.64101051718E+02 -0.29734217689E+01  0.13882866205E+03  0.17144586410E+03  0.77475808119E+02 0.  0.
         -6    2    1    2    0  503 -0.43415667435E+02  0.44057092333E+02  0.25595081350E+03  0.31477909448E+03  0.17247930841E+03 0.  0.
        -24    2    5    5    0    0 -0.76248341731E+02 -0.89831103729E+01  0.20902426888E+03  0.23657782726E+03  0.79896292055E+02 0.  0.
          5    1    3    3  501    0 -0.20685384283E+02 -0.41083670564E+02  0.31047057187E+03  0.31389459872E+03  0.47000000000E+01 0. -1.
        -11    1    4    4    0    0 -0.16711106568E+02  0.38653073905E+01  0.40527171063E+02  0.44007422991E+02  0.00000000000E+00 0.  1.
         12    1    4    4    0    0  0.80812158285E+02 -0.68387291594E+01  0.98301490984E+02  0.12743844111E+03  0.00000000000E+00 0. -1.
         -5    1    5    5    0  503  0.32832674296E+02  0.53040202706E+02  0.46926544624E+02  0.78201267221E+02  0.47000000000E+01 0.  1.
         11    1    6    6    0    0 -0.47685583958E+02 -0.38973499667E+02  0.79318909823E+02  0.10042080486E+03  0.00000000000E+00 0. -1.
        -12    1    6    6    0    0 -0.28562757772E+02  0.29990389294E+02  0.12970535906E+03  0.13615702240E+03  0.00000000000E+00 0.  1.
</event>
<event>
12    1  0.1683022E-002  0.2067488E+03  0.7818608E-02  0.1144533E+00
         21   -1    0    0  501  502  0.00000000000E+00  0.00000000000E+00  0.28554487585E+03  0.28554487585E+03  0.00000000000E+00 0. -1.
         21   -1    0    0  502  503 -0.00000000000E+00 -0.00000000000E+00 -0.15606362766E+03  0.15606362766E+03  0.00000000000E+00 0.  1.
          6    2    1    2  501    0  0.21093342299E+02 -0.11334845172E+03  0.11396208985E+03  0.23607715887E+03  0.17161662630E+03 0.  0.
         24    2    3    3    0    0  0.70664598920E+01  0.19420702352E+01  0.28190784599E+02  0.91621405490E+02  0.86868032760E+02 0.  0.
         -6    2    1    2    0  503 -0.21093342299E+02  0.11334845172E+03  0.15519158348E+02  0.20553134463E+03  0.16943874632E+03 0.  0.
        -24    2    5    5    0    0  0.24840940306E+02  0.28722473071E+02  0.44427807615E+02  0.10488684859E+03  0.87094018990E+02 0.  0.
          5    1    3    3  501    0  0.14026882407E+02 -0.11529052195E+03  0.85771305247E+02  0.14445575338E+03  0.47000000000E+01 0. -1.
        -13    1    4    4    0    0  0.42277053577E+02  0.19681393953E+02  0.79637651161E+01  0.47308858387E+02  0.00000000000E+00 0.  1.
         14    1    4    4    0    0 -0.35210593685E+02 -0.17739323718E+02  0.20227019483E+02  0.44312547103E+02  0.00000000000E+00 0. -1.
         -5    1    5    5    0  503 -0.45934282605E+02  0.84625978645E+02 -0.28908649267E+02  0.10064449604E+03  0.47000000000E+01 0.  1.
         13    1    6    6    0    0  0.33285188317E+02 -0.14341999169E+02 -0.73833989816E+01  0.36987988347E+02  0.00000000000E+00 0. -1.
        -14    1    6    6    0    0 -0.84442480107E+01  0.43064472240E+02  0.51811206596E+02  0.67898860246E+02  0.00000000000E+00 0.  1.
</event>
<event>
12    1  0.1683022E-002  0.5306171E+03  0.7818608E-02  0.1006098E+00
         21   -1    0    0  503  502  0.00000000000E+00  0.00000000000E+00  0.21592107576E+03  0.21592107576E+03  0.00000000000E+00 0. -1.
         21   -1    0    0  501  503 -0.00000000000E+00 -0.00000000000E+00 -0.13254227536E+04  0.13254227536E+04  0.00000000000E+00 0.  1.
          6    2    1    2  501    0  0.50050232981E+03 -0.42961414573E+02 -0.45518689388E+03  0.69891735418E+03  0.17012376180E+03 0.  0.
         24    2    3    3    0    0  0.14984119495E+03 -0.12186069453E+02 -0.20049794830E+03  0.26440739760E+03  0.84326512081E+02 0.  0.
         -6    2    1    2    0  502 -0.50050232981E+03  0.42961414573E+02 -0.65431478401E+03  0.84242647524E+03  0.17089840352E+03 0.  0.
        -24    2    5    5    0    0 -0.48528408715E+03  0.82115306066E+01 -0.59441396246E+03  0.77136771246E+03  0.78180013954E+02 0.  0.
          5    1    3    3  501    0  0.35066113486E+03 -0.30775345121E+02 -0.25468894558E+03  0.43450995658E+03  0.47000000000E+01 0. -1.
        -13    1    4    4    0    0  0.99458353817E+02  0.28806382765E+02 -0.95030747506E+02  0.14054399597E+03  0.00000000000E+00 0.  1.
         14    1    4    4    0    0  0.50382841131E+02 -0.40992452217E+02 -0.10546720079E+03  0.12386340162E+03  0.00000000000E+00 0. -1.
         -5    1    5    5    0  502 -0.15218242654E+02  0.34749883966E+02 -0.59900821542E+02  0.71058762771E+02  0.47000000000E+01 0.  1.
         11    1    6    6    0    0 -0.74000457492E+02  0.22292505179E+02 -0.66148270836E+02  0.10172815358E+03  0.00000000000E+00 0. -1.
        -12    1    6    6    0    0 -0.41128362966E+03 -0.14080974572E+02 -0.52826569163E+03  0.66963955888E+03  0.00000000000E+00 0.  1.
</event>
<event>
12    1  0.1683022E-002  0.2223481E+03  0.7818608E-02  0.1132272E+00
         21   -1    0    0  503  502  0.00000000000E+00  0.00000000000E+00  0.22114216251E+03  0.22114216251E+03  0.00000000000E+00 0. -1.
         21   -1    0    0  501  503 -0.00000000000E+00 -0.00000000000E+00 -0.22294010113E+03  0.22294010113E+03  0.00000000000E+00 0. -1.
          6    2    1    2  501    0  0.13923025568E+03 -0.21003379392E+02  0.31434368762E+01  0.22167930445E+03  0.17118886290E+03 0.  0.
         24    2    3    3    0    0  0.36975827859E+02  0.37622427642E+02  0.27740644236E+02  0.10118006847E+03  0.81763096845E+02 0.  0.
         -6    2    1    2    0  502 -0.13923025568E+03  0.21003379392E+02 -0.49413754898E+01  0.22240295919E+03  0.17208269239E+03 0.  0.
        -24    2    5    5    0    0 -0.34739070356E+02 -0.83734147351E+01  0.49553244421E+02  0.10085808088E+03  0.80249058328E+02 0.  0.
          5    1    3    3  501    0  0.10225442783E+03 -0.58625807035E+02 -0.24597207360E+02  0.12049923597E+03  0.47000000000E+01 0. -1.
        -13    1    4    4    0    0 -0.94408848942E+01 -0.19189340247E+02 -0.30791464320E+01  0.21606532102E+02  0.00000000000E+00 0.  1.
         14    1    4    4    0    0  0.46416712753E+02  0.56811767890E+02  0.30819790668E+02  0.79573536370E+02  0.00000000000E+00 0. -1.
         -5    1    5    5    0  502 -0.10449118533E+03  0.29376794128E+02 -0.54494619911E+02  0.12154487831E+03  0.47000000000E+01 0.  1.
         13    1    6    6    0    0 -0.21516315545E+02  0.23761173053E+02  0.56930650597E+02  0.65334861727E+02  0.00000000000E+00 0. -1.
        -14    1    6    6    0    0 -0.13222754811E+02 -0.32134587788E+02 -0.73774061754E+01  0.35523219153E+02  0.00000000000E+00 0.  1.
</event>
<event>
12    1  0.1683022E-002  0.1877155E+03  0.7818608E-02  0.1160789E+00
         21   -1    0    0  501  502  0.00000000000E+00  0.00000000000E+00  0.35039161679E+03  0.35039161679E+03  0.00000000000E+00 0.  1.
         21   -1    0    0  502  503 -0.00000000000E+00 -0.00000000000E+00 -0.11352329379E+03  0.11352329379E+03  0.00000000000E+00 0.  1.
          6    2    1    2  501    0 -0.73234612820E+02 -0.95290349814E+01  0.19885567955E+03  0.27346058008E+03  0.17257750880E+03 0.  0.
         24    2    3    3    0    0 -0.17510702390E+02 -0.65989892118E+02  0.83814334426E+02  0.13364075434E+03  0.78573010661E+02 0.  0.
         -6    2    1    2    0  503  0.73234612820E+02  0.95290349814E+01  0.38012643448E+02  0.19045433051E+03  0.17138780565E+03 0.  0.
        -24    2    5    5    0    0  0.45578489591E+02 -0.54950759891E+02 -0.71638252534E+01  0.10687497646E+03  0.79208304333E+02 0.  0.
          5    1    3    3  501    0 -0.55723910430E+02  0.56460857136E+02  0.11504134512E+03  0.13981982574E+03  0.47000000000E+01 0. -1.
        -13    1    4    4    0    0 -0.36742982244E+02 -0.73505175879E+02  0.74757277950E+02  0.11109324116E+03  0.00000000000E+00 0.  1.
         14    1    4    4    0    0  0.19232279854E+02  0.75152837612E+01  0.90570564755E+01  0.22547513175E+02  0.00000000000E+00 0. -1.
         -5    1    5    5    0  503  0.27656123229E+02  0.64479794872E+02  0.45176468701E+02  0.83579354048E+02  0.47000000000E+01 0.  1.
         11    1    6    6    0    0  0.61648920207E+02 -0.16364586704E+02  0.30127919543E+01  0.63855038768E+02  0.00000000000E+00 0. -1.
        -12    1    6    6    0    0 -0.16070430616E+02 -0.38586173187E+02 -0.10176617208E+02  0.43019937694E+02  0.00000000000E+00 0.  1.
</event>
<event>
12    1  0.1683022E-002  0.3936659E+03  0.7818608E-02  0.1046054E+00
         21   -1    0    0  503  502  0.00000000000E+00  0.00000000000E+00  0.14328617166E+03  0.14328617166E+03  0.00000000000E+00 0.  1.
         21   -1    0    0  501  503 -0.00000000000E+00 -0.00000000000E+00 -0.11802989686E+04  0.11802989686E+04  0.00000000000E+00 0. -1.
          6    2    1    2  501    0 -0.10533612410E+03 -0.33760688274E+03 -0.71206634410E+03  0.81364078351E+03  0.17291252089E+03 0.  0.
         24    2    3    3    0    0 -0.67558068356E+02 -0.19170572465E+03 -0.27066831726E+03  0.34719824951E+03  0.77266480652E+02 0.  0.
         -6    2    1    2    0  502  0.10533612410E+03  0.33760688274E+03 -0.32494645287E+03  0.50994435676E+03  0.17140286884E+03 0.  0.
        -24    2    5    5    0    0  0.12892986519E+03  0.21402718071E+03 -0.18227864338E+03  0.31966876391E+03  0.80821225952E+02 0.  0.
          5    1    3    3  501    0 -0.37778055748E+02 -0.14590115810E+03 -0.44139802684E+03  0.46644253400E+03  0.47000000000E+01 0. -1.
        -13    1    4    4    0    0  0.12499211499E+02 -0.38393841949E+02 -0.27730018453E+02  0.48982357141E+02  0.00000000000E+00 0.  1.
         14    1    4    4    0    0 -0.80057279855E+02 -0.15331188270E+03 -0.24293829881E+03  0.29821589237E+03  0.00000000000E+00 0. -1.
         -5    1    5    5    0  502 -0.23593741086E+02  0.12357970203E+03 -0.14266780949E+03  0.19027559286E+03  0.47000000000E+01 0.  1.
         11    1    6    6    0    0  0.60716131324E+01 -0.59471660442E+01  0.31417209077E+00  0.85048206383E+01  0.00000000000E+00 0. -1.
        -12    1    6    6    0    0  0.12285825206E+03  0.21997434676E+03 -0.18259281547E+03  0.31116394327E+03  0.00000000000E+00 0.  1.
</event>
<event>
12    1  0.1683022E-002  0.1860336E+03  0.7818608E-02  0.1162141E+00
         21   -1    0    0  503  502  0.00000000000E+00  0.00000000000E+00  0.17224992573E+02  0.17224992573E+02  0.00000000000E+00 0.  1.
         21   -1    0    0  501  503 -0.00000000000E+00 -0.00000000000E+00 -0.20349926310E+04  0.20349926310E+04  0.00000000000E+00 0. -1.
          6    2    1    2  501    0 -0.38824043214E+01  0.72836348287E+02 -0.88734299606E+03  0.90658750591E+03  0.17088916445E+03 0.  0.
         24    2    3    3    0    0  0.24321497035E+02  0.67203332925E+02 -0.86070520814E+03  0.86710519774E+03  0.77137185872E+02 0.  0.
         -6    2    1    2    0  502  0.38824043214E+01 -0.72836348287E+02 -0.11304246423E+04  0.11456301176E+04  0.17113821234E+03 0.  0.
        -24    2    5    5    0    0 -0.48322238563E+02  0.26168706634E-02 -0.52736701582E+03  0.53593229863E+03  0.82294717941E+02 0.  0.
          5    1    3    3  501    0 -0.28203901357E+02  0.56330153627E+01 -0.26637787916E+02  0.39482308176E+02  0.47000000000E+01 0. -1.
        -11    1    4    4    0    0  0.13872752371E+02  0.23614837481E+02 -0.70550577860E+02  0.75680234169E+02  0.00000000000E+00 0.  1.
         12    1    4    4    0    0  0.10448744665E+02  0.43588495443E+02 -0.79015463028E+03  0.79142496357E+03  0.00000000000E+00 0. -1.
         -5    1    5    5    0  502  0.52204642885E+02 -0.72838965158E+02 -0.60305762651E+03  0.60969781898E+03  0.47000000000E+01 0.  1.
         13    1    6    6    0    0 -0.39676932128E+02 -0.10334375965E+02 -0.51776440193E+03  0.51938524640E+03  0.00000000000E+00 0. -1.
        -14    1    6    6    0    0 -0.86453064350E+01  0.10336992836E+02 -0.96026138866E+01  0.16547052236E+02  0.00000000000E+00 0.  1.
</event>
<event>
12    1  0.1683022E-002  0.2170252E+03  0.7818608E-02  0.1136235E+00
         21   -1    0    0  503  502  0.00000000000E+00  0.00000000000E+00  0.66963292656E+03  0.66963292656E+03  0.00000000000E+00 0. -1.
         21   -1    0    0  501  503 -0.00000000000E+00 -0.00000000000E+00 -0.11371097630E+03  0.11371097630E+03  0.00000000000E+00 0.  1.
          6    2    1    2  501    0 -0.71716105825E+02  0.10984104615E+03  0.35281644887E+02  0.21928160038E+03  0.17213764999E+03 0.  0.
         24    2    3    3    0    0  0.21777911483E+02  0.10293803137E+03  0.26408731782E+01  0.11990206092E+03  0.57437046154E+02 0.  0.
         -6    2    1    2    0  502  0.71716105825E+02 -0.10984104615E+03  0.52064030537E+03  0.56406230248E+03  0.17289215787E+03 0.  0.
        -24    2    5    5    0    0  0.11163784826E+03 -0.97221573052E+02  0.34923694254E+03  0.38755678016E+03  0.79490706281E+02 0.  0.
          5    1    3    3  501    0 -0.93494017308E+02  0.69030147777E+01  0.32640771709E+02  0.99379539459E+02  0.47000000000E+01 0. -1.
        -13    1    4    4    0    0 -0.49967314567E+01  0.89614032856E+02  0.50740983043E+01  0.89896544336E+02  0.00000000000E+00 0.  1.
         14    1    4    4    0    0  0.26774642939E+02  0.13323998513E+02 -0.24332251261E+01  0.30005516583E+02  0.00000000000E+00 0. -1.
         -5    1    5    5    0  502 -0.39921742430E+02 -0.12619473095E+02  0.17140336283E+03  0.17650552232E+03  0.47000000000E+01 0.  1.
         13    1    6    6    0    0  0.49361470595E+02 -0.93330471876E+02  0.22411258778E+03  0.24773692450E+03  0.00000000000E+00 0. -1.
        -14    1    6    6    0    0  0.62276377660E+02 -0.38911011762E+01  0.12512435476E+03  0.13981985566E+03  0.00000000000E+00 0.  1.
</event>
<event>
12    1  0.1683022E-002  0.2812788E+03  0.7818608E-02  0.1095053E+00
         21   -1    0    0  501  502  0.00000000000E+00  0.00000000000E+00  0.11303929292E+03  0.11303929292E+03  0.00000000000E+00 0. -1.
         21   -1    0    0  502  503 -0.00000000000E+00 -0.00000000000E+00 -0.70682436459E+03  0.70682436459E+03  0.00000000000E+00 0. -1.
          6    2    1    2  501    0  0.69672626235E+02 -0.21099983312E+03 -0.34030941357E+03  0.44122438649E+03  0.17173601209E+03 0.  0.
         24    2    3    3    0    0 -0.17910593390E+02 -0.53262139788E+02 -0.87796597609E+02  0.13084266589E+03  0.79081703168E+02 0.  0.
         -6    2    1    2    0  503 -0.69672626235E+02  0.21099983312E+03 -0.25347565809E+03  0.37863927102E+03  0.17246038353E+03 0.  0.
        -24    2    5    5    0    0 -0.40461957799E+02  0.29829369832E+02 -0.11511682319E+03  0.14876700841E+03  0.79704319061E+02 0.  0.
          5    1    3    3  501    0  0.87583219625E+02 -0.15773769333E+03 -0.25251281596E+03  0.31038172060E+03  0.47000000000E+01 0. -1.
        -13    1    4    4    0    0 -0.15826692274E+02 -0.25052334151E+02 -0.96739294656E+02  0.10117605826E+03  0.00000000000E+00 0.  1.
         14    1    4    4    0    0 -0.20839011153E+01 -0.28209805637E+02  0.89426970467E+01  0.29666607632E+02  0.00000000000E+00 0. -1.
         -5    1    5    5    0  503 -0.29210668436E+02  0.18117046329E+03 -0.13835883490E+03  0.22987226260E+03  0.47000000000E+01 0.  1.
         11    1    6    6    0    0 -0.48856651716E+02  0.31447227743E+02 -0.12369169641E+03  0.13665846593E+03  0.00000000000E+00 0. -1.
        -12    1    6    6    0    0  0.83946939167E+01 -0.16178579110E+01  0.85748732230E+01  0.12108542479E+02  0.00000000000E+00 0.  1.
</event>
<event>
12    1  0.1683022E-002  0.2053445E+03  0.7818608E-02  0.1145458E+00
         21   -1    0    0  503  502  0.00000000000E+00  0.00000000000E+00  0.43384151908E+02  0.43384151908E+02  0.00000000000E+00 0.  1.
         21   -1    0    0  501  503 -0.00000000000E+00 -0.00000000000E+00 -0.10048352641E+04  0.10048352641E+04  0.00000000000E+00 0.  1.
          6    2    1    2  501    0  0.68691649853E+02 -0.88130148132E+02 -0.38010248073E+03  0.43167048034E+03  0.17139440471E+03 0.  0.
         24    2    3    3    0    0  0.30559212081E+01 -0.70267246153E+02 -0.33134446516E+03  0.34784586447E+03  0.79125004293E+02 0.  0.
         -6    2    1    2    0  502 -0.68691649853E+02  0.88130148132E+02 -0.58134863142E+03  0.61654893563E+03  0.17228143546E+03 0.  0.
        -24    2    5    5    0    0 -0.90999829683E+02  0.93897694543E+01 -0.37465330009E+03  0.39419167329E+03  0.81564963381E+02 0.  0.
          5    1    3    3  501    0  0.65635728645E+02 -0.17862901979E+02 -0.48758015573E+02  0.83824615862E+02  0.47000000000E+01 0. -1.
        -11    1    4    4    0    0  0.71041819284E+01 -0.29116779345E+02 -0.25888505552E+02  0.39603926068E+02  0.00000000000E+00 0.  1.
         12    1    4    4    0    0 -0.40482607203E+01 -0.41150466808E+02 -0.30545595961E+03  0.30824193841E+03  0.00000000000E+00 0. -1.
         -5    1    5    5    0  502  0.22308179830E+02  0.78740378677E+02 -0.20669533133E+03  0.22235726234E+03  0.47000000000E+01 0.  1.
         13    1    6    6    0    0 -0.78591006999E+02  0.38462161142E+02 -0.22897279546E+03  0.24512124609E+03  0.00000000000E+00 0. -1.
        -14    1    6    6    0    0 -0.12408822684E+02 -0.29072391687E+02 -0.14568050462E+03  0.14907042720E+03  0.00000000000E+00 0.  1.
</event>
<event>
12    1  0.1683022E-002  0.2410788E+03  0.7818608E-02  0.1119701E+00
         21   -1    0    0  503  502  0.00000000000E+00  0.00000000000E+00  0.10835752438E+03  0.10835752438E+03  0.00000000000E+00 0. -1.
         21   -1    0    0  501  503 -0.00000000000E+00 -0.00000000000E+00 -0.52825032311E+03  0.52825032311E+03  0.00000000000E+00 0.  1.
          6    2    1    2  501    0  0.14923930931E+03 -0.65523923315E+02 -0.21755245135E+03  0.32472768739E+03  0.17763233347E+03 0.  0.
         24    2    3    3    0    0  0.61385632524E+02  0.21488618052E+02 -0.60700856512E+02  0.12494289396E+03  0.87727852949E+02 0.  0.
         -6    2    1    2    0  502 -0.14923930931E+03  0.65523923315E+02 -0.20234034737E+03  0.31188016010E+03  0.17251626623E+03 0.  0.
        -24    2    5    5    0    0 -0.95281227997E+02  0.17913839254E+01 -0.42811454840E+02  0.13175556802E+03  0.80280679960E+02 0.  0.
          5    1    3    3  501    0  0.87853676790E+02 -0.87012541368E+02 -0.15685159484E+03  0.19978479343E+03  0.47000000000E+01 0. -1.
        -11    1    4    4    0    0  0.20475856498E+02 -0.15526689475E+02 -0.64711696446E+02  0.69627167415E+02  0.00000000000E+00 0.  1.
         12    1    4    4    0    0  0.40909776026E+02  0.37015307528E+02  0.40108399342E+01  0.55315726542E+02  0.00000000000E+00 0. -1.
         -5    1    5    5    0  502 -0.53958081318E+02  0.63732539390E+02 -0.15952889253E+03  0.18012459207E+03  0.47000000000E+01 0.  1.
         13    1    6    6    0    0 -0.99134884947E+01  0.81348674124E+01  0.21261329794E+02  0.24829367019E+02  0.00000000000E+00 0. -1.
        -14    1    6    6    0    0 -0.85367739502E+02 -0.63434834870E+01 -0.64072784635E+02  0.10692620100E+03  0.00000000000E+00 0.  1.
</event>
<event>
12    1  0.1683022E-002  0.1900764E+03  0.7818608E-02  0.1160931E+00
         21   -1    0    0  503  502  0.00000000000E+00  0.00000000000E+00  0.91763348157E+02  0.91763348157E+02  0.00000000000E+00 0.  1.
         21   -1    0    0  501  503 -0.00000000000E+00 -0.00000000000E+00 -0.87064098045E+03  0.87064098045E+03  0.00000000000E+00 0.  1.
          6    2    1    2  501    0  0.37930778372E+00 -0.45172972690E+02 -0.74883321810E+03  0.76996814003E+03  0.17337533501E+03 0.  0.
         24    2    3    3    0    0  0.46778805568E+02 -0.51007650854E+02 -0.67020514789E+03  0.67836344424E+03  0.78816147682E+02 0.  0.
         -6    2    1    2    0  502 -0.37930778372E+00  0.45172972690E+02 -0.30044414192E+02  0.19243618858E+03  0.18463011270E+03 0.  0.
        -24    2    5    5    0    0  0.33975528245E+02  0.27264320386E+02 -0.84966026481E+02  0.12506076218E+03  0.80766879945E+02 0.  0.
          5    1    3    3  501    0 -0.46399497785E+02  0.58346781638E+01 -0.78628070211E+02  0.91604695781E+02  0.47000000000E+01 0. -1.
        -13    1    4    4    0    0  0.18128118840E+02 -0.10815904372E+02 -0.51642489902E+03  0.51685615872E+03  0.00000000000E+00 0.  1.
         14    1    4    4    0    0  0.28650686728E+02 -0.40191746482E+02 -0.15378024887E+03  0.16150728553E+03  0.00000000000E+00 0. -1.
         -5    1    5    5    0  502 -0.34354836029E+02  0.17908652304E+02  0.54921612289E+02  0.67375426398E+02  0.47000000000E+01 0.  1.
         13    1    6    6    0    0  0.10937265804E+02 -0.62786311248E+01 -0.83389348777E+02  0.84337586410E+02  0.00000000000E+00 0. -1.
        -14    1    6    6    0    0  0.23038262442E+02  0.33542951511E+02 -0.15766777038E+01  0.40723175772E+02  0.00000000000E+00 0.  1.
</event>
<event>
12    1  0.1683022E-002  0.2622653E+03  0.7818608E-02  0.1107155E+00
         21   -1    0    0  503  502  0.00000000000E+00  0.00000000000E+00  0.24336399207E+03  0.24336399207E+03  0.00000000000E+00 0.  1.
         21   -1    0    0  501  503 -0.00000000000E+00 -0.00000000000E+00 -0.27663697497E+03  0.27663697497E+03  0.00000000000E+00 0. -1.
          6    2    1    2  501    0 -0.16902139498E+02  0.18508158712E+03  0.13484735116E+02  0.25360023976E+03  0.17201850863E+03 0.  0.
         24    2    3    3    0    0  0.46126410938E+02  0.12377878229E+03 -0.25480676330E+02  0.15731407595E+03  0.81545207683E+02 0.  0.
         -6    2    1    2    0  502  0.16902139498E+02 -0.18508158712E+03 -0.46757718011E+02  0.26640072728E+03  0.18504644577E+03 0.  0.
        -24    2    5    5    0    0  0.67295079553E+01 -0.21506936398E+03 -0.47245235056E+02  0.23438390567E+03  0.80022405638E+02 0.  0.
          5    1    3    3  501    0 -0.63028550436E+02  0.61302804832E+02  0.38965411447E+02  0.96286163801E+02  0.47000000000E+01 0. -1.
        -11    1    4    4    0    0  0.13930841462E+01  0.73639274478E+02  0.19823933373E+02  0.76273663629E+02  0.00000000000E+00 0.  1.
         12    1    4    4    0    0  0.44733326792E+02  0.50139507812E+02 -0.45304609703E+02  0.81040412326E+02  0.00000000000E+00 0. -1.
         -5    1    5    5    0  502  0.10172631543E+02  0.29987776855E+02  0.48751704489E+00  0.32016821611E+02  0.47000000000E+01 0.  1.
         13    1    6    6    0    0 -0.24391874309E+02 -0.61352992603E+02 -0.40391369793E+02  0.77399069680E+02  0.00000000000E+00 0. -1.
        -14    1    6    6    0    0  0.31121382264E+02 -0.15371637137E+03 -0.68538652624E+01  0.15698483599E+03  0.00000000000E+00 0.  1.
</event>
<event>
12    1  0.1683022E-002  0.1770924E+03  0.7818608E-02  0.1170712E+00
         21   -1    0    0  501  502  0.00000000000E+00  0.00000000000E+00  0.17942894959E+03  0.17942894959E+03  0.00000000000E+00 0.  1.
         21   -1    0    0  502  503 -0.00000000000E+00 -0.00000000000E+00 -0.31126493049E+03  0.31126493049E+03  0.00000000000E+00 0.  1.
          6    2    1    2  501    0  0.36345818453E+02  0.20861352208E+02  0.96669744586E+02  0.20175919447E+03  0.17206254241E+03 0.  0.
         24    2    3    3    0    0  0.55733405082E+02  0.72452705790E+02  0.61919783435E+02  0.13643541565E+03  0.80155823524E+02 0.  0.
         -6    2    1    2    0  503 -0.36345818453E+02 -0.20861352208E+02 -0.22850572548E+03  0.28893468561E+03  0.17179106914E+03 0.  0.
        -24    2    5    5    0    0  0.31707545892E+02 -0.46505326176E+02 -0.16297195634E+03  0.19092632526E+03  0.82005422361E+02 0.  0.
          5    1    3    3  501    0 -0.19387586630E+02 -0.51591353583E+02  0.34749961150E+02  0.65323778823E+02  0.47000000000E+01 0. -1.
        -11    1    4    4    0    0  0.72930251085E+02  0.49094708147E+02  0.61740785564E+02  0.10742921620E+03  0.00000000000E+00 0.  1.
         12    1    4    4    0    0 -0.17196846003E+02  0.23357997643E+02  0.17899787166E+00  0.29006199451E+02  0.00000000000E+00 0. -1.
         -5    1    5    5    0  503 -0.68053364345E+02  0.25643973969E+02 -0.65533769147E+02  0.98008360348E+02  0.47000000000E+01 0.  1.
         13    1    6    6    0    0 -0.12436836989E+01 -0.61018049248E+02 -0.12177428009E+03  0.13621205664E+03  0.00000000000E+00 0. -1.
        -14    1    6    6    0    0  0.32951229591E+02  0.14512723072E+02 -0.41197676245E+02  0.54714268618E+02  0.00000000000E+00 0.  1.
</event>
<event>
12    1  0.1683022E-002  0.2413866E+03  0.7818608E-02  0.1119133E+00
         21   -1    0    0  503  502  0.00000000000E+00  0.00000000000E+00  0.73721894731E+02  0.73721894731E+02  0.00000000000E+00 0. -1.
         21   -1    0    0  501  503 -0.00000000000E+00 -0.00000000000E+00 -0.91752395392E+03  0.91752395392E+03  0.00000000000E+00 0. -1.
          6    2    1    2  501    0 -0.16714434586E+03  0.10687856623E+02 -0.60891458241E+03  0.65443786598E+03  0.17164058124E+03 0.  0.
         24    2    3    3    0    0 -0.16740375384E+03  0.14494113841E+02 -0.35834815652E+03  0.40379832667E+03  0.80034937369E+02 0.  0.
         -6    2    1    2    0  502  0.16714434586E+03 -0.10687856623E+02 -0.23488747678E+03  0.33680798266E+03  0.17382758069E+03 0.  0.
        -24    2    5    5    0    0  0.43637798912E+02 -0.27012646649E+02 -0.17396347567E+03  0.19804851517E+03  0.79536047939E+02 0.  0.
          5    1    3    3  501    0  0.25940798519E+00 -0.38062572177E+01 -0.25056642589E+03  0.25063953931E+03  0.47000000000E+01 0. -1.
        -11    1    4    4    0    0 -0.90671276813E+02  0.42435357998E+02 -0.15335808531E+03  0.18314131805E+03  0.00000000000E+00 0.  1.
         12    1    4    4    0    0 -0.76732477031E+02 -0.27941244157E+02 -0.20499007121E+03  0.22065700862E+03  0.00000000000E+00 0. -1.
         -5    1    5    5    0  502  0.12350654695E+03  0.16324790026E+02 -0.60924001107E+02  0.13875946749E+03  0.47000000000E+01 0.  1.
         11    1    6    6    0    0  0.51227908036E+02 -0.24903831094E+02 -0.56188209427E+02  0.80010088386E+02  0.00000000000E+00 0. -1.
        -12    1    6    6    0    0 -0.75901091244E+01 -0.21088155543E+01 -0.11777526624E+03  0.11803842678E+03  0.00000000000E+00 0.  1.
</event>
<event>
12    1  0.1683022E-002  0.1787859E+03  0.7818608E-02  0.1169560E+00
         21   -1    0    0  503  502  0.00000000000E+00  0.00000000000E+00  0.21998051451E+03  0.21998051451E+03  0.00000000000E+00 0.  1.
         21   -1    0    0  501  503 -0.00000000000E+00 -0.00000000000E+00 -0.32490000274E+03  0.32490000274E+03  0.00000000000E+00 0.  1.
          6    2    1    2  501    0 -0.39594670208E+01  0.47919537956E+02 -0.25592822524E+03  0.31085483131E+03  0.16976310017E+03 0.  0.
         24    2    3    3    0    0  0.53403290048E+02 -0.18342681003E+01 -0.13596363449E+03  0.16880019341E+03  0.84570204352E+02 0.  0.
         -6    2    1    2    0  502  0.39594670208E+01 -0.47919537956E+02  0.15100873700E+03  0.23402568594E+03  0.17219879073E+03 0.  0.
        -24    2    5    5    0    0 -0.26086583883E+02  0.32294447719E+02  0.11070458034E+03  0.13924402253E+03  0.73552379236E+02 0.  0.
          5    1    3    3  501    0 -0.57362757069E+02  0.49753806057E+02 -0.11996459075E+03  0.14205463790E+03  0.47000000000E+01 0. -1.
        -11    1    4    4    0    0  0.20323698416E+02 -0.32899624528E+02 -0.10981710337E+03  0.11642694793E+03  0.00000000000E+00 0.  1.
         12    1    4    4    0    0  0.33079591632E+02  0.31065356428E+02 -0.26146531116E+02  0.52373245478E+02  0.00000000000E+00 0. -1.
         -5    1    5    5    0  502  0.30046050904E+02 -0.80213985676E+02  0.40304156666E+02  0.94781663403E+02  0.47000000000E+01 0.  1.
         11    1    6    6    0    0 -0.41221693846E+02  0.16554953835E+02  0.25361426248E+02  0.51151700670E+02  0.00000000000E+00 0. -1.
        -12    1    6    6    0    0  0.15135109963E+02  0.15739493884E+02  0.85343154090E+02  0.88092321864E+02  0.00000000000E+00 0.  1.
</event>
<event>
12    1  0.1683022E-002  0.2061201E+03  0.7818608E-02  0.1144747E+00
         21   -1    0    0  501  502  0.00000000000E+00  0.00000000000E+00  0.10367380686E+03  0.10367380686E+03  0.00000000000E+00 0. -1.
         21   -1    0    0  502  503 -0.00000000000E+00 -0.00000000000E+00 -0.40910549953E+03  0.40910549953E+03  0.00000000000E+00 0.  1.
          6    2    1    2  501    0 -0.75646293374E+02 -0.85608062479E+02 -0.15272458091E+03  0.25625454664E+03  0.17114465517E+03 0.  0.
         24    2    3    3    0    0  0.35494583766E+01 -0.76336057050E+02 -0.13577440965E+03  0.17460079298E+03  0.78809608127E+02 0.  0.
         -6    2    1    2    0  503  0.75646293374E+02  0.85608062479E+02 -0.15270711176E+03  0.25652475976E+03  0.17156453108E+03 0.  0.
        -24    2    5    5    0    0  0.36274580533E+02  0.12384584365E+03 -0.11421338614E+03  0.18932270181E+03  0.78388453644E+02 0.  0.
          5    1    3    3  501    0 -0.79195751750E+02 -0.92720054293E+01 -0.16950171260E+02  0.81653753654E+02  0.47000000000E+01 0. -1.
        -13    1    4    4    0    0  0.21251557667E+02 -0.82109325034E+02 -0.83131565439E+02  0.11876206100E+03  0.00000000000E+00 0.  1.
         14    1    4    4    0    0 -0.17702099290E+02  0.57732679842E+01 -0.52642844213E+02  0.55838731982E+02  0.00000000000E+00 0. -1.
         -5    1    5    5    0  503  0.39371712841E+02 -0.38237781171E+02 -0.38493725617E+02  0.67202057950E+02  0.47000000000E+01 0.  1.
         11    1    6    6    0    0 -0.20932436894E+02  0.67153308311E+02 -0.49626941678E+02  0.86084650617E+02  0.00000000000E+00 0. -1.
        -12    1    6    6    0    0  0.57207017426E+02  0.56692535338E+02 -0.64586444460E+02  0.10323805119E+03  0.00000000000E+00 0.  1.
</event>
<event>
12    1  0.1683022E-002  0.2080759E+03  0.7818608E-02  0.1143100E+00
         21   -1    0    0  501  502  0.00000000000E+00  0.00000000000E+00  0.36857834045E+04  0.36857834045E+04  0.00000000000E+00 0. -1.
         21   -1    0    0  502  503 -0.00000000000E+00 -0.00000000000E+00 -0.11747508422E+02  0.11747508422E+02  0.00000000000E+00 0.  1.
          6    2    1    2  501    0 -0.10602150581E+03 -0.48285915765E+02  0.18559039072E+04  0.18675317644E+04  0.17240501391E+03 0.  0.
         24    2    3    3    0    0 -0.10114066130E+03 -0.89572458634E+02  0.16489507847E+04  0.16563917961E+04  0.79639395418E+02 0.  0.
         -6    2    1    2    0  503  0.10602150581E+03  0.48285915765E+02  0.18181319889E+04  0.18299991486E+04  0.17239740532E+03 0.  0.
        -24    2    5    5    0    0  0.11417436911E+02  0.58906290694E+02  0.12300026072E+04  0.12341963440E+04  0.82060301538E+02 0.  0.
          5    1    3    3  501    0 -0.48808445125E+01  0.41286542869E+02  0.20695312254E+03  0.21113996825E+03  0.47000000000E+01 0. -1.
        -11    1    4    4    0    0  0.41673666060E+01 -0.40302166848E+02  0.44414366137E+03  0.44598791859E+03  0.00000000000E+00 0.  1.
         12    1    4    4    0    0 -0.10530802790E+03 -0.49270291786E+02  0.12048071233E+04  0.12104038775E+04  0.00000000000E+00 0. -1.
         -5    1    5    5    0  503  0.94604068898E+02 -0.10620374929E+02  0.58812938173E+03  0.59580280452E+03  0.47000000000E+01 0.  1.
         13    1    6    6    0    0  0.15970935027E+02  0.62560749296E+02  0.49772981465E+03  0.50190027546E+03  0.00000000000E+00 0. -1.
        -14    1    6    6    0    0 -0.45534981159E+01 -0.36544586020E+01  0.73227279251E+03  0.73229606859E+03  0.00000000000E+00 0.  1.
</event>
<event>
12    1  0.1683022E-002  0.3038050E+03  0.7818608E-02  0.1083474E+00
         21   -1    0    0  501  502  0.00000000000E+00  0.00000000000E+00  0.46859181991E+03  0.46859181991E+03  0.00000000000E+00 0.  1.
         21   -1    0    0  502  503 -0.00000000000E+00 -0.00000000000E+00 -0.19835421995E+03  0.19835421995E+03  0.00000000000E+00 0.  1.
          6    2    1    2  501    0 -0.95655312785E+02  0.23114513316E+03  0.16855491598E+03  0.34657616664E+03  0.17066419698E+03 0.  0.
         24    2    3    3    0    0 -0.85759235489E+02  0.25267593984E+03  0.15270000895E+03  0.31768021435E+03  0.80022801810E+02 0.  0.
         -6    2    1    2    0  503  0.95655312785E+02 -0.23114513316E+03  0.10168268399E+03  0.32036987322E+03  0.17239337574E+03 0.  0.
        -24    2    5    5    0    0  0.32142535741E+02 -0.16031169808E+03  0.12624853263E+03  0.22199904781E+03  0.81313603363E+02 0.  0.
          5    1    3    3  501    0 -0.98960772961E+01 -0.21530806673E+02  0.15854907031E+02  0.28895952290E+02  0.47000000000E+01 0. -1.
        -11    1    4    4    0    0 -0.62814174076E+02  0.11999369472E+03  0.37662413958E+02  0.14057938918E+03  0.00000000000E+00 0.  1.
         12    1    4    4    0    0 -0.22945061413E+02  0.13268224512E+03  0.11503759499E+03  0.17710082517E+03  0.00000000000E+00 0. -1.
         -5    1    5    5    0  503  0.63512777044E+02 -0.70833435082E+02 -0.24565848641E+02  0.98370825415E+02  0.47000000000E+01 0.  1.
         13    1    6    6    0    0  0.12768831380E+02 -0.57758304565E+02  0.12607084226E+01  0.59166326460E+02  0.00000000000E+00 0. -1.
        -14    1    6    6    0    0  0.19373704361E+02 -0.10255339352E+03  0.12498782420E+03  0.16283272135E+03  0.00000000000E+00 0.  1.
</event>
<event>
12    1  0.1683022E-002  0.2205956E+03  0.7818608E-02  0.1133536E+00
         21   -1    0    0  503  502  0.00000000000E+00  0.00000000000E+00  0.70101871846E+02  0.70101871846E+02  0.00000000000E+00 0.  1.
         21   -1    0    0  501  503 -0.00000000000E+00 -0.00000000000E+00 -0.82608542511E+03  0.82608542511E+03  0.00000000000E+00 0. -1.
          6    2    1    2  501    0 -0.34786549570E+02  0.13366152410E+03 -0.19819774366E+03  0.29655479810E+03  0.17200841732E+03 0.  0.
         24    2    3    3    0    0  0.46550743524E+02  0.10063487395E+03 -0.11617005050E+03  0.17631692007E+03  0.72786166905E+02 0.  0.
         -6    2    1    2    0  502  0.34786549570E+02 -0.13366152410E+03 -0.55778580960E+03  0.59963249886E+03  0.17134356490E+03 0.  0.
        -24    2    5    5    0    0  0.81008896739E+02 -0.58387053337E+02 -0.37820403108E+03  0.39944644414E+03  0.80917756150E+02 0.  0.
          5    1    3    3  501    0 -0.81337293094E+02  0.33026650145E+02 -0.82027693155E+02  0.12023787803E+03  0.47000000000E+01 0. -1.
        -11    1    4    4    0    0  0.12419560708E+02 -0.80953854604E+01 -0.29936968676E+02  0.33406628795E+02  0.00000000000E+00 0.  1.
         12    1    4    4    0    0  0.34131182816E+02  0.10873025941E+03 -0.86233081827E+02  0.14291029128E+03  0.00000000000E+00 0. -1.
         -5    1    5    5    0  502 -0.46222347169E+02 -0.75274470758E+02 -0.17958177852E+03  0.20018605472E+03  0.47000000000E+01 0.  1.
         11    1    6    6    0    0  0.19644456338E+02  0.19192156508E+02 -0.11596270793E+03  0.11917043747E+03  0.00000000000E+00 0. -1.
        -12    1    6    6    0    0  0.61364440401E+02 -0.77579209845E+02 -0.26224132315E+03  0.28027600667E+03  0.00000000000E+00 0.  1.
</event>
<event>
12    1  0.1683022E-002  0.2459247E+03  0.7818608E-02  0.1115921E+00
         21   -1    0    0  503  502  0.00000000000E+00  0.00000000000E+00  0.89503714678E+03  0.89503714678E+03  0.00000000000E+00 0. -1.
         21   -1    0    0  501  503 -0.00000000000E+00 -0.00000000000E+00 -0.86848336550E+02  0.86848336550E+02  0.00000000000E+00 0.  1.
          6    2    1    2  501    0  0.17025932034E+03 -0.49253005505E+02  0.17260730259E+03  0.30038508297E+03  0.17036379442E+03 0.  0.
         24    2    3    3    0    0  0.11881621172E+03  0.30144230976E+02  0.80649492159E+02  0.16836749518E+03  0.82566978998E+02 0.  0.
         -6    2    1    2    0  502 -0.17025932034E+03  0.49253005505E+02  0.63558150764E+03  0.68150040036E+03  0.17048415799E+03 0.  0.
        -24    2    5    5    0    0 -0.17906166965E+03  0.10572714444E+02  0.59361517807E+03  0.62356156116E+03  0.65384838431E+02 0.  0.
          5    1    3    3  501    0  0.51443108616E+02 -0.79397236481E+02  0.91957810432E+02  0.13201758778E+03  0.47000000000E+01 0. -1.
        -13    1    4    4    0    0  0.12030780521E+03  0.47404709407E+02  0.63771378020E+02  0.14418031462E+03  0.00000000000E+00 0.  1.
         14    1    4    4    0    0 -0.14915934933E+01 -0.17260478432E+02  0.16878114139E+02  0.24187180566E+02  0.00000000000E+00 0. -1.
         -5    1    5    5    0  502  0.88023493153E+01  0.38680291062E+02  0.41966329572E+02  0.57938839200E+02  0.47000000000E+01 0.  1.
         13    1    6    6    0    0 -0.79437330281E+02 -0.10612706215E+02  0.35823118786E+03  0.36708650606E+03  0.00000000000E+00 0. -1.
        -14    1    6    6    0    0 -0.99624339369E+02  0.21185420658E+02  0.23538399021E+03  0.25647505510E+03  0.00000000000E+00 0.  1.
</event>
<event>
12    1  0.1683022E-002  0.1780576E+03  0.7818608E-02  0.1169927E+00
         21   -1    0    0  503  502  0.00000000000E+00  0.00000000000E+00  0.10395256671E+03  0.10395256671E+03  0.00000000000E+00 0.  1.
         21   -1    0    0  501  503 -0.00000000000E+00 -0.00000000000E+00 -0.30773929630E+03  0.30773929630E+03  0.00000000000E+00 0.  1.
          6    2    1    2  501    0  0.15570818210E+02 -0.39895093429E+02 -0.12610758412E+03  0.21742774216E+03  0.17186515479E+03 0.  0.
         24    2    3    3    0    0 -0.50777615123E+02  0.15781496254E+01 -0.44803647175E+02  0.10449163342E+03  0.79563043565E+02 0.  0.
         -6    2    1    2    0  502 -0.15570818210E+02  0.39895093429E+02 -0.77679145470E+02  0.19426412084E+03  0.17283064007E+03 0.  0.
        -24    2    5    5    0    0  0.31799641217E+02  0.22326898835E+01 -0.98910866166E+02  0.12995787674E+03  0.78035172806E+02 0.  0.
          5    1    3    3  501    0  0.66348433334E+02 -0.41473243054E+02 -0.81303936941E+02  0.11293610874E+03  0.47000000000E+01 0. -1.
        -13    1    4    4    0    0  0.35606307078E+01  0.24597374045E+02 -0.37556223709E+02  0.45035306596E+02  0.00000000000E+00 0.  1.
         14    1    4    4    0    0 -0.54338245831E+02 -0.23019224419E+02 -0.72474234664E+01  0.59456326827E+02  0.00000000000E+00 0. -1.
         -5    1    5    5    0  502 -0.47370459427E+02  0.37662403545E+02  0.21231720695E+02  0.64306244104E+02  0.47000000000E+01 0.  1.
         13    1    6    6    0    0  0.12378128448E+01 -0.32302905465E+02 -0.65394938729E+02  0.72948666153E+02  0.00000000000E+00 0. -1.
        -14    1    6    6    0    0  0.30561828372E+02  0.34535595348E+02 -0.33515927436E+02  0.57009210584E+02  0.00000000000E+00 0.  1.
</event>
<event>
12    1  0.1683022E-002  0.1800000E+03  0.7818608E-02  0.1169369E+00
         21   -1    0    0  501  502  0.00000000000E+00  0.00000000000E+00  0.13587385489E+03  0.13587385489E+03  0.00000000000E+00 0. -1.
         21   -1    0    0  502  503 -0.00000000000E+00 -0.00000000000E+00 -0.23681945898E+03  0.23681945898E+03  0.00000000000E+00 0. -1.
          6    2    1    2  501    0  0.41203448967E+02  0.94384230276E+01 -0.80927018179E+02  0.19158355952E+03  0.16842882761E+03 0.  0.
         24    2    3    3    0    0  0.33581937220E+02  0.52199218514E+02 -0.10125980834E+03  0.14339553790E+03  0.80350647685E+02 0.  0.
         -6    2    1    2    0  503 -0.41203448967E+02 -0.94384230276E+01 -0.20018585907E+02  0.18110975435E+03  0.17496625761E+03 0.  0.
        -24    2    5    5    0    0  0.15205777137E+02 -0.46476992917E+02 -0.50721089981E+02  0.10682254007E+03  0.80293832694E+02 0.  0.
          5    1    3    3  501    0  0.76215117477E+01 -0.42760795487E+02  0.20332790158E+02  0.48188021619E+02  0.47000000000E+01 0. -1.
        -11    1    4    4    0    0 -0.22106717150E+02  0.10143983298E+02 -0.55532522549E+01  0.24948866725E+02  0.00000000000E+00 0.  1.
         12    1    4    4    0    0  0.55688654369E+02  0.42055235217E+02 -0.95706556081E+02  0.11844667117E+03  0.00000000000E+00 0. -1.
         -5    1    5    5    0  503 -0.56409226105E+02  0.37038569890E+02  0.30702504074E+02  0.74287214281E+02  0.47000000000E+01 0.  1.
         13    1    6    6    0    0  0.31784853062E+02 -0.45726503799E+02 -0.24101173340E+01  0.55740458371E+02  0.00000000000E+00 0. -1.
        -14    1    6    6    0    0 -0.16579075924E+02 -0.75048911851E+00 -0.48310972647E+02  0.51082081698E+02  0.00000000000E+00 0.  1.
</event>
<event>
12    1  0.1683022E-002  0.2017676E+03  0.7818608E-02  0.1152060E+00
         21   -1    0    0  503  502  0.00000000000E+00  0.00000000000E+00  0.11672997351E+03  0.11672997351E+03  0.00000000000E+00 0.  1.
         21   -1    0    0  501  503 -0.00000000000E+00 -0.00000000000E+00 -0.37426195779E+03  0.37426195779E+03  0.00000000000E+00 0.  1.
          6    2    1    2  501    0  0.22381624269E+02 -0.65665543946E+02 -0.22766652608E+03  0.30420751521E+03  0.18946573423E+03 0.  0.
         24    2    3    3    0    0  0.55230346146E+02 -0.10898790920E+03 -0.17849923504E+03  0.23075427588E+03  0.80354237222E+02 0.  0.
         -6    2    1    2    0  502 -0.22381624269E+02  0.65665543946E+02 -0.29865458207E+02  0.18678441609E+03  0.17083199856E+03 0.  0.
        -24    2    5    5    0    0  0.96290949721E+01  0.54141127316E+02  0.44423672308E+02  0.10494027618E+03  0.77556545604E+02 0.  0.
          5    1    3    3  501    0 -0.32848721877E+02  0.43322365256E+02 -0.49167291042E+02  0.73453239334E+02  0.47000000000E+01 0. -1.
        -11    1    4    4    0    0 -0.72632242833E+01 -0.71118982289E+01 -0.65474150862E+02  0.66258568914E+02  0.00000000000E+00 0.  1.
         12    1    4    4    0    0  0.62493570429E+02 -0.10187601097E+03 -0.11302508417E+03  0.16449570696E+03  0.00000000000E+00 0. -1.
         -5    1    5    5    0  502 -0.32010719241E+02  0.11524416630E+02 -0.74289130515E+02  0.81844139911E+02  0.47000000000E+01 0.  1.
         13    1    6    6    0    0 -0.10017468574E+01  0.46034140911E+02 -0.11484641096E+02  0.47455690990E+02  0.00000000000E+00 0. -1.
        -14    1    6    6    0    0  0.10630841829E+02  0.81069864044E+01  0.55908313404E+02  0.57484585188E+02  0.00000000000E+00 0.  1.
</event>
<event>
12    1  0.1683022E-002  0.2060377E+03  0.7818608E-02  0.1144851E+00
         21   -1    0    0  501  502  0.00000000000E+00  0.00000000000E+00  0.41934470367E+03  0.41934470367E+03  0.00000000000E+00 0. -1.
         21   -1    0    0  502  503 -0.00000000000E+00 -0.00000000000E+00 -0.10340956303E+03  0.10340956303E+03  0.00000000000E+00 0.  1.
          6    2    1    2  501    0 -0.10777018467E+03  0.33614853042E+02  0.19830305304E+03  0.28596442935E+03  0.17235771802E+03 0.  0.
         24    2    3    3    0    0 -0.29599182849E+02 -0.28299553118E+02  0.34229346336E+02  0.93906181812E+02  0.77264134628E+02 0.  0.
         -6    2    1    2    0  503  0.10777018467E+03 -0.33614853042E+02  0.11763208759E+03  0.23678983734E+03  0.17171996968E+03 0.  0.
        -24    2    5    5    0    0  0.51239638150E+02  0.47230528193E+02  0.78794304724E+02  0.13066659891E+03  0.77517703154E+02 0.  0.
          5    1    3    3  501    0 -0.78171001825E+02  0.61914406160E+02  0.16407370671E+03  0.19205824754E+03  0.47000000000E+01 0. -1.
        -13    1    4    4    0    0 -0.34030022645E+02 -0.42493920256E+02  0.48782843741E+02  0.73099531759E+02  0.00000000000E+00 0.  1.
         14    1    4    4    0    0  0.44308397957E+01  0.14194367138E+02 -0.14553497404E+02  0.20806650053E+02  0.00000000000E+00 0. -1.
         -5    1    5    5    0  503  0.56530546525E+02 -0.80845381236E+02  0.38837782870E+02  0.10612323843E+03  0.47000000000E+01 0.  1.
         11    1    6    6    0    0  0.29704287286E+02  0.25885407404E+02  0.90074570232E+02  0.98314938855E+02  0.00000000000E+00 0. -1.
        -12    1    6    6    0    0  0.21535350864E+02  0.21345120789E+02 -0.11280265507E+02  0.32351660054E+02  0.00000000000E+00 0.  1.
</event>
<event>
12    1  0.1683022E-002  0.2236414E+03  0.7818608E-02  0.1131776E+00
         21   -1    0    0  503  502  0.00000000000E+00  0.00000000000E+00  0.43536636050E+03  0.43536636050E+03  0.00000000000E+00 0. -1.
         21   -1    0    0  501  503 -0.00000000000E+00 -0.00000000000E+00 -0.12677991235E+03  0.12677991235E+03  0.00000000000E+00 0. -1.
          6    2    1    2  501    0 -0.71750464410E+02 -0.12296458757E+03  0.24506819501E+03  0.32965965807E+03  0.16837057645E+03 0.  0.
         24    2    3    3    0    0 -0.30862932234E+02 -0.95925174483E+02  0.24951425816E+03  0.28021496549E+03  0.78159466288E+02 0.  0.
         -6    2    1    2    0  502  0.71750464410E+02  0.12296458757E+03  0.63518253137E+02  0.23248661478E+03  0.17247329831E+03 0.  0.
        -24    2    5    5    0    0  0.48621625983E+01  0.95095238350E+02  0.93409325401E+02  0.15396074804E+03  0.76888652504E+02 0.  0.
          5    1    3    3  501    0 -0.40887532176E+02 -0.27039413090E+02 -0.44460631480E+01  0.49444692589E+02  0.47000000000E+01 0. -1.
        -13    1    4    4    0    0 -0.36856869111E+02 -0.83506586974E+02  0.12414749624E+03  0.15409211431E+03  0.00000000000E+00 0.  1.
         14    1    4    4    0    0  0.59939368766E+01 -0.12418587508E+02  0.12536676192E+03  0.12612285118E+03  0.00000000000E+00 0. -1.
         -5    1    5    5    0  502  0.66888301812E+02  0.27869349223E+02 -0.29891072264E+02  0.78525866735E+02  0.47000000000E+01 0.  1.
         11    1    6    6    0    0 -0.83938307303E+01 -0.89431504723E+00  0.44730879366E+02  0.45520410395E+02  0.00000000000E+00 0. -1.
        -12    1    6    6    0    0  0.13255993329E+02  0.95989553398E+02  0.48678446035E+02  0.10844033765E+03  0.00000000000E+00 0.  1.
</event>
<event>
12    1  0.1683022E-002  0.1960115E+03  0.7818608E-02  0.1155438E+00
         21   -1    0    0  501  502  0.00000000000E+00  0.00000000000E+00  0.58579371918E+02  0.58579371918E+02  0.00000000000E+00 0.  1.
         21   -1    0    0  502  503 -0.00000000000E+00 -0.00000000000E+00 -0.63598200502E+03  0.63598200502E+03  0.00000000000E+00 0.  1.
          6    2    1    2  501    0  0.40362166388E+02  0.54222611451E+02 -0.24471812238E+03  0.31354020570E+03  0.18398724169E+03 0.  0.
         24    2    3    3    0    0  0.26146027565E+01 -0.42845326503E+02 -0.10438521312E+03  0.13871892965E+03  0.80648066157E+02 0.  0.
         -6    2    1    2    0  503 -0.40362166388E+02 -0.54222611451E+02 -0.33268451073E+03  0.38102117124E+03  0.17299986470E+03 0.  0.
        -24    2    5    5    0    0 -0.20430569199E+01 -0.64025367469E+02 -0.50515446489E+02  0.96054648663E+02  0.50707626987E+02 0.  0.
          5    1    3    3  501    0  0.37747563632E+02  0.97067937954E+02 -0.14033290925E+03  0.17482127605E+03  0.47000000000E+01 0. -1.
        -11    1    4    4    0    0 -0.33134147022E+01  0.10656257160E+02  0.82527354470E+01  0.13879559648E+02  0.00000000000E+00 0.  1.
         12    1    4    4    0    0  0.59280174587E+01 -0.53501583664E+02 -0.11263794857E+03  0.12483937001E+03  0.00000000000E+00 0. -1.
         -5    1    5    5    0  503 -0.38319109468E+02  0.98027560176E+01 -0.28216906424E+03  0.28496652258E+03  0.47000000000E+01 0.  1.
         13    1    6    6    0    0 -0.71918128703E+01  0.21297319883E+01  0.54321332945E+01  0.92609936202E+01  0.00000000000E+00 0. -1.
        -14    1    6    6    0    0  0.51487559504E+01 -0.66155099457E+02 -0.55947579783E+02  0.86793655042E+02  0.00000000000E+00 0.  1.
</event>
<event>
12    1  0.1683022E-002  0.1885460E+03  0.7818608E-02  0.1159813E+00
         21   -1    0    0  503  502  0.00000000000E+00  0.00000000000E+00  0.24188970519E+04  0.24188970519E+04  0.00000000000E+00 0.  1.
         21   -1    0    0  501  503 -0.00000000000E+00 -0.00000000000E+00 -0.17025997667E+02  0.17025997667E+02  0.00000000000E+00 0. -1.
          6    2    1    2  501    0 -0.58152834023E+02  0.50497032187E+02  0.74893561109E+03  0.77226888637E+03  0.17193888719E+03 0.  0.
         24    2    3    3    0    0  0.12698496930E+02 -0.35279941636E+01  0.18905121323E+03  0.20531982028E+03  0.79007397178E+02 0.  0.
         -6    2    1    2    0  502  0.58152834023E+02 -0.50497032187E+02  0.16529354432E+04  0.16636541632E+04  0.17209849846E+03 0.  0.
        -24    2    5    5    0    0  0.70315842944E+01 -0.17294801728E+02  0.36754189942E+03  0.37680746584E+03  0.80921351533E+02 0.  0.
          5    1    3    3  501    0 -0.70851330952E+02  0.54025026351E+02  0.55988439787E+03  0.56694906609E+03  0.47000000000E+01 0. -1.
        -13    1    4    4    0    0  0.26311210380E+01 -0.78866091800E+01  0.19335628798E+03  0.19353494646E+03  0.00000000000E+00 0.  1.
         14    1    4    4    0    0  0.10067375892E+02  0.43586150164E+01 -0.43050747500E+01  0.11784873814E+02  0.00000000000E+00 0. -1.
         -5    1    5    5    0  502  0.51121249728E+02 -0.33202230460E+02  0.12853935437E+04  0.12868466974E+04  0.47000000000E+01 0.  1.
         11    1    6    6    0    0 -0.10111195473E+02  0.30079960420E+02  0.17040200707E+03  0.17333171754E+03  0.00000000000E+00 0. -1.
        -12    1    6    6    0    0  0.17142779767E+02 -0.47374762147E+02  0.19713989235E+03  0.20347574829E+03  0.00000000000E+00 0.  1.
</event>
<event>
12    1  0.1683022E-002  0.2068118E+03  0.7818608E-02  0.1144489E+00
         21   -1    0    0  501  502  0.00000000000E+00  0.00000000000E+00  0.20576711140E+03  0.20576711140E+03  0.00000000000E+00 0. -1.
         21   -1    0    0  502  503 -0.00000000000E+00 -0.00000000000E+00 -0.20605923472E+03  0.20605923472E+03  0.00000000000E+00 0. -1.
          6    2    1    2  501    0 -0.90110674484E+02 -0.66589789342E+02  0.27250540154E+01  0.20499250691E+03  0.17164022917E+03 0.  0.
         24    2    3    3    0    0 -0.64710336279E+02 -0.29336256095E+02 -0.64241421758E+02  0.12412470245E+03  0.78942624394E+02 0.  0.
         -6    2    1    2    0  503  0.90110674484E+02  0.66589789342E+02 -0.30171773389E+01  0.20683383922E+03  0.17383037705E+03 0.  0.
        -24    2    5    5    0    0  0.37751761032E+02  0.99226140577E+02 -0.35207670574E+02  0.13708496758E+03  0.79257086968E+02 0.  0.
          5    1    3    3  501    0 -0.25400338205E+02 -0.37253533247E+02  0.66966475773E+02  0.80867804458E+02  0.47000000000E+01 0. -1.
        -13    1    4    4    0    0 -0.29081905725E+01 -0.68483019092E+01  0.17614755164E+02  0.19121621556E+02  0.00000000000E+00 0.  1.
         14    1    4    4    0    0 -0.61802145706E+02 -0.22487954186E+02 -0.81856176921E+02  0.10500308090E+03  0.00000000000E+00 0. -1.
         -5    1    5    5    0  503  0.52358913452E+02 -0.32636351235E+02  0.32190493235E+02  0.69748871636E+02  0.47000000000E+01 0.  1.
         11    1    6    6    0    0 -0.38997137818E+01 -0.12400129858E+02 -0.58341380153E+00  0.13011969864E+02  0.00000000000E+00 0. -1.
        -12    1    6    6    0    0  0.41651474814E+02  0.11162627044E+03 -0.34624256772E+02  0.12407299772E+03  0.00000000000E+00 0.  1.
</event>
<event>
12    1  0.1683022E-002  0.2449030E+03  0.7818608E-02  0.1117143E+00
         21   -1    0    0  501  502  0.00000000000E+00  0.00000000000E+00  0.24333927469E+03  0.24333927469E+03  0.00000000000E+00 0.  1.
         21   -1    0    0  502  503 -0.00000000000E+00 -0.00000000000E+00 -0.26249014666E+03  0.26249014666E+03  0.00000000000E+00 0.  1.
          6    2    1    2  501    0  0.17360524208E+02 -0.16922074831E+03 -0.78502738882E+02  0.25383706660E+03  0.17127033284E+03 0.  0.
         24    2    3    3    0    0  0.68019179453E+02 -0.12296038609E+03 -0.91097368479E+02  0.18392973395E+03  0.76062810672E+02 0.  0.
         -6    2    1    2    0  503 -0.17360524208E+02  0.16922074831E+03  0.59351866913E+02  0.25199235474E+03  0.17618301078E+03 0.  0.
        -24    2    5    5    0    0 -0.75009292711E+02  0.92039746881E+02  0.84793564631E+01  0.14294929073E+03  0.79151065911E+02 0.  0.
          5    1    3    3  501    0 -0.50658655244E+02 -0.46260362217E+02  0.12594629597E+02  0.69907332650E+02  0.47000000000E+01 0. -1.
        -11    1    4    4    0    0 -0.13034181346E+02 -0.28685473640E+02 -0.36284569450E+02  0.48055345816E+02  0.00000000000E+00 0.  1.
         12    1    4    4    0    0  0.81053360798E+02 -0.94274912448E+02 -0.54812799029E+02  0.13587438814E+03  0.00000000000E+00 0. -1.
         -5    1    5    5    0  503  0.57648768502E+02  0.77181001424E+02  0.50872510449E+02  0.10904306402E+03  0.47000000000E+01 0.  1.
         11    1    6    6    0    0 -0.71029470068E+02  0.93625060063E+02 -0.15547507486E+02  0.11854350458E+03  0.00000000000E+00 0. -1.
        -12    1    6    6    0    0 -0.39798226429E+01 -0.15853131814E+01  0.24026863949E+02  0.24405786145E+02  0.00000000000E+00 0.  1.
</event>
<event>
12    1  0.1683022E-002  0.4282508E+03  0.7818608E-02  0.1034463E+00
         21   -1    0    0  501  502  0.00000000000E+00  0.00000000000E+00  0.41255263348E+03  0.41255263348E+03  0.00000000000E+00 0.  1.
         21   -1    0    0  502  503 -0.00000000000E+00 -0.00000000000E+00 -0.46348665958E+03  0.46348665958E+03  0.00000000000E+00 0.  1.
          6    2    1    2  501    0  0.22130754089E+03  0.32310511233E+03 -0.11548530367E+03  0.44295084311E+03  0.17174007331E+03 0.  0.
         24    2    3    3    0    0  0.17469922947E+03  0.31724962412E+03 -0.13151864118E+03  0.39309325244E+03  0.77833202150E+02 0.  0.
         -6    2    1    2    0  503 -0.22130754089E+03 -0.32310511233E+03  0.64551277570E+02  0.43308844996E+03  0.17327664813E+03 0.  0.
        -24    2    5    5    0    0 -0.41721117365E+02 -0.15125807470E+03 -0.12347016386E+01  0.17592590814E+03  0.79553402638E+02 0.  0.
          5    1    3    3  501    0  0.46608311421E+02  0.58554882089E+01  0.16033337505E+02  0.49857590668E+02  0.47000000000E+01 0. -1.
        -11    1    4    4    0    0  0.61516402066E+01  0.54760619530E+02 -0.14644340539E+01  0.55124519913E+02  0.00000000000E+00 0.  1.
         12    1    4    4    0    0  0.16854758926E+03  0.26248900459E+03 -0.13005420712E+03  0.33796873252E+03  0.00000000000E+00 0. -1.
         -5    1    5    5    0  503 -0.17958642352E+03 -0.17184703762E+03  0.65785979208E+02  0.25716254182E+03  0.47000000000E+01 0.  1.
         13    1    6    6    0    0  0.10394004349E+02 -0.60730575639E+02  0.27673161760E+02  0.67542890267E+02  0.00000000000E+00 0. -1.
        -14    1    6    6    0    0 -0.52115121714E+02 -0.90527499062E+02 -0.28907863398E+02  0.10838301788E+03  0.00000000000E+00 0.  1.
</event>
<event>
12    1  0.1683022E-002  0.2909624E+03  0.7818608E-02  0.1090081E+00
         21   -1    0    0  503  502  0.00000000000E+00  0.00000000000E+00  0.97479250277E+03  0.97479250277E+03  0.00000000000E+00 0.  1.
         21   -1    0    0  501  503 -0.00000000000E+00 -0.00000000000E+00 -0.93383204508E+02  0.93383204508E+02  0.00000000000E+00 0. -1.
          6    2    1    2  501    0  0.18269068115E+03 -0.14765723658E+03  0.29250357238E+03  0.41131264176E+03  0.16864520428E+03 0.  0.
         24    2    3    3    0    0  0.19944748252E+02 -0.58799652168E+02  0.12877330685E+03  0.16390286259E+03  0.80164778609E+02 0.  0.
         -6    2    1    2    0  502 -0.18269068115E+03  0.14765723658E+03  0.58890572589E+03  0.65686306552E+03  0.17169912162E+03 0.  0.
        -24    2    5    5    0    0 -0.38319049229E+02  0.97235441188E+02  0.20445017767E+03  0.24308331238E+03  0.79790607529E+02 0.  0.
          5    1    3    3  501    0  0.16274593290E+03 -0.88857584415E+02  0.16373026553E+03  0.24740977918E+03  0.47000000000E+01 0. -1.
        -11    1    4    4    0    0  0.39837610878E+02 -0.67274565102E+02  0.87741163149E+02  0.11752197267E+03  0.00000000000E+00 0.  1.
         12    1    4    4    0    0 -0.19892862626E+02  0.84749129334E+01  0.41032143701E+02  0.46380889916E+02  0.00000000000E+00 0. -1.
         -5    1    5    5    0  502 -0.14437163192E+03  0.50421795395E+02  0.38445554822E+03  0.41377975314E+03  0.47000000000E+01 0.  1.
         13    1    6    6    0    0 -0.34926948712E+02  0.81090744398E+02  0.85199766895E+02  0.12269719170E+03  0.00000000000E+00 0. -1.
        -14    1    6    6    0    0 -0.33921005165E+01  0.16144696791E+02  0.11925041077E+03  0.12038612067E+03  0.00000000000E+00 0.  1.
</event>
<event>
12    1  0.1683022E-002  0.1757807E+03  0.7818608E-02  0.1172622E+00
         21   -1    0    0  503  502  0.00000000000E+00  0.00000000000E+00  0.44669700285E+03  0.44669700285E+03  0.00000000000E+00 0.  1.
         21   -1    0    0  501  503 -0.00000000000E+00 -0.00000000000E+00 -0.13083380000E+03  0.13083380000E+03  0.00000000000E+00 0.  1.
          6    2    1    2  501    0  0.21743262446E+02 -0.23146298667E+02 -0.42609850066E+02  0.17827929456E+03  0.17017457784E+03 0.  0.
         24    2    3    3    0    0  0.76009008197E+02 -0.37437909639E+02 -0.79566179486E+01  0.11215851264E+03  0.73056538265E+02 0.  0.
         -6    2    1    2    0  502 -0.21743262446E+02  0.23146298667E+02  0.35847305291E+03  0.39925150828E+03  0.17288816211E+03 0.  0.
        -24    2    5    5    0    0  0.12731387589E+02  0.63257011825E+02  0.13811337685E+03  0.17258468752E+03  0.80911258326E+02 0.  0.
          5    1    3    3  501    0 -0.54265745751E+02  0.14291610972E+02 -0.34653232117E+02  0.66120781924E+02  0.47000000000E+01 0. -1.
        -13    1    4    4    0    0  0.52375756356E+00 -0.36330075999E+02 -0.41362571181E+01  0.36568529736E+02  0.00000000000E+00 0.  1.
         14    1    4    4    0    0  0.75485250634E+02 -0.11078336398E+01 -0.38203608305E+01  0.75589982904E+02  0.00000000000E+00 0. -1.
         -5    1    5    5    0  502 -0.34474650035E+02 -0.40110713157E+02  0.22035967606E+03  0.22666682077E+03  0.47000000000E+01 0.  1.
         13    1    6    6    0    0  0.32572477242E+02  0.64948677097E+02  0.13373133314E+03  0.15219515890E+03  0.00000000000E+00 0. -1.
        -14    1    6    6    0    0 -0.19841089652E+02 -0.16916652723E+01  0.43820437173E+01  0.20389528615E+02  0.00000000000E+00 0.  1.
</event>
<event>
12    1  0.1683022E-002  0.2615321E+03  0.7818608E-02  0.1106380E+00
         21   -1    0    0  501  502  0.00000000000E+00  0.00000000000E+00  0.89032880466E+03  0.89032880466E+03  0.00000000000E+00 0. -1.
         21   -1    0    0  502  503 -0.00000000000E+00 -0.00000000000E+00 -0.11559043547E+03  0.11559043547E+03  0.00000000000E+00 0.  1.
          6    2    1    2  501    0 -0.19602857969E+03 -0.88658793833E+01  0.67926519075E+03  0.72750562304E+03  0.17134008379E+03 0.  0.
         24    2    3    3    0    0 -0.61172830865E+02  0.37865538520E+02  0.32845194924E+03  0.34874195156E+03  0.92543781946E+02 0.  0.
         -6    2    1    2    0  503  0.19602857969E+03  0.88658793833E+01  0.95473178444E+02  0.27841361709E+03  0.17289651965E+03 0.  0.
        -24    2    5    5    0    0  0.15686479312E+03  0.58086153389E+02  0.30419224792E+02  0.18780156250E+03  0.79771756301E+02 0.  0.
          5    1    3    3  501    0 -0.13485574882E+03 -0.46731417903E+02  0.35081324152E+03  0.37876367148E+03  0.47000000000E+01 0. -1.
        -11    1    4    4    0    0 -0.37320471694E+02  0.35545022667E+02  0.59473113767E+02  0.78697633414E+02  0.00000000000E+00 0.  1.
         12    1    4    4    0    0 -0.23852359171E+02  0.23205158525E+01  0.26897883547E+03  0.27004431815E+03  0.00000000000E+00 0. -1.
         -5    1    5    5    0  503  0.39163786566E+02 -0.49220274006E+02  0.65053953652E+02  0.90612054591E+02  0.47000000000E+01 0.  1.
         13    1    6    6    0    0 -0.90068489520E+01  0.10805576068E+01  0.55988630777E+01  0.10660121976E+02  0.00000000000E+00 0. -1.
        -14    1    6    6    0    0  0.16587164207E+03  0.57005595782E+02  0.24820361714E+02  0.17714144052E+03  0.00000000000E+00 0.  1.
</event>
<event>
12    1  0.1683022E-002  0.2329729E+03  0.7818608E-02  0.1124700E+00
         21   -1    0    0  501  502  0.00000000000E+00  0.00000000000E+00  0.92213244029E+02  0.92213244029E+02  0.00000000000E+00 0. -1.
         21   -1    0    0  502  503 -0.00000000000E+00 -0.00000000000E+00 -0.59106720474E+03  0.59106720474E+03  0.00000000000E+00 0. -1.
          6    2    1    2  501    0  0.80052098062E+01  0.15503294042E+03 -0.27946263163E+03  0.36383473820E+03  0.17371545194E+03 0.  0.
         24    2    3    3    0    0 -0.47927849293E+02  0.14794433609E+03 -0.19575469141E+03  0.26280076041E+03  0.80992191869E+02 0.  0.
         -6    2    1    2    0  503 -0.80052098062E+01 -0.15503294042E+03 -0.21939132908E+03  0.31944571057E+03  0.17266647250E+03 0.  0.
        -24    2    5    5    0    0 -0.55534047315E+02 -0.14806258425E+03 -0.19923420522E+03  0.26713915360E+03  0.81624136053E+02 0.  0.
          5    1    3    3  501    0  0.55933059099E+02  0.70886043214E+01 -0.83707940224E+02  0.10103397779E+03  0.47000000000E+01 0. -1.
        -13    1    4    4    0    0 -0.24045379097E+02  0.46629413504E+02 -0.12869486314E+03  0.13897787686E+03  0.00000000000E+00 0.  1.
         14    1    4    4    0    0 -0.23882470196E+02  0.10131492259E+03 -0.67059828271E+02  0.12382288355E+03  0.00000000000E+00 0. -1.
         -5    1    5    5    0  503  0.47528837509E+02 -0.69703561619E+01 -0.20157123855E+02  0.52306556970E+02  0.47000000000E+01 0.  1.
         13    1    6    6    0    0 -0.71773058336E+02 -0.82136310563E+02 -0.10889226585E+03  0.15412745044E+03  0.00000000000E+00 0. -1.
        -14    1    6    6    0    0  0.16239011021E+02 -0.65926273691E+02 -0.90341939372E+02  0.11301170316E+03  0.00000000000E+00 0.  1.
</event>
<event>
12    1  0.1683022E-002  0.1801952E+03  0.7818608E-02  0.1167647E+00
         21   -1    0    0  503  502  0.00000000000E+00  0.00000000000E+00  0.54988012610E+03  0.54988012610E+03  0.00000000000E+00 0. -1.
         21   -1    0    0  501  503 -0.00000000000E+00 -0.00000000000E+00 -0.59112182744E+02  0.59112182744E+02  0.00000000000E+00 0.  1.
          6    2    1    2  501    0 -0.55243081196E+02 -0.18435456432E+01  0.23252281755E+03  0.29417201697E+03  0.17150836191E+03 0.  0.
         24    2    3    3    0    0  0.19115153321E+01 -0.46354565019E+02  0.18823444662E+03  0.20913421038E+03  0.78437946610E+02 0.  0.
         -6    2    1    2    0  502  0.55243081196E+02  0.18435456432E+01  0.25824512581E+03  0.31482029188E+03  0.17136532465E+03 0.  0.
        -24    2    5    5    0    0  0.47701961874E+02  0.66297149794E+02  0.13041298178E+03  0.17138290967E+03  0.75457051835E+02 0.  0.
          5    1    3    3  501    0 -0.57154596528E+02  0.44511019376E+02  0.44288370937E+02  0.85037806594E+02  0.47000000000E+01 0. -1.
        -13    1    4    4    0    0 -0.34823658803E+00 -0.60342519261E+02  0.81205984903E+02  0.10117189770E+03  0.00000000000E+00 0.  1.
         14    1    4    4    0    0  0.22597519201E+01  0.13987954242E+02  0.10702846171E+03  0.10796231268E+03  0.00000000000E+00 0. -1.
         -5    1    5    5    0  502  0.75411193213E+01 -0.64453604151E+02  0.12783214402E+03  0.14343738221E+03  0.47000000000E+01 0.  1.
         11    1    6    6    0    0  0.56397007107E+02  0.16440902033E+02  0.85392146887E+02  0.10364721135E+03  0.00000000000E+00 0. -1.
        -12    1    6    6    0    0 -0.86950452322E+01  0.49856247761E+02  0.45020834897E+02  0.67735698322E+02  0.00000000000E+00 0.  1.
</event>
<event>
12    1  0.1683022E-002  0.1759120E+03  0.7818608E-02  0.1172303E+00
         21   -1    0    0  501  502  0.00000000000E+00  0.00000000000E+00  0.16326669918E+03  0.16326669918E+03  0.00000000000E+00 0.  1.
         21   -1    0    0  502  503 -0.00000000000E+00 -0.00000000000E+00 -0.21480946056E+03  0.21480946056E+03  0.00000000000E+00 0.  1.
          6    2    1    2  501    0  0.24848203014E+02 -0.22969975843E+02  0.41551619886E+02  0.18075276035E+03  0.17262667892E+03 0.  0.
         24    2    3    3    0    0  0.62566423819E+01  0.51647372712E+02  0.45113650757E+01  0.95269046642E+02  0.79682131945E+02 0.  0.
         -6    2    1    2    0  503 -0.24848203014E+02  0.22969975843E+02 -0.93094381266E+02  0.19732339939E+03  0.17066020960E+03 0.  0.
        -24    2    5    5    0    0 -0.14323841635E+02 -0.54132214300E+02 -0.48867180776E+02  0.10769279541E+03  0.77937588885E+02 0.  0.
          5    1    3    3  501    0  0.18591560632E+02 -0.74617348555E+02  0.37040254810E+02  0.85483713704E+02  0.47000000000E+01 0. -1.
        -13    1    4    4    0    0  0.38142840080E+02  0.45562667445E+02 -0.90174342890E+01  0.60101140049E+02  0.00000000000E+00 0.  1.
         14    1    4    4    0    0 -0.31886197699E+02  0.60847052678E+01  0.13528799365E+02  0.35167906593E+02  0.00000000000E+00 0. -1.
         -5    1    5    5    0  503 -0.10524361379E+02  0.77102190143E+02 -0.44227200489E+02  0.89630603983E+02  0.47000000000E+01 0.  1.
         13    1    6    6    0    0  0.16927467904E+02 -0.55753001170E+02 -0.49408793258E+02  0.76394797993E+02  0.00000000000E+00 0. -1.
        -14    1    6    6    0    0 -0.31251309540E+02  0.16207868708E+01  0.54161248107E+00  0.31297997414E+02  0.00000000000E+00 0.  1.
</event>
<event>
12    1  0.1683022E-002  0.2032300E+03  0.7818608E-02  0.1147299E+00
         21   -1    0    0  501  502  0.00000000000E+00  0.00000000000E+00  0.60989027677E+02  0.60989027677E+02  0.00000000000E+00 0. -1.
         21   -1    0    0  502  503 -0.00000000000E+00 -0.00000000000E+00 -0.68692259828E+03  0.68692259828E+03  0.00000000000E+00 0.  1.
          6    2    1    2  501    0  0.10902029486E+03  0.47843648216E+01 -0.26082857248E+03  0.33065685961E+03  0.17144707564E+03 0.  0.
         24    2    3    3    0    0 -0.43709996530E+01 -0.26382238872E+02 -0.82940448267E+02  0.11736077996E+03  0.78608565362E+02 0.  0.
         -6    2    1    2    0  503 -0.10902029486E+03 -0.47843648216E+01 -0.36510499813E+03  0.41725476635E+03  0.16997519098E+03 0.  0.
        -24    2    5    5    0    0 -0.13975792940E+03 -0.22870828481E+02 -0.26117960954E+03  0.30727977494E+03  0.78426513499E+02 0.  0.
          5    1    3    3  501    0  0.11339129451E+03  0.31166603693E+02 -0.17788812421E+03  0.21329607965E+03  0.47000000000E+01 0. -1.
        -11    1    4    4    0    0  0.20695024865E+02  0.12906848764E+02 -0.61306900451E+02  0.65980351940E+02  0.00000000000E+00 0.  1.
         12    1    4    4    0    0 -0.25066024518E+02 -0.39289087636E+02 -0.21633547816E+02  0.51380428020E+02  0.00000000000E+00 0. -1.
         -5    1    5    5    0  503  0.30737634538E+02  0.18086463660E+02 -0.10392538858E+03  0.10997499142E+03  0.47000000000E+01 0.  1.
         13    1    6    6    0    0 -0.96694320540E+01 -0.31749796358E+01  0.42508493173E+01  0.11029421193E+02  0.00000000000E+00 0. -1.
        -14    1    6    6    0    0 -0.13008849734E+03 -0.19695848846E+02 -0.26543045886E+03  0.29625035374E+03  0.00000000000E+00 0.  1.
</event>
<event>
12    1  0.1683022E-002  0.1730863E+03  0.7818608E-02  0.1174713E+00
         21   -1    0    0  503  502  0.00000000000E+00  0.00000000000E+00  0.20125327472E+03  0.20125327472E+03  0.00000000000E+00 0. -1.
         21   -1    0    0  501  503 -0.00000000000E+00 -0.00000000000E+00 -0.17286127412E+03  0.17286127412E+03  0.00000000000E+00 0. -1.
          6    2    1    2  501    0 -0.10525614137E+02 -0.16135486874E+02 -0.55735085995E+02  0.18166656327E+03  0.17182897867E+03 0.  0.
         24    2    3    3    0    0  0.91045527610E+01  0.18988574783E+01 -0.10083613373E+03  0.12906641560E+03  0.80023216808E+02 0.  0.
         -6    2    1    2    0  502  0.10525614137E+02  0.16135486874E+02  0.84127086592E+02  0.19244798557E+03  0.17201080768E+03 0.  0.
        -24    2    5    5    0    0  0.72006549862E+02  0.28987368405E+02  0.47894254736E+02  0.11978448427E+03  0.77648260023E+02 0.  0.
          5    1    3    3  501    0 -0.19630166898E+02 -0.18034344352E+02  0.45101047735E+02  0.52600147675E+02  0.47000000000E+01 0. -1.
        -13    1    4    4    0    0 -0.17289951689E+02 -0.30754117846E+02 -0.64594257606E+02  0.73601469480E+02  0.00000000000E+00 0.  1.
         14    1    4    4    0    0  0.26394504450E+02  0.32652975324E+02 -0.36241876124E+02  0.55464946116E+02  0.00000000000E+00 0. -1.
         -5    1    5    5    0  502 -0.61480935725E+02 -0.12851881532E+02  0.36232831855E+02  0.72663501297E+02  0.47000000000E+01 0.  1.
         11    1    6    6    0    0  0.23604434751E+02 -0.23480373997E+02 -0.91929352139E+00  0.33306792153E+02  0.00000000000E+00 0. -1.
        -12    1    6    6    0    0  0.48402115112E+02  0.52467742402E+02  0.48813548258E+02  0.86477692115E+02  0.00000000000E+00 0.  1.
</event>
<event>
12    1  0.1683022E-002  0.1729049E+03  0.7818608E-02  0.1174972E+00
         21   -1    0    0  503  502  0.00000000000E+00  0.00000000000E+00  0.67415084701E+02  0.67415084701E+02  0.00000000000E+00 0. -1.
         21   -1    0    0  501  503 -0.00000000000E+00 -0.00000000000E+00 -0.61255950781E+03  0.61255950781E+03  0.00000000000E+00 0. -1.
          6    2    1    2  501    0  0.22307055731E+02  0.65426328254E+01 -0.45210438013E+03  0.48403975657E+03  0.17133506538E+03 0.  0.
         24    2    3    3    0    0 -0.50139579734E+01  0.73539546031E+02 -0.20535718304E+03  0.22686026003E+03  0.62135338975E+02 0.  0.
         -6    2    1    2    0  502 -0.22307055731E+02 -0.65426328254E+01 -0.93040042973E+02  0.19593483594E+03  0.17086134600E+03 0.  0.
        -24    2    5    5    0    0 -0.57021049250E+02 -0.55057370567E+02 -0.61337643540E+02  0.12821575994E+03  0.79964119893E+02 0.  0.
          5    1    3    3  501    0  0.27321013704E+02 -0.66996913205E+02 -0.24674719709E+03  0.25717949654E+03  0.47000000000E+01 0. -1.
        -11    1    4    4    0    0 -0.29220349583E+01  0.36588675448E+00  0.40609735043E+01  0.50163400221E+01  0.00000000000E+00 0.  1.
         12    1    4    4    0    0 -0.20919230151E+01  0.73173659276E+02 -0.20941815655E+03  0.22184392001E+03  0.00000000000E+00 0. -1.
         -5    1    5    5    0  502  0.34713993519E+02  0.48514737742E+02 -0.31702399433E+02  0.67719075998E+02  0.47000000000E+01 0.  1.
         11    1    6    6    0    0 -0.16110608422E+02  0.19159018009E+02 -0.27341005184E+01  0.25181242631E+02  0.00000000000E+00 0. -1.
        -12    1    6    6    0    0 -0.40910440828E+02 -0.74216388576E+02 -0.58603543021E+02  0.10303451731E+03  0.00000000000E+00 0.  1.
</event>
<event>
12    1  0.1683022E-002  0.1890300E+03  0.7818608E-02  0.1159375E+00
         21   -1    0    0  501  502  0.00000000000E+00  0.00000000000E+00  0.88123159801E+02  0.88123159801E+02  0.00000000000E+00 0.  1.
         21   -1    0    0  502  503 -0.00000000000E+00 -0.00000000000E+00 -0.40918559631E+03  0.40918559631E+03  0.00000000000E+00 0. -1.
          6    2    1    2  501    0 -0.75115090167E+02  0.15316878165E+02 -0.13574385929E+03  0.23259133452E+03  0.17261358588E+03 0.  0.
         24    2    3    3    0    0  0.36321840634E+01 -0.41922651267E+02 -0.85089263575E+02  0.12274837846E+03  0.77822106041E+02 0.  0.
         -6    2    1    2    0  503  0.75115090167E+02 -0.15316878165E+02 -0.18531857723E+03  0.26471742160E+03  0.17278731060E+03 0.  0.
        -24    2    5    5    0    0  0.31440083154E+02 -0.75617887889E+02 -0.11904221731E+03  0.16492581927E+03  0.79516869674E+02 0.  0.
          5    1    3    3  501    0 -0.78747274231E+02  0.57239529432E+02 -0.50654595712E+02  0.10984295606E+03  0.47000000000E+01 0. -1.
        -13    1    4    4    0    0  0.85207172600E+01  0.11845536691E+02  0.68571028044E+01  0.16122630709E+02  0.00000000000E+00 0.  1.
         14    1    4    4    0    0 -0.48885331966E+01 -0.53768187958E+02 -0.91946366379E+02  0.10662574775E+03  0.00000000000E+00 0. -1.
         -5    1    5    5    0  503  0.43675007013E+02  0.60301009723E+02 -0.66276359914E+02  0.99791602326E+02  0.47000000000E+01 0.  1.
         11    1    6    6    0    0 -0.72820243670E+01 -0.11931683249E+02 -0.79174719890E+02  0.80399186648E+02  0.00000000000E+00 0. -1.
        -12    1    6    6    0    0  0.38722107521E+02 -0.63686204640E+02 -0.39867497424E+02  0.84526632626E+02  0.00000000000E+00 0.  1.
</event>
<event>
12    1  0.1683022E-002  0.1860248E+03  0.7818608E-02  0.1162867E+00
         21   -1    0    0  503  502  0.00000000000E+00  0.00000000000E+00  0.55021899111E+02  0.55021899111E+02  0.00000000000E+00 0. -1.
         21   -1    0    0  501  503 -0.00000000000E+00 -0.00000000000E+00 -0.61790522682E+03  0.61790522682E+03  0.00000000000E+00 0. -1.
          6    2    1    2  501    0 -0.54129001852E+02  0.48115557403E+02 -0.28083278855E+03  0.33685648892E+03  0.17134813480E+03 0.  0.
         24    2    3    3    0    0 -0.22858517556E+02  0.62477843940E+02 -0.28361410578E+03  0.30201478707E+03  0.79686747986E+02 0.  0.
         -6    2    1    2    0  502  0.54129001852E+02 -0.48115557403E+02 -0.28205053916E+03  0.33607063701E+03  0.16776743043E+03 0.  0.
        -24    2    5    5    0    0  0.10041794470E+03 -0.32109593947E+02 -0.18991518878E+03  0.23162031443E+03  0.80407720336E+02 0.  0.
          5    1    3    3  501    0 -0.31270484297E+02 -0.14362286537E+02  0.27813172252E+01  0.34841701856E+02  0.47000000000E+01 0. -1.
        -11    1    4    4    0    0  0.13776613452E+02  0.48738431714E+02 -0.80069086442E+02  0.94743276320E+02  0.00000000000E+00 0.  1.
         12    1    4    4    0    0 -0.36635131007E+02  0.13739412225E+02 -0.20354501933E+03  0.20727151075E+03  0.00000000000E+00 0. -1.
         -5    1    5    5    0  502 -0.46288942845E+02 -0.16005963456E+02 -0.92135350383E+02  0.10445032258E+03  0.47000000000E+01 0.  1.
         11    1    6    6    0    0  0.49915634013E+01 -0.29386604291E+02 -0.83493271513E+02  0.88654467484E+02  0.00000000000E+00 0. -1.
        -12    1    6    6    0    0  0.95426381296E+02 -0.27229896553E+01 -0.10642191726E+03  0.14296584695E+03  0.00000000000E+00 0.  1.
</event>
<event>
12    1  0.1683022E-002  0.2315385E+03  0.7818608E-02  0.1126396E+00
         21   -1    0    0  501  502  0.00000000000E+00  0.00000000000E+00  0.53903968499E+02  0.53903968499E+02  0.00000000000E+00 0. -1.
         21   -1    0    0  502  503 -0.00000000000E+00 -0.00000000000E+00 -0.10111779443E+04  0.10111779443E+04  0.00000000000E+00 0.  1.
          6    2    1    2  501    0 -0.13165777972E+03  0.74072074264E+02 -0.37223245152E+03  0.43588904790E+03  0.16917984800E+03 0.  0.
         24    2    3    3    0    0 -0.89221063461E+02 -0.15586407636E+02 -0.26243661231E+03  0.28784603195E+03  0.76019920821E+02 0.  0.
         -6    2    1    2    0  503  0.13165777972E+03 -0.74072074264E+02 -0.58504152432E+03  0.62919286494E+03  0.17546974943E+03 0.  0.
        -24    2    5    5    0    0  0.77961446884E+02 -0.11749148393E+03 -0.39704253051E+03  0.42885751367E+03  0.79960990486E+02 0.  0.
          5    1    3    3  501    0 -0.42436716255E+02  0.89658481900E+02 -0.10979583921E+03  0.14804301595E+03  0.47000000000E+01 0. -1.
        -13    1    4    4    0    0 -0.69630612092E+02 -0.44261252890E+02 -0.20096915784E+03  0.21724659502E+03  0.00000000000E+00 0.  1.
         14    1    4    4    0    0 -0.19590451370E+02  0.28674845254E+02 -0.61467454472E+02  0.70599436927E+02  0.00000000000E+00 0. -1.
         -5    1    5    5    0  503  0.53696332832E+02  0.43419409662E+02 -0.18799899381E+03  0.20033535127E+03  0.47000000000E+01 0.  1.
         13    1    6    6    0    0  0.34710390824E+02  0.20732019570E+01 -0.93804272934E+02  0.10004174638E+03  0.00000000000E+00 0. -1.
        -14    1    6    6    0    0  0.43251056059E+02 -0.11956468588E+03 -0.30323825758E+03  0.32881576729E+03  0.00000000000E+00 0.  1.
</event>
<event>
12    1  0.1683022E-002  0.1967488E+03  0.7818608E-02  0.1152875E+00
         21   -1    0    0  503  502  0.00000000000E+00  0.00000000000E+00  0.90349347912E+02  0.90349347912E+02  0.00000000000E+00 0. -1.
         21   -1    0    0  501  503 -0.00000000000E+00 -0.00000000000E+00 -0.44728510919E+03  0.44728510919E+03  0.00000000000E+00 0. -1.
          6    2    1    2  501    0 -0.87459003772E+02  0.32072887803E+02 -0.23946730785E+03  0.30992690074E+03  0.17329842701E+03 0.  0.
         24    2    3    3    0    0 -0.70636989227E+02  0.66119813613E+02 -0.83901384514E+02  0.14972384262E+03  0.77565280413E+02 0.  0.
         -6    2    1    2    0  502  0.87459003772E+02 -0.32072887803E+02 -0.11746845343E+03  0.22770755636E+03  0.17138887420E+03 0.  0.
        -24    2    5    5    0    0  0.98584802385E+02  0.30209296207E+02 -0.81783430259E+02  0.15491768949E+03  0.81727573155E+02 0.  0.
          5    1    3    3  501    0 -0.16822014545E+02 -0.34046925810E+02 -0.15556592333E+03  0.16020305812E+03  0.47000000000E+01 0. -1.
        -11    1    4    4    0    0 -0.98434926199E+01  0.15054972709E+02 -0.65904765533E+02  0.68315332614E+02  0.00000000000E+00 0.  1.
         12    1    4    4    0    0 -0.60793496607E+02  0.51064840903E+02 -0.17996618981E+02  0.81408510003E+02  0.00000000000E+00 0. -1.
         -5    1    5    5    0  502 -0.11125798614E+02 -0.62282184010E+02 -0.35685023173E+02  0.72789866868E+02  0.47000000000E+01 0.  1.
         13    1    6    6    0    0  0.67362399803E+02 -0.19865484652E+02 -0.58774948102E+02  0.91579609696E+02  0.00000000000E+00 0. -1.
        -14    1    6    6    0    0  0.31222402582E+02  0.50074780859E+02 -0.23008482158E+02  0.63338079796E+02  0.00000000000E+00 0.  1.
</event>
<event>
12    1  0.1683022E-002  0.2117574E+03  0.7818608E-02  0.1140284E+00
         21   -1    0    0  503  502  0.00000000000E+00  0.00000000000E+00  0.24535023906E+03  0.24535023906E+03  0.00000000000E+00 0.  1.
         21   -1    0    0  501  503 -0.00000000000E+00 -0.00000000000E+00 -0.25001034342E+03  0.25001034342E+03  0.00000000000E+00 0. -1.
          6    2    1    2  501    0 -0.89948402265E+02 -0.83972306134E+02 -0.13120930184E+03  0.24867067240E+03  0.17169495961E+03 0.  0.
         24    2    3    3    0    0 -0.15501078804E+02 -0.27752882505E+02 -0.12892186171E+03  0.15523433073E+03  0.80413587639E+02 0.  0.
         -6    2    1    2    0  502  0.89948402265E+02  0.83972306134E+02  0.12654919748E+03  0.24668991008E+03  0.17233441063E+03 0.  0.
        -24    2    5    5    0    0  0.76690980937E+02  0.10690637542E+03  0.42088613651E+02  0.15804787166E+03  0.76793220247E+02 0.  0.
          5    1    3    3  501    0 -0.74447323461E+02 -0.56219423629E+02 -0.22874401264E+01  0.93436341677E+02  0.47000000000E+01 0. -1.
        -13    1    4    4    0    0  0.37261230296E+01 -0.51753308690E+02 -0.57369747803E+02  0.77353583732E+02  0.00000000000E+00 0.  1.
         14    1    4    4    0    0 -0.19227201834E+02  0.24000426185E+02 -0.71552113909E+02  0.77880746993E+02  0.00000000000E+00 0. -1.
         -5    1    5    5    0  502  0.13257421328E+02 -0.22934069287E+02  0.84460583826E+02  0.88642038416E+02  0.47000000000E+01 0.  1.
         13    1    6    6    0    0  0.76568500808E+02  0.82265621960E+02  0.60175556439E+02  0.12748123574E+03  0.00000000000E+00 0. -1.
        -14    1    6    6    0    0  0.12248012947E+00  0.24640753461E+02 -0.18086942788E+02  0.30566635927E+02  0.00000000000E+00 0.  1.
</event>
<event>
12    1  0.1683022E-002  0.2021874E+03  0.7818608E-02  0.1148695E+00
         21   -1    0    0  503  502  0.00000000000E+00  0.00000000000E+00  0.60656735118E+02  0.60656735118E+02  0.00000000000E+00 0.  1.
         21   -1    0    0  501  503 -0.00000000000E+00 -0.00000000000E+00 -0.76269718789E+03  0.76269718789E+03  0.00000000000E+00 0.  1.
          6    2    1    2  501    0  0.98054684371E+02  0.32734825605E+02 -0.50383106769E+03  0.54288624251E+03  0.17376258976E+03 0.  0.
         24    2    3    3    0    0 -0.34637541441E+01 -0.24257313573E+02 -0.24371970870E+03  0.25787026688E+03  0.80606223566E+02 0.  0.
         -6    2    1    2    0  502 -0.98054684371E+02 -0.32734825605E+02 -0.19820938508E+03  0.28046768050E+03  0.16937788975E+03 0.  0.
        -24    2    5    5    0    0 -0.34711998919E+02 -0.73308700661E+01 -0.19490495529E+03  0.21197924342E+03  0.75422765277E+02 0.  0.
          5    1    3    3  501    0  0.10151843852E+03  0.56992139178E+02 -0.26011135899E+03  0.28501597562E+03  0.47000000000E+01 0. -1.
        -13    1    4    4    0    0  0.33744857217E+02 -0.31247166791E+02 -0.12109554530E+03  0.12953467456E+03  0.00000000000E+00 0.  1.
         14    1    4    4    0    0 -0.37208611361E+02  0.69898532185E+01 -0.12262416340E+03  0.12833559232E+03  0.00000000000E+00 0. -1.
         -5    1    5    5    0  502 -0.63342685453E+02 -0.25403955539E+02 -0.33044297981E+01  0.68488437080E+02  0.47000000000E+01 0.  1.
         13    1    6    6    0    0 -0.41051996502E+02 -0.31948960653E+01 -0.19910784322E+03  0.20332094582E+03  0.00000000000E+00 0. -1.
        -14    1    6    6    0    0  0.63399975839E+01 -0.41359740008E+01  0.42028879369E+01  0.86582975988E+01  0.00000000000E+00 0.  1.
</event>
<event>
12    1  0.1683022E-002  0.3076142E+03  0.7818608E-02  0.1081568E+00
         21   -1    0    0  503  502  0.00000000000E+00  0.00000000000E+00  0.47415901406E+03  0.47415901406E+03  0.00000000000E+00 0. -1.
         21   -1    0    0  501  503 -0.00000000000E+00 -0.00000000000E+00 -0.25588341791E+03  0.25588341791E+03  0.00000000000E+00 0. -1.
          6    2    1    2  501    0  0.20870882077E+02  0.25507844784E+03 -0.62779715702E+02  0.31336679692E+03  0.16957844331E+03 0.  0.
         24    2    3    3    0    0 -0.40615595587E+02  0.80582123580E+02 -0.24499761173E+02  0.12437738178E+03  0.82014569166E+02 0.  0.
         -6    2    1    2    0  502 -0.20870882077E+02 -0.25507844784E+03  0.28105531185E+03  0.41667563505E+03  0.17066308404E+03 0.  0.
        -24    2    5    5    0    0  0.50352598069E+02 -0.17888493099E+03  0.19988837297E+03  0.28443192783E+03  0.80068453522E+02 0.  0.
          5    1    3    3  501    0  0.61486477664E+02  0.17449632426E+03 -0.38279954529E+02  0.18898941514E+03  0.47000000000E+01 0. -1.
        -11    1    4    4    0    0  0.19059573844E+02  0.36466483724E+02 -0.28508290035E+02  0.50057910374E+02  0.00000000000E+00 0.  1.
         12    1    4    4    0    0 -0.59675169431E+02  0.44115639856E+02  0.40085288611E+01  0.74319471407E+02  0.00000000000E+00 0. -1.
         -5    1    5    5    0  502 -0.71223480146E+02 -0.76193516847E+02  0.81166938882E+02  0.13224370723E+03  0.47000000000E+01 0.  1.
         11    1    6    6    0    0  0.28021099800E+01 -0.12296364567E+03  0.90524036876E+02  0.15271709541E+03  0.00000000000E+00 0. -1.
        -12    1    6    6    0    0  0.47550488089E+02 -0.55921285318E+02  0.10936433610E+03  0.13171483242E+03  0.00000000000E+00 0.  1.
</event>
<event>
12    1  0.1683022E-002  0.1880384E+03  0.7818608E-02  0.1160925E+00
         21   -1    0    0  501  502  0.00000000000E+00  0.00000000000E+00  0.74354532085E+03  0.74354532085E+03  0.00000000000E+00 0.  1.
         21   -1    0    0  502  503 -0.00000000000E+00 -0.00000000000E+00 -0.62936127298E+02  0.62936127298E+02  0.00000000000E+00 0.  1.
          6    2    1    2  501    0  0.67352857240E+02  0.34160836593E+01  0.54242025556E+03  0.57312633984E+03  0.17235425950E+03 0.  0.
         24    2    3    3    0    0  0.70290293343E+02  0.73453124670E+01  0.55158656569E+03  0.56171675565E+03  0.79267238936E+02 0.  0.
         -6    2    1    2    0  503 -0.67352857240E+02 -0.34160836593E+01  0.13818893799E+03  0.23335510831E+03  0.17552876398E+03 0.  0.
        -24    2    5    5    0    0 -0.92595792947E+02 -0.36112547693E+02  0.14254189093E+03  0.19155435757E+03  0.80602631846E+02 0.  0.
          5    1    3    3  501    0 -0.29374361028E+01 -0.39292288077E+01 -0.91663101352E+01  0.11409584189E+02  0.47000000000E+01 0. -1.
        -13    1    4    4    0    0  0.66571048545E+01  0.35302540229E+02  0.15720947544E+03  0.16126191603E+03  0.00000000000E+00 0.  1.
         14    1    4    4    0    0  0.63633188489E+02 -0.27957227762E+02  0.39437709025E+03  0.40045483962E+03  0.00000000000E+00 0. -1.
         -5    1    5    5    0  503  0.25242935706E+02  0.32696464034E+02 -0.43529529382E+01  0.41800750743E+02  0.47000000000E+01 0.  1.
         13    1    6    6    0    0 -0.81409901288E+01 -0.41758186961E+02  0.38015646097E+02  0.57054458605E+02  0.00000000000E+00 0. -1.
        -14    1    6    6    0    0 -0.84454802818E+02  0.56456392679E+01  0.10452624483E+03  0.13449989896E+03  0.00000000000E+00 0.  1.
</event>
<event>
12    1  0.1683022E-002  0.1772033E+03  0.7818608E-02  0.1170633E+00
         21   -1    0    0  501  502  0.00000000000E+00  0.00000000000E+00  0.29121861672E+02  0.29121861672E+02  0.00000000000E+00 0.  1.
         21   -1    0    0  502  503 -0.00000000000E+00 -0.00000000000E+00 -0.11377019146E+04  0.11377019146E+04  0.00000000000E+00 0.  1.
          6    2    1    2  501    0  0.31977067167E+02 -0.25856378764E+02 -0.41890171377E+03  0.45484024631E+03  0.17236565412E+03 0.  0.
         24    2    3    3    0    0 -0.11103734404E+02 -0.51345442195E+02 -0.37838555152E+03  0.39027015090E+03  0.79846839191E+02 0.  0.
         -6    2    1    2    0  503 -0.31977067167E+02  0.25856378764E+02 -0.68967833917E+03  0.71198352997E+03  0.17196874797E+03 0.  0.
        -24    2    5    5    0    0 -0.50970651264E+02  0.18426389039E+01 -0.66693304824E+03  0.67355366920E+03  0.79205125192E+02 0.  0.
          5    1    3    3  501    0  0.43080801571E+02  0.25489063431E+02 -0.40516162243E+02  0.64570095412E+02  0.47000000000E+01 0. -1.
        -13    1    4    4    0    0  0.24267775286E+01 -0.71071634757E+02 -0.26399139976E+03  0.27340176602E+03  0.00000000000E+00 0.  1.
         14    1    4    4    0    0 -0.13530511933E+02  0.19726192563E+02 -0.11439415176E+03  0.11686838488E+03  0.00000000000E+00 0. -1.
         -5    1    5    5    0  503  0.18993584097E+02  0.24013739860E+02 -0.22745290931E+02  0.38429860765E+02  0.47000000000E+01 0.  1.
         13    1    6    6    0    0 -0.34039178211E+02  0.19834534645E+02 -0.61262064532E+03  0.61388608837E+03  0.00000000000E+00 0. -1.
        -14    1    6    6    0    0 -0.16931473053E+02 -0.17991895742E+02 -0.54312402914E+02  0.59667580833E+02  0.00000000000E+00 0.  1.
</event>
<event>
12    1  0.1683022E-002  0.2162941E+03  0.7818608E-02  0.1136705E+00
         21   -1    0    0  503  502  0.00000000000E+00  0.00000000000E+00  0.26123041810E+03  0.26123041810E+03  0.00000000000E+00 0. -1.
         21   -1    0    0  501  503 -0.00000000000E+00 -0.00000000000E+00 -0.18476604555E+03  0.18476604555E+03  0.00000000000E+00 0. -1.
          6    2    1    2  501    0 -0.73347878962E+02 -0.10857321405E+03  0.77735017124E+02  0.22969867700E+03  0.17190315637E+03 0.  0.
         24    2    3    3    0    0 -0.49407421704E+02 -0.25513414408E+02 -0.19547692734E+02  0.99475440026E+02  0.80132535483E+02 0.  0.
         -6    2    1    2    0  502  0.73347878962E+02  0.10857321405E+03 -0.12706445804E+01  0.21629778665E+03  0.17209027809E+03 0.  0.
        -24    2    5    5    0    0 -0.34943500854E+01  0.97021174633E+02 -0.33087928366E+02  0.13219899161E+03  0.83405297011E+02 0.  0.
          5    1    3    3  501    0 -0.23940457258E+02 -0.83059799645E+02  0.97282709858E+02  0.13022323697E+03  0.47000000000E+01 0. -1.
        -13    1    4    4    0    0 -0.21546651565E+02 -0.50626403365E+02 -0.26913581170E+02  0.61250565408E+02  0.00000000000E+00 0.  1.
         14    1    4    4    0    0 -0.27860770139E+02  0.25112988957E+02  0.73658884362E+01  0.38224874618E+02  0.00000000000E+00 0. -1.
         -5    1    5    5    0  502  0.76842229047E+02  0.11552039421E+02  0.31817283786E+02  0.84098795040E+02  0.47000000000E+01 0.  1.
         13    1    6    6    0    0  0.79733409223E+01  0.82433907677E+02 -0.58020029438E+02  0.10111996398E+03  0.00000000000E+00 0. -1.
        -14    1    6    6    0    0 -0.11467691008E+02  0.14587266956E+02  0.24932101072E+02  0.31079027625E+02  0.00000000000E+00 0.  1.
</event>
<event>
12    1  0.1683022E-002  0.2072291E+03  0.7818608E-02  0.1143930E+00
         21   -1    0    0  503  502  0.00000000000E+00  0.00000000000E+00  0.11962424259E+03  0.11962424259E+03  0.00000000000E+00 0.  1.
         21   -1    0    0  501  503 -0.00000000000E+00 -0.00000000000E+00 -0.35986805436E+03  0.35986805436E+03  0.00000000000E+00 0.  1.
          6    2    1    2  501    0 -0.90640890711E+02 -0.72384004295E+02 -0.13895642375E+03  0.24950505957E+03  0.17172265985E+03 0.  0.
         24    2    3    3    0    0 -0.80371140033E+02 -0.80017450140E+02 -0.25036520355E+02  0.13477245016E+03  0.68370121346E+02 0.  0.
         -6    2    1    2    0  502  0.90640890711E+02  0.72384004295E+02 -0.10128738803E+03  0.22998723738E+03  0.17082089813E+03 0.  0.
        -24    2    5    5    0    0  0.10471236672E+01  0.13053254764E+02 -0.96640354422E+02  0.12232635380E+03  0.73843718775E+02 0.  0.
          5    1    3    3  501    0 -0.10269750679E+02  0.76334458448E+01 -0.11391990339E+03  0.11473260941E+03  0.47000000000E+01 0. -1.
        -13    1    4    4    0    0 -0.87381275492E+02 -0.59650122879E+02 -0.34447163321E+02  0.11126648879E+03  0.00000000000E+00 0.  1.
         14    1    4    4    0    0  0.70101354598E+01 -0.20367327261E+02  0.94106429653E+01  0.23505961371E+02  0.00000000000E+00 0. -1.
         -5    1    5    5    0  502  0.89593767044E+02  0.59330749531E+02 -0.46470336042E+01  0.10766088359E+03  0.47000000000E+01 0.  1.
         11    1    6    6    0    0  0.14664787877E+02 -0.66768327242E+01  0.57946294305E+01  0.17123487639E+02  0.00000000000E+00 0. -1.
        -12    1    6    6    0    0 -0.13617664210E+02  0.19730087488E+02 -0.10243498385E+03  0.10520286616E+03  0.00000000000E+00 0.  1.
</event>
<event>
12    1  0.1683022E-002  0.1804390E+03  0.7818608E-02  0.1167431E+00
         21   -1    0    0  503  502  0.00000000000E+00  0.00000000000E+00  0.94257117450E+02  0.94257117450E+02  0.00000000000E+00 0.  1.
         21   -1    0    0  501  503 -0.00000000000E+00 -0.00000000000E+00 -0.35005361868E+03  0.35005361868E+03  0.00000000000E+00 0.  1.
          6    2    1    2  501    0 -0.22010509034E+02  0.48338811066E+02 -0.15450610209E+03  0.23738572072E+03  0.17221713519E+03 0.  0.
         24    2    3    3    0    0 -0.60589077537E+02  0.72725229071E+02 -0.14444134696E+03  0.19041346692E+03  0.80212158765E+02 0.  0.
         -6    2    1    2    0  502  0.22010509034E+02 -0.48338811066E+02 -0.10129039914E+03  0.20692501541E+03  0.17244452407E+03 0.  0.
        -24    2    5    5    0    0 -0.39702717608E+01  0.30346017484E+01 -0.12215244609E+03  0.14551212167E+03  0.78915053073E+02 0.  0.
          5    1    3    3  501    0  0.38578568503E+02 -0.24386418005E+02 -0.10064755131E+02  0.46972253796E+02  0.47000000000E+01 0. -1.
        -11    1    4    4    0    0 -0.32357708556E+02  0.66121181812E+01 -0.10135905165E+03  0.10660393408E+03  0.00000000000E+00 0.  1.
         12    1    4    4    0    0 -0.28231368982E+02  0.66113110889E+02 -0.43082295307E+02  0.83809532841E+02  0.00000000000E+00 0. -1.
         -5    1    5    5    0  502  0.25980780795E+02 -0.51373412814E+02  0.20862046949E+02  0.61412893742E+02  0.47000000000E+01 0.  1.
         13    1    6    6    0    0 -0.35872155185E+02  0.20822423386E+01 -0.26421256481E+02  0.44600785249E+02  0.00000000000E+00 0. -1.
        -14    1    6    6    0    0  0.31901883424E+02  0.95235940976E+00 -0.95731189607E+02  0.10091133642E+03  0.00000000000E+00 0.  1.
</event>
<event>
12    1  0.1683022E-002  0.2086337E+03  0.7818608E-02  0.1143063E+00
         21   -1    0    0  503  502  0.00000000000E+00  0.00000000000E+00  0.18569338599E+02  0.18569338599E+02  0.00000000000E+00 0.  1.
         21   -1    0    0  501  503 -0.00000000000E+00 -0.00000000000E+00 -0.23460508633E+04  0.23460508633E+04  0.00000000000E+00 0.  1.
          6    2    1    2  501    0 -0.17248990689E+02  0.11726763942E+03 -0.12912413022E+04  0.13079878068E+04  0.17169384157E+03 0.  0.
         24    2    3    3    0    0 -0.71177873281E+02  0.56501200603E+02 -0.69389798399E+03  0.70512628514E+03  0.86313327418E+02 0.  0.
         -6    2    1    2    0  502  0.17248990689E+02 -0.11726763942E+03 -0.10362402225E+04  0.10566323951E+04  0.16920104242E+03 0.  0.
        -24    2    5    5    0    0  0.19006196561E+02 -0.15124434596E+03 -0.85414557885E+03  0.87132709675E+03  0.80063424624E+02 0.  0.
          5    1    3    3  501    0  0.53928882592E+02  0.60766438817E+02 -0.59734331822E+03  0.60286152165E+03  0.47000000000E+01 0. -1.
        -13    1    4    4    0    0 -0.25947103266E+02  0.29503418904E+02 -0.55792446140E+03  0.55930618495E+03  0.00000000000E+00 0.  1.
         14    1    4    4    0    0 -0.45230770015E+02  0.26997781699E+02 -0.13597352260E+03  0.14582010019E+03  0.00000000000E+00 0. -1.
         -5    1    5    5    0  502 -0.17572058717E+01  0.33976706539E+02 -0.18209464360E+03  0.18530529833E+03  0.47000000000E+01 0.  1.
         11    1    6    6    0    0 -0.26880813920E+02 -0.21747854767E+02 -0.18996925451E+03  0.19309030272E+03  0.00000000000E+00 0. -1.
        -12    1    6    6    0    0  0.45887010481E+02 -0.12949649119E+03 -0.66417632434E+03  0.67823679403E+03  0.00000000000E+00 0.  1.
</event>
<event>
12    1  0.1683022E-002  0.1816549E+03  0.7818608E-02  0.1166832E+00
         21   -1    0    0  501  502  0.00000000000E+00  0.00000000000E+00  0.90707079146E+03  0.90707079146E+03  0.00000000000E+00 0.  1.
         21   -1    0    0  502  503 -0.00000000000E+00 -0.00000000000E+00 -0.48821090978E+02  0.48821090978E+02  0.00000000000E+00 0.  1.
          6    2    1    2  501    0 -0.97749153079E+01  0.56309847986E+02  0.67759084094E+03  0.70151825517E+03  0.17243017910E+03 0.  0.
         24    2    3    3    0    0  0.30397556439E+02 -0.24271421956E+02  0.38932418354E+03  0.39948030338E+03  0.80610666429E+02 0.  0.
         -6    2    1    2    0  503  0.97749153079E+01 -0.56309847986E+02  0.18065885955E+03  0.25437362727E+03  0.16971143382E+03 0.  0.
        -24    2    5    5    0    0  0.65935044090E+02 -0.73624523361E+01  0.10318225661E+03  0.14678867661E+03  0.80614525729E+02 0.  0.
          5    1    3    3  501    0 -0.40172471747E+02  0.80581269941E+02  0.28826665740E+03  0.30203795178E+03  0.47000000000E+01 0. -1.
        -13    1    4    4    0    0  0.88345689804E+01  0.19681293488E+02  0.26480906173E+03  0.26568636039E+03  0.00000000000E+00 0.  1.
         14    1    4    4    0    0  0.21562987458E+02 -0.43952715443E+02  0.12451512181E+03  0.13379394299E+03  0.00000000000E+00 0. -1.
         -5    1    5    5    0  503 -0.56160128782E+02 -0.48947395650E+02  0.77476602934E+02  0.10758495066E+03  0.47000000000E+01 0.  1.
         13    1    6    6    0    0  0.15921121772E+02  0.19814586885E+02  0.82336538219E+02  0.86170792603E+02  0.00000000000E+00 0. -1.
        -14    1    6    6    0    0  0.50013922318E+02 -0.27177039221E+02  0.20845718394E+02  0.60617884010E+02  0.00000000000E+00 0.  1.
</event>
<event>
12    1  0.1683022E-002  0.1840858E+03  0.7818608E-02  0.1164950E+00
         21   -1    0    0  501  502  0.00000000000E+00  0.00000000000E+00  0.16283519957E+03  0.16283519957E+03  0.00000000000E+00 0.  1.
         21   -1    0    0  502  503 -0.00000000000E+00 -0.00000000000E+00 -0.23323698212E+03  0.23323698212E+03  0.00000000000E+00 0.  1.
          6    2    1    2  501    0  0.38532779719E+02 -0.32361327875E+02  0.36252404419E+02  0.18332190369E+03  0.17251276154E+03 0.  0.
         24    2    3    3    0    0  0.95646953227E+01 -0.64673874284E+02  0.72578466216E+02  0.12653349524E+03  0.80429461319E+02 0.  0.
         -6    2    1    2    0  503 -0.38532779719E+02  0.32361327875E+02 -0.10665418697E+03  0.21275027799E+03  0.17707494044E+03 0.  0.
        -24    2    5    5    0    0 -0.23022580417E+02  0.85860357096E+02 -0.10310758717E+03  0.15673795095E+03  0.77676061998E+02 0.  0.
          5    1    3    3  501    0  0.28968084396E+02  0.32312546409E+02 -0.36326061797E+02  0.56788408454E+02  0.47000000000E+01 0. -1.
        -13    1    4    4    0    0  0.44729598791E+02 -0.42920453163E+02  0.48272621129E+02  0.78569384994E+02  0.00000000000E+00 0.  1.
         14    1    4    4    0    0 -0.35164903468E+02 -0.21753421121E+02  0.24305845086E+02  0.47964110247E+02  0.00000000000E+00 0. -1.
         -5    1    5    5    0  503 -0.15510199301E+02 -0.53499029222E+02 -0.35465997981E+01  0.56012327037E+02  0.47000000000E+01 0.  1.
         11    1    6    6    0    0 -0.27162726675E+02  0.92330061595E+02 -0.61022979391E+02  0.11395814147E+03  0.00000000000E+00 0. -1.
        -12    1    6    6    0    0  0.41401462573E+01 -0.64697044985E+01 -0.42084607776E+02  0.42779809478E+02  0.00000000000E+00 0.  1.
</event>
<event>
12    1  0.1683022E-002  0.1853074E+03  0.7818608E-02  0.1162930E+00
         21   -1    0    0  503  502  0.00000000000E+00  0.00000000000E+00  0.17687881591E+03  0.17687881591E+03  0.00000000000E+00 0.  1.
         21   -1    0    0  501  503 -0.00000000000E+00 -0.00000000000E+00 -0.19585794171E+03  0.19585794171E+03  0.00000000000E+00 0. -1.
          6    2    1    2  501    0  0.23189265452E+02  0.64013060080E+02  0.11443841157E+02  0.18494864505E+03  0.17157979459E+03 0.  0.
         24    2    3    3    0    0  0.79672649077E+02  0.29522146713E+02  0.16401893032E+02  0.11841543523E+03  0.80832574177E+02 0.  0.
         -6    2    1    2    0  502 -0.23189265452E+02 -0.64013060080E+02 -0.30422966961E+02  0.18778811257E+03  0.17234675631E+03 0.  0.
        -24    2    5    5    0    0  0.48416143803E+02 -0.34935960123E+02  0.11652894991E+02  0.99667283386E+02  0.78950193955E+02 0.  0.
          5    1    3    3  501    0 -0.56483383625E+02  0.34490913368E+02 -0.49580518756E+01  0.66533209821E+02  0.47000000000E+01 0. -1.
        -13    1    4    4    0    0  0.18087775927E+02  0.43714533710E+02  0.26791148784E+02  0.54368131738E+02  0.00000000000E+00 0.  1.
         14    1    4    4    0    0  0.61584873150E+02 -0.14192386997E+02 -0.10389255752E+02  0.64047303492E+02  0.00000000000E+00 0. -1.
         -5    1    5    5    0  502 -0.71605409255E+02 -0.29077099957E+02 -0.42075861952E+02  0.88120829181E+02  0.47000000000E+01 0.  1.
         11    1    6    6    0    0  0.58665013155E+02 -0.49501629058E+02  0.20963348604E+02  0.79570453263E+02  0.00000000000E+00 0. -1.
        -12    1    6    6    0    0 -0.10248869352E+02  0.14565668935E+02 -0.93104536137E+01  0.20096830123E+02  0.00000000000E+00 0.  1.
</event>
<event>
12    1  0.1683022E-002  0.2453395E+03  0.7818608E-02  0.1118181E+00
         21   -1    0    0  503  502  0.00000000000E+00  0.00000000000E+00  0.33147249211E+03  0.33147249211E+03  0.00000000000E+00 0.  1.
         21   -1    0    0  501  503 -0.00000000000E+00 -0.00000000000E+00 -0.17407848408E+03  0.17407848408E+03  0.00000000000E+00 0. -1.
          6    2    1    2  501    0  0.15439907296E+03 -0.35568378874E+02  0.94383819866E+02  0.25224926398E+03  0.17209649159E+03 0.  0.
         24    2    3    3    0    0  0.58337474600E+02 -0.59995844940E+02  0.91751755798E+02  0.15298421706E+03  0.89347767879E+02 0.  0.
         -6    2    1    2    0  502 -0.15439907296E+03  0.35568378874E+02  0.63010188160E+02  0.25330171221E+03  0.18731601718E+03 0.  0.
        -24    2    5    5    0    0 -0.16526399402E+03  0.67738360034E+02  0.18021953464E+02  0.19674213779E+03  0.80510898881E+02 0.  0.
          5    1    3    3  501    0  0.96061598359E+02  0.24427466066E+02  0.26320640673E+01  0.99265046914E+02  0.47000000000E+01 0. -1.
        -13    1    4    4    0    0  0.36087307555E+02  0.17963755967E+02  0.40078052253E+02  0.56844002035E+02  0.00000000000E+00 0.  1.
         14    1    4    4    0    0  0.22250167046E+02 -0.77959600907E+02  0.51673703545E+02  0.96140215026E+02  0.00000000000E+00 0. -1.
         -5    1    5    5    0  502  0.10864921056E+02 -0.32169981160E+02  0.44988234697E+02  0.56559574419E+02  0.47000000000E+01 0.  1.
         13    1    6    6    0    0 -0.16105063678E+03  0.37570874022E+02  0.13179132366E+02  0.16589926977E+03  0.00000000000E+00 0. -1.
        -14    1    6    6    0    0 -0.42133572373E+01  0.30167486012E+02  0.48428210980E+01  0.30842868020E+02  0.00000000000E+00 0.  1.
</event>
<event>
12    1  0.1683022E-002  0.1776695E+03  0.7818608E-02  0.1170301E+00
         21   -1    0    0  503  502  0.00000000000E+00  0.00000000000E+00  0.41615020594E+02  0.41615020594E+02  0.00000000000E+00 0.  1.
         21   -1    0    0  501  503 -0.00000000000E+00 -0.00000000000E+00 -0.13576006293E+04  0.13576006293E+04  0.00000000000E+00 0.  1.
          6    2    1    2  501    0  0.40343125291E+02 -0.12388751297E+02 -0.11251559208E+04  0.11390971465E+04  0.17258451267E+03 0.  0.
         24    2    3    3    0    0  0.27256319945E+02  0.42633869750E+02 -0.36762315071E+03  0.37944147375E+03  0.79173841866E+02 0.  0.
         -6    2    1    2    0  502 -0.40343125291E+02  0.12388751297E+02 -0.19082968785E+03  0.26011850339E+03  0.17165260594E+03 0.  0.
        -24    2    5    5    0    0  0.24034998143E+02  0.50614245489E+02 -0.79344138679E+02  0.12574272858E+03  0.79851477539E+02 0.  0.
          5    1    3    3  501    0  0.13086805345E+02 -0.55022621046E+02 -0.75753277012E+03  0.75965567273E+03  0.47000000000E+01 0. -1.
        -13    1    4    4    0    0  0.20474411161E+02  0.17484961256E+02 -0.34147094269E+03  0.34253077246E+03  0.00000000000E+00 0.  1.
         14    1    4    4    0    0  0.67819087842E+01  0.25148908494E+02 -0.26152208026E+02  0.36910701291E+02  0.00000000000E+00 0. -1.
         -5    1    5    5    0  502 -0.64378123434E+02 -0.38225494192E+02 -0.11148554917E+03  0.13437577481E+03  0.47000000000E+01 0.  1.
         13    1    6    6    0    0  0.14541255830E+02  0.86046553067E+01 -0.80900038917E+02  0.82645656334E+02  0.00000000000E+00 0. -1.
        -14    1    6    6    0    0  0.94937423127E+01  0.42009590182E+02  0.15559002382E+01  0.43097072243E+02  0.00000000000E+00 0.  1.
</event>
<event>
12    1  0.1683022E-002  0.1885629E+03  0.7818608E-02  0.1160815E+00
         21   -1    0    0  501  502  0.00000000000E+00  0.00000000000E+00  0.88586343674E+03  0.88586343674E+03  0.00000000000E+00 0.  1.
         21   -1    0    0  502  503 -0.00000000000E+00 -0.00000000000E+00 -0.45022653543E+02  0.45022653543E+02  0.00000000000E+00 0.  1.
          6    2    1    2  501    0 -0.10466480740E+02 -0.71572825086E+02  0.58370681875E+03  0.61202273705E+03  0.16919209170E+03 0.  0.
         24    2    3    3    0    0  0.58999909529E+02 -0.44568995186E+02  0.30862460165E+03  0.32698396360E+03  0.78752670097E+02 0.  0.
         -6    2    1    2    0  503  0.10466480740E+02  0.71572825086E+02  0.25713396445E+03  0.31886335324E+03  0.17413714669E+03 0.  0.
        -24    2    5    5    0    0 -0.58837707749E+02  0.18480180288E+02  0.16187608442E+03  0.18956504242E+03  0.76991205233E+02 0.  0.
          5    1    3    3  501    0 -0.69466390269E+02 -0.27003829900E+02  0.27508221710E+03  0.28503877345E+03  0.47000000000E+01 0. -1.
        -13    1    4    4    0    0  0.32144759041E+02 -0.30157133069E+02  0.28508996485E+03  0.28847708100E+03  0.00000000000E+00 0.  1.
         14    1    4    4    0    0  0.26855150487E+02 -0.14411862117E+02  0.23534636808E+02  0.38506882594E+02  0.00000000000E+00 0. -1.
         -5    1    5    5    0  503  0.69304188489E+02  0.53092644797E+02  0.95257880023E+02  0.12929831082E+03  0.47000000000E+01 0.  1.
         11    1    6    6    0    0 -0.62811830639E+02  0.38012130448E+02  0.14821000582E+03  0.16539786562E+03  0.00000000000E+00 0. -1.
        -12    1    6    6    0    0  0.39741228896E+01 -0.19531950160E+02  0.13666078607E+02  0.24167176796E+02  0.00000000000E+00 0.  1.
</event>
<event>
12    1  0.1683022E-002  0.1869266E+03  0.7818608E-02  0.1165740E+00
         21   -1    0    0  503  502  0.00000000000E+00  0.00000000000E+00  0.26733079765E+04  0.26733079765E+04  0.00000000000E+00 0.  1.
         21   -1    0    0  501  503 -0.00000000000E+00 -0.00000000000E+00 -0.20041774550E+02  0.20041774550E+02  0.00000000000E+00 0.  1.
          6    2    1    2  501    0  0.46970115227E+02 -0.13952758104E+02  0.42410641705E+03  0.45636631562E+03  0.16125473595E+03 0.  0.
         24    2    3    3    0    0  0.75221448108E+02 -0.40041866546E+02  0.38097086069E+03  0.39838747800E+03  0.79449157348E+02 0.  0.
         -6    2    1    2    0  502 -0.46970115227E+02  0.13952758104E+02  0.22291597849E+04  0.22369834354E+04  0.18039033399E+03 0.  0.
        -24    2    5    5    0    0 -0.76792206706E+01 -0.20733301423E+02  0.41179595085E+03  0.41885794680E+03  0.73329627286E+02 0.  0.
          5    1    3    3  501    0 -0.28251332881E+02  0.26089108442E+02  0.43135556364E+02  0.57978837619E+02  0.47000000000E+01 0. -1.
        -13    1    4    4    0    0  0.20533083772E+02 -0.21168248513E+02  0.27862717147E+02  0.40571335708E+02  0.00000000000E+00 0.  1.
         14    1    4    4    0    0  0.54688364336E+02 -0.18873618033E+02  0.35310814354E+03  0.35781614229E+03  0.00000000000E+00 0. -1.
         -5    1    5    5    0  502 -0.39290894557E+02  0.34686059527E+02  0.18173638340E+04  0.18181254886E+04  0.47000000000E+01 0.  1.
         13    1    6    6    0    0 -0.10824831620E+02  0.26647182236E+02  0.13657757230E+03  0.13957321575E+03  0.00000000000E+00 0. -1.
        -14    1    6    6    0    0  0.31456109497E+01 -0.47380483659E+02  0.27521837856E+03  0.27928473105E+03  0.00000000000E+00 0.  1.
</event>
<event>
12    1  0.1683022E-002  0.2667417E+03  0.7818608E-02  0.1103260E+00
         21   -1    0    0  501  502  0.00000000000E+00  0.00000000000E+00  0.10106761334E+03  0.10106761334E+03  0.00000000000E+00 0. -1.
         21   -1    0    0  502  503 -0.00000000000E+00 -0.00000000000E+00 -0.84757201924E+03  0.84757201924E+03  0.00000000000E+00 0. -1.
          6    2    1    2  501    0  0.12940144893E+03 -0.15814827810E+03 -0.17638867208E+03  0.31920886653E+03  0.17036937513E+03 0.  0.
         24    2    3    3    0    0  0.79972638939E+02 -0.17385051995E+03 -0.10861298184E+03  0.23373722302E+03  0.78845946841E+02 0.  0.
         -6    2    1    2    0  503 -0.12940144893E+03  0.15814827810E+03 -0.57011573381E+03  0.62943076605E+03  0.17145123639E+03 0.  0.
        -24    2    5    5    0    0 -0.79502350643E+02  0.51464481109E+02 -0.42438774130E+03  0.44200053810E+03  0.79311437618E+02 0.  0.
          5    1    3    3  501    0  0.49428809989E+02  0.15702241856E+02 -0.67775690248E+02  0.85471643513E+02  0.47000000000E+01 0. -1.
        -11    1    4    4    0    0 -0.11677440168E+02 -0.52137727613E+02 -0.17553054216E+02  0.56238909678E+02  0.00000000000E+00 0.  1.
         12    1    4    4    0    0  0.91650079107E+02 -0.12171279234E+03 -0.91059927622E+02  0.17749831334E+03  0.00000000000E+00 0. -1.
         -5    1    5    5    0  503 -0.49899098286E+02  0.10668379699E+03 -0.14572799251E+03  0.18743022795E+03  0.47000000000E+01 0.  1.
         13    1    6    6    0    0 -0.81393476165E+02  0.68225017511E+02 -0.37820857942E+03  0.39283747342E+03  0.00000000000E+00 0. -1.
        -14    1    6    6    0    0  0.18911255223E+01 -0.16760536403E+02 -0.46179161882E+02  0.49163064677E+02  0.00000000000E+00 0.  1.
</event>
<event>
12    1  0.1683022E-002  0.2133887E+03  0.7818608E-02  0.1139683E+00
         21   -1    0    0  501  502  0.00000000000E+00  0.00000000000E+00  0.71576056768E+02  0.71576056768E+02  0.00000000000E+00 0. -1.
         21   -1    0    0  502  503 -0.00000000000E+00 -0.00000000000E+00 -0.75308869395E+03  0.75308869395E+03  0.00000000000E+00 0. -1.
          6    2    1    2  501    0 -0.12337458306E+03  0.89805916199E+01 -0.17299323015E+03  0.27470240817E+03  0.17387586550E+03 0.  0.
         24    2    3    3    0    0 -0.28791201983E+02  0.58791815072E+02 -0.57396127917E+02  0.11718430126E+03  0.78437453630E+02 0.  0.
         -6    2    1    2    0  503  0.12337458306E+03 -0.89805916199E+01 -0.50851940704E+03  0.54996234255E+03  0.16901080476E+03 0.  0.
        -24    2    5    5    0    0  0.14397010938E+03 -0.66240366949E+01 -0.31653622834E+03  0.35680603291E+03  0.79649802314E+02 0.  0.
          5    1    3    3  501    0 -0.94583381075E+02 -0.49811223452E+02 -0.11559710223E+03  0.15751810690E+03  0.47000000000E+01 0. -1.
        -11    1    4    4    0    0 -0.10512363624E+01 -0.82066339308E+00  0.17483536159E+02  0.17534326987E+02  0.00000000000E+00 0.  1.
         12    1    4    4    0    0 -0.27739965620E+02  0.59612478465E+02 -0.74879664075E+02  0.99649974277E+02  0.00000000000E+00 0. -1.
         -5    1    5    5    0  503 -0.20595526323E+02 -0.23565549249E+01 -0.19198317869E+03  0.19315630965E+03  0.47000000000E+01 0.  1.
         11    1    6    6    0    0  0.34103933138E+02  0.32606983703E+02 -0.75670205116E+02  0.89175521215E+02  0.00000000000E+00 0. -1.
        -12    1    6    6    0    0  0.10986617624E+03 -0.39231020398E+02 -0.24086602323E+03  0.26763051169E+03  0.00000000000E+00 0.  1.
</event>
<event>
12    1  0.1683022E-002  0.2036709E+03  0.7818608E-02  0.1146858E+00
         21   -1    0    0  501  502  0.00000000000E+00  0.00000000000E+00  0.35430433385E+03  0.35430433385E+03  0.00000000000E+00 0. -1.
         21   -1    0    0  502  503 -0.00000000000E+00 -0.00000000000E+00 -0.12572551586E+03  0.12572551586E+03  0.00000000000E+00 0.  1.
          6    2    1    2  501    0 -0.54242393152E+02 -0.94394105049E+02  0.17924670029E+03  0.27131387365E+03  0.17213179308E+03 0.  0.
         24    2    3    3    0    0  0.29725760654E+02 -0.67429192292E+02  0.61682270557E+02  0.12427223835E+03  0.78794478894E+02 0.  0.
         -6    2    1    2    0  503  0.54242393152E+02  0.94394105049E+02  0.49332117696E+02  0.20871597605E+03  0.17110294135E+03 0.  0.
        -24    2    5    5    0    0  0.77688072408E+02  0.71731804571E+01  0.16072781072E+02  0.11235486857E+03  0.79236299050E+02 0.  0.
          5    1    3    3  501    0 -0.83968153806E+02 -0.26964912757E+02  0.11756442974E+03  0.14704163530E+03  0.47000000000E+01 0. -1.
        -13    1    4    4    0    0 -0.78275896375E+01 -0.89519353065E+01 -0.16067675802E+02  0.19989459996E+02  0.00000000000E+00 0.  1.
         14    1    4    4    0    0  0.37553350292E+02 -0.58477256985E+02  0.77749946359E+02  0.10428277835E+03  0.00000000000E+00 0. -1.
         -5    1    5    5    0  503 -0.23445679256E+02  0.87220924592E+02  0.33259336624E+02  0.96361107482E+02  0.47000000000E+01 0.  1.
         11    1    6    6    0    0  0.39998768484E+02  0.35405749629E+02  0.32444754417E+02  0.62499045403E+02  0.00000000000E+00 0. -1.
        -12    1    6    6    0    0  0.37689303924E+02 -0.28232569172E+02 -0.16371973345E+02  0.49855823165E+02  0.00000000000E+00 0.  1.
</event>
<event>
12    1  0.1683022E-002  0.1855859E+03  0.7818608E-02  0.1164449E+00
         21   -1    0    0  501  502  0.00000000000E+00  0.00000000000E+00  0.71410198459E+02  0.71410198459E+02  0.00000000000E+00 0. -1.
         21   -1    0    0  502  503 -0.00000000000E+00 -0.00000000000E+00 -0.48060029913E+03  0.48060029913E+03  0.00000000000E+00 0. -1.
          6    2    1    2  501    0  0.24248799148E+02 -0.22600612563E+02 -0.25543684423E+03  0.31100801044E+03  0.17429632590E+03 0.  0.
         24    2    3    3    0    0  0.56519657738E+02  0.24941034630E+02 -0.22342762705E+03  0.24506639599E+03  0.79505389746E+02 0.  0.
         -6    2    1    2    0  503 -0.24248799148E+02  0.22600612563E+02 -0.15375325644E+03  0.24100248714E+03  0.18260159636E+03 0.  0.
        -24    2    5    5    0    0 -0.97842652262E+01  0.74508722826E+02 -0.15108257862E+03  0.18684625784E+03  0.80238998499E+02 0.  0.
          5    1    3    3  501    0 -0.32270858589E+02 -0.47541647192E+02 -0.32009217182E+02  0.65941614452E+02  0.47000000000E+01 0. -1.
        -13    1    4    4    0    0 -0.72144873240E+01  0.32672186311E+02 -0.10701694666E+03  0.11212558788E+03  0.00000000000E+00 0.  1.
         14    1    4    4    0    0  0.63734145062E+02 -0.77311516813E+01 -0.11641068038E+03  0.13294080811E+03  0.00000000000E+00 0. -1.
         -5    1    5    5    0  503 -0.14464533922E+02 -0.51908110264E+02 -0.26706778172E+01  0.54156229307E+02  0.47000000000E+01 0.  1.
         13    1    6    6    0    0 -0.18605336354E+02  0.47664075528E+02 -0.15009020757E+03  0.15857204370E+03  0.00000000000E+00 0. -1.
        -14    1    6    6    0    0  0.88210711275E+01  0.26844647298E+02 -0.99237105607E+00  0.28274214131E+02  0.00000000000E+00 0.  1.
</event>
<event>
12    1  0.1683022E-002  0.2051801E+03  0.7818608E-02  0.1145480E+00
         21   -1    0    0  503  502  0.00000000000E+00  0.00000000000E+00  0.17759767954E+04  0.17759767954E+04  0.00000000000E+00 0. -1.
         21   -1    0    0  501  503 -0.00000000000E+00 -0.00000000000E+00 -0.23895358335E+02  0.23895358335E+02  0.00000000000E+00 0.  1.
          6    2    1    2  501    0 -0.95687247264E+02 -0.61214783064E+02  0.79061598590E+03  0.81675736642E+03  0.17063311368E+03 0.  0.
         24    2    3    3    0    0 -0.34313926576E+02 -0.91345461749E+02  0.62667455124E+03  0.63906823819E+03  0.78522486965E+02 0.  0.
         -6    2    1    2    0  502  0.95687247264E+02  0.61214783064E+02  0.96146545118E+03  0.98311478734E+03  0.17086711885E+03 0.  0.
        -24    2    5    5    0    0  0.93084487342E+02  0.67655055547E+02  0.96419086779E+03  0.97429609330E+03  0.79667556539E+02 0.  0.
          5    1    3    3  501    0 -0.61373320688E+02  0.30130678685E+02  0.16394143466E+03  0.17768912822E+03  0.47000000000E+01 0. -1.
        -11    1    4    4    0    0 -0.59852903755E+02 -0.61117837819E+02  0.44190063593E+03  0.45010435704E+03  0.00000000000E+00 0.  1.
         12    1    4    4    0    0  0.25538977179E+02 -0.30227623929E+02  0.18477391530E+03  0.18896388115E+03  0.00000000000E+00 0. -1.
         -5    1    5    5    0  502  0.26027599216E+01 -0.64402724833E+01 -0.27254166045E+01  0.88186940380E+01  0.47000000000E+01 0.  1.
         11    1    6    6    0    0  0.66513452897E+02 -0.68304025021E+00  0.43842996595E+03  0.44344711185E+03  0.00000000000E+00 0. -1.
        -12    1    6    6    0    0  0.26571034445E+02  0.68338095797E+02  0.52576090184E+03  0.53084898145E+03  0.00000000000E+00 0.  1.
</event>
<event>
12    1  0.1683022E-002  0.1980048E+03  0.7818608E-02  0.1156474E+00
         21   -1    0    0  503  502  0.00000000000E+00  0.00000000000E+00  0.23759997405E+03  0.23759997405E+03  0.00000000000E+00 0.  1.
         21   -1    0    0  501  503 -0.00000000000E+00 -0.00000000000E+00 -0.16693772463E+03  0.16693772463E+03  0.00000000000E+00 0.  1.
          6    2    1    2  501    0  0.47934367090E+02  0.80437292735E+01 -0.36181227014E+02  0.17954560657E+03  0.16901224371E+03 0.  0.
         24    2    3    3    0    0  0.96670408793E+02 -0.50995010997E+01 -0.26332609571E+02  0.12790229596E+03  0.79337369112E+02 0.  0.
         -6    2    1    2    0  502 -0.47934367090E+02 -0.80437292735E+01  0.10684347643E+03  0.22499209210E+03  0.19194662779E+03 0.  0.
        -24    2    5    5    0    0  0.35957933857E+02  0.30761640459E+02  0.93127714656E+02  0.13142934845E+03  0.79759957780E+02 0.  0.
          5    1    3    3  501    0 -0.48736041702E+02  0.13143230373E+02 -0.98486174437E+01  0.51643310612E+02  0.47000000000E+01 0. -1.
        -11    1    4    4    0    0  0.84207093311E+02 -0.19569242128E+02 -0.48111048468E+02  0.98936660475E+02  0.00000000000E+00 0.  1.
         12    1    4    4    0    0  0.12463315482E+02  0.14469741028E+02  0.21778438898E+02  0.28965635485E+02  0.00000000000E+00 0. -1.
         -5    1    5    5    0  502 -0.83892300948E+02 -0.38805369732E+02  0.13715761778E+02  0.93562743651E+02  0.47000000000E+01 0.  1.
         11    1    6    6    0    0  0.34408762775E+01  0.50574512097E+02  0.71474788260E+02  0.87625716889E+02  0.00000000000E+00 0. -1.
        -12    1    6    6    0    0  0.32517057580E+02 -0.19812871638E+02  0.21652926396E+02  0.43803631558E+02  0.00000000000E+00 0.  1.
</event>
<event>
12    1  0.1683022E-002  0.2855958E+03  0.7818608E-02  0.1092813E+00
         21   -1    0    0  501  502  0.00000000000E+00  0.00000000000E+00  0.32362827750E+03  0.32362827750E+03  0.00000000000E+00 0.  1.
         21   -1    0    0  502  503 -0.00000000000E+00 -0.00000000000E+00 -0.25233661866E+03  0.25233661866E+03  0.00000000000E+00 0. -1.
          6    2    1    2  501    0  0.10972462031E+03 -0.19865684811E+03  0.15538693876E+02  0.28601818153E+03  0.17338083388E+03 0.  0.
         24    2    3    3    0    0  0.14690006167E+03 -0.17074825255E+03  0.17575865503E+02  0.23925127854E+03  0.78725277824E+02 0.  0.
         -6    2    1    2    0  503 -0.10972462031E+03  0.19865684811E+03  0.55752964970E+02  0.28994671463E+03  0.17162945149E+03 0.  0.
        -24    2    5    5    0    0 -0.51709580376E+02  0.19960708951E+03  0.65732392559E+02  0.23088465581E+03  0.80436968922E+02 0.  0.
          5    1    3    3  501    0 -0.37175441363E+02 -0.27908595557E+02 -0.20371716272E+01  0.46766902984E+02  0.47000000000E+01 0. -1.
        -13    1    4    4    0    0  0.47763009025E+02 -0.11665593683E+02 -0.88375306871E+01  0.49954910226E+02  0.00000000000E+00 0.  1.
         14    1    4    4    0    0  0.99137052647E+02 -0.15908265887E+03  0.26413396190E+02  0.18929636832E+03  0.00000000000E+00 0. -1.
         -5    1    5    5    0  503 -0.58015039933E+02 -0.95024140252E+00 -0.99794275893E+01  0.59062058821E+02  0.47000000000E+01 0.  1.
         11    1    6    6    0    0 -0.23138088303E+02  0.18136385590E+02 -0.11547572083E+02  0.31585535195E+02  0.00000000000E+00 0. -1.
        -12    1    6    6    0    0 -0.28571492073E+02  0.18147070392E+03  0.77279964642E+02  0.19929912061E+03  0.00000000000E+00 0.  1.
</event>
<event>
12    1  0.1683022E-002  0.1799414E+03  0.7818608E-02  0.1168427E+00
         21   -1    0    0  501  502  0.00000000000E+00  0.00000000000E+00  0.76668931425E+02  0.76668931425E+02  0.00000000000E+00 0.  1.
         21   -1    0    0  502  503 -0.00000000000E+00 -0.00000000000E+00 -0.42419179111E+03  0.42419179111E+03  0.00000000000E+00 0.  1.
          6    2    1    2  501    0  0.35353198879E+02  0.39512161567E+02 -0.13977658251E+03  0.22602002929E+03  0.16951843864E+03 0.  0.
         24    2    3    3    0    0  0.11696104414E+02 -0.36331497067E+02 -0.38463304800E+02  0.97185294399E+02  0.80677004739E+02 0.  0.
         -6    2    1    2    0  503 -0.35353198879E+02 -0.39512161567E+02 -0.20774627717E+03  0.27484069324E+03  0.17195299183E+03 0.  0.
        -24    2    5    5    0    0 -0.68068051237E+02 -0.78020927030E+02 -0.14240641514E+03  0.19210875169E+03  0.76848296989E+02 0.  0.
          5    1    3    3  501    0  0.23657094465E+02  0.75843658635E+02 -0.10131327771E+03  0.12883473489E+03  0.47000000000E+01 0. -1.
        -13    1    4    4    0    0 -0.53284743774E+01  0.25013560596E+02 -0.11732744516E+02  0.28137664202E+02  0.00000000000E+00 0.  1.
         14    1    4    4    0    0  0.17024578791E+02 -0.61345057663E+02 -0.26730560284E+02  0.69047630197E+02  0.00000000000E+00 0. -1.
         -5    1    5    5    0  503  0.32714852358E+02  0.38508765463E+02 -0.65339862034E+02  0.82731941552E+02  0.47000000000E+01 0.  1.
         11    1    6    6    0    0 -0.38144745390E+02 -0.50091951642E+02 -0.24951531086E+02  0.67725948673E+02  0.00000000000E+00 0. -1.
        -12    1    6    6    0    0 -0.29923305847E+02 -0.27928975389E+02 -0.11745488405E+03  0.12438280302E+03  0.00000000000E+00 0.  1.
</event>
<event>
12    1  0.1683022E-002  0.1804743E+03  0.7818608E-02  0.1167518E+00
         21   -1    0    0  501  502  0.00000000000E+00  0.00000000000E+00  0.70573014261E+03  0.70573014261E+03  0.00000000000E+00 0.  1.
         21   -1    0    0  502  503 -0.00000000000E+00 -0.00000000000E+00 -0.92773962596E+02  0.92773962596E+02  0.00000000000E+00 0.  1.
          6    2    1    2  501    0 -0.55021526469E+02 -0.54264803634E+01  0.58975840877E+03  0.61654497431E+03  0.17104358967E+03 0.  0.
         24    2    3    3    0    0 -0.49765693731E+02  0.22357243697E+02  0.57754360287E+03  0.58538649900E+03  0.78385390073E+02 0.  0.
         -6    2    1    2    0  503  0.55021526469E+02  0.54264803634E+01  0.23197771238E+02  0.18195913089E+03  0.17179689654E+03 0.  0.
        -24    2    5    5    0    0 -0.19397361986E+02  0.37462253019E+02  0.35270958833E+02  0.99908454190E+02  0.83414510898E+02 0.  0.
          5    1    3    3  501    0 -0.52558327374E+01 -0.27783724060E+02  0.12214805898E+02  0.31158475308E+02  0.47000000000E+01 0. -1.
        -13    1    4    4    0    0 -0.44235070708E+02 -0.16763740635E+02  0.43176283930E+03  0.43434653663E+03  0.00000000000E+00 0.  1.
         14    1    4    4    0    0 -0.55306230234E+01  0.39120984332E+02  0.14578076357E+03  0.15103996238E+03  0.00000000000E+00 0. -1.
         -5    1    5    5    0  503  0.74418888454E+02 -0.32035772656E+02 -0.12073187594E+02  0.82050676701E+02  0.47000000000E+01 0.  1.
         11    1    6    6    0    0  0.25336774867E+02  0.28946833560E+02 -0.54082389709E+01  0.38847398659E+02  0.00000000000E+00 0. -1.
        -12    1    6    6    0    0 -0.44734136853E+02  0.85154194590E+01  0.40679197803E+02  0.61061055530E+02  0.00000000000E+00 0.  1.
</event>
<event>
12    1  0.1683022E-002  0.3300008E+03  0.7818608E-02  0.1071385E+00
         21   -1    0    0  501  502  0.00000000000E+00  0.00000000000E+00  0.84673911436E+02  0.84673911436E+02  0.00000000000E+00 0. -1.
         21   -1    0    0  502  503 -0.00000000000E+00 -0.00000000000E+00 -0.13605008908E+04  0.13605008908E+04  0.00000000000E+00 0.  1.
          6    2    1    2  501    0  0.14079169814E+03 -0.24283139367E+03 -0.45729102863E+03  0.56262075610E+03  0.16922660048E+03 0.  0.
         24    2    3    3    0    0  0.83940691852E+02 -0.21646572809E+03 -0.42702938019E+03  0.49287089872E+03  0.81634429508E+02 0.  0.
         -6    2    1    2    0  503 -0.14079169814E+03  0.24283139367E+03 -0.81853595072E+03  0.88255404613E+03  0.17352565715E+03 0.  0.
        -24    2    5    5    0    0 -0.30889567287E+02  0.17115628960E+03 -0.39944274624E+03  0.44337640217E+03  0.82337631966E+02 0.  0.
          5    1    3    3  501    0  0.56851006287E+02 -0.26365665581E+02 -0.30261648448E+02  0.69749857377E+02  0.47000000000E+01 0. -1.
        -13    1    4    4    0    0 -0.25454180468E+01  0.40475754319E+01 -0.31340910080E+02  0.31703543407E+02  0.00000000000E+00 0.  1.
         14    1    4    4    0    0  0.86486109898E+02 -0.22051330352E+03 -0.39568847011E+03  0.46116735532E+03  0.00000000000E+00 0. -1.
         -5    1    5    5    0  503 -0.10990213085E+03  0.71675104069E+02 -0.41909320448E+03  0.43917764396E+03  0.47000000000E+01 0.  1.
         13    1    6    6    0    0  0.17677920793E+02  0.17175165448E+02 -0.10201511605E+03  0.10495036491E+03  0.00000000000E+00 0. -1.
        -14    1    6    6    0    0 -0.48567488080E+02  0.15398112416E+03 -0.29742763019E+03  0.33842603726E+03  0.00000000000E+00 0.  1.
</event>
<event>
12    1  0.1683022E-002  0.2668246E+03  0.7818608E-02  0.1103264E+00
         21   -1    0    0  501  502  0.00000000000E+00  0.00000000000E+00  0.16055679644E+03  0.16055679644E+03  0.00000000000E+00 0.  1.
         21   -1    0    0  502  503 -0.00000000000E+00 -0.00000000000E+00 -0.44465063903E+03  0.44465063903E+03  0.00000000000E+00 0.  1.
          6    2    1    2  501    0  0.57232204073E+02 -0.19425902726E+03 -0.16647919072E+03  0.31361084422E+03  0.17211724437E+03 0.  0.
         24    2    3    3    0    0  0.38958288377E+02 -0.21778122545E+03 -0.16467521005E+03  0.28340200199E+03  0.65210118363E+02 0.  0.
         -6    2    1    2    0  503 -0.57232204073E+02  0.19425902726E+03 -0.11761465186E+03  0.29159659126E+03  0.17373333257E+03 0.  0.
        -24    2    5    5    0    0 -0.37063616790E+02  0.19730588653E+03 -0.51545361693E+02  0.22229077355E+03  0.80330188261E+02 0.  0.
          5    1    3    3  501    0  0.18273915695E+02  0.23522198184E+02 -0.18039806711E+01  0.30208842224E+02  0.47000000000E+01 0. -1.
        -11    1    4    4    0    0  0.43573343285E+02 -0.75931539409E+02 -0.76925577833E+02  0.11654089174E+03  0.00000000000E+00 0.  1.
         12    1    4    4    0    0 -0.46150549071E+01 -0.14184968604E+03 -0.87749632220E+02  0.16686111025E+03  0.00000000000E+00 0. -1.
         -5    1    5    5    0  503 -0.20168587283E+02 -0.30468592667E+01 -0.66069290168E+02  0.69305817704E+02  0.47000000000E+01 0.  1.
         13    1    6    6    0    0 -0.36705575329E+02  0.71322068039E+02  0.12136836921E+02  0.81126071395E+02  0.00000000000E+00 0. -1.
        -14    1    6    6    0    0 -0.35804146131E+00  0.12598381849E+03 -0.63682198613E+02  0.14116470216E+03  0.00000000000E+00 0.  1.
</event>
<event>
12    1  0.1683022E-002  0.2258372E+03  0.7818608E-02  0.1130033E+00
         21   -1    0    0  503  502  0.00000000000E+00  0.00000000000E+00  0.79259614826E+02  0.79259614826E+02  0.00000000000E+00 0.  1.
         21   -1    0    0  501  503 -0.00000000000E+00 -0.00000000000E+00 -0.70255639243E+03  0.70255639243E+03  0.00000000000E+00 0. -1.
          6    2    1    2  501    0  0.10546008239E+03 -0.96396815757E+02 -0.19053975455E+03  0.29367557028E+03  0.17183063595E+03 0.  0.
         24    2    3    3    0    0  0.79263549798E+02 -0.77936995469E+02 -0.21360649559E+03  0.25391141774E+03  0.80538112172E+02 0.  0.
         -6    2    1    2    0  502 -0.10546008239E+03  0.96396815757E+02 -0.43275702306E+03  0.48814043698E+03  0.17489502606E+03 0.  0.
        -24    2    5    5    0    0 -0.12751193209E+03  0.99597327199E+02 -0.42810476315E+03  0.46489692454E+03  0.81710108291E+02 0.  0.
          5    1    3    3  501    0  0.26196532596E+02 -0.18459820288E+02  0.23066741039E+02  0.39764152541E+02  0.47000000000E+01 0. -1.
        -11    1    4    4    0    0  0.21014164945E+02 -0.89556081292E+01 -0.92704645561E+00  0.22861702921E+02  0.00000000000E+00 0.  1.
         12    1    4    4    0    0  0.58249384853E+02 -0.68981387340E+02 -0.21267944913E+03  0.23104971482E+03  0.00000000000E+00 0. -1.
         -5    1    5    5    0  502  0.22051849693E+02 -0.32005114414E+01 -0.46522599027E+01  0.23243512441E+02  0.47000000000E+01 0.  1.
         11    1    6    6    0    0 -0.14669990085E+02  0.59627289769E+02 -0.15401144029E+03  0.16580152603E+03  0.00000000000E+00 0. -1.
        -12    1    6    6    0    0 -0.11284194200E+03  0.39970037430E+02 -0.27409332287E+03  0.29909539851E+03  0.00000000000E+00 0.  1.
</event>
<event>
12    1  0.1683022E-002  0.1971816E+03  0.7818608E-02  0.1152264E+00
         21   -1    0    0  501  502  0.00000000000E+00  0.00000000000E+00  0.94198038859E+02  0.94198038859E+02  0.00000000000E+00 0. -1.
         21   -1    0    0  502  503 -0.00000000000E+00 -0.00000000000E+00 -0.51484368353E+03  0.51484368353E+03  0.00000000000E+00 0. -1.
          6    2    1    2  501    0  0.13457239719E+02 -0.94736298126E+02 -0.73666171005E+02  0.20994859015E+03  0.17174295407E+03 0.  0.
         24    2    3    3    0    0  0.12992343941E+02 -0.10601808746E+03 -0.10872117589E+03  0.17282126509E+03  0.81475516018E+02 0.  0.
         -6    2    1    2    0  503 -0.13457239719E+02  0.94736298126E+02 -0.34697947367E+03  0.39909313224E+03  0.17240797421E+03 0.  0.
        -24    2    5    5    0    0 -0.81129018593E+00  0.81658510316E+02 -0.35899693642E+03  0.37678936609E+03  0.80141472038E+02 0.  0.
          5    1    3    3  501    0  0.46489577787E+00  0.11281789331E+02  0.35055004886E+02  0.37127325061E+02  0.47000000000E+01 0. -1.
        -13    1    4    4    0    0 -0.32972636527E+02 -0.38981238549E+02 -0.27834675694E+02  0.58150674023E+02  0.00000000000E+00 0.  1.
         14    1    4    4    0    0  0.45964980468E+02 -0.67036848907E+02 -0.80886500198E+02  0.11467059106E+03  0.00000000000E+00 0. -1.
         -5    1    5    5    0  503 -0.12645949533E+02  0.13077787810E+02  0.12017462752E+02  0.22303766153E+02  0.47000000000E+01 0.  1.
         11    1    6    6    0    0 -0.35059736959E+02  0.46987671026E+02 -0.12916227219E+03  0.14184470008E+03  0.00000000000E+00 0. -1.
        -12    1    6    6    0    0  0.34248446773E+02  0.34670839290E+02 -0.22983466424E+03  0.23494466601E+03  0.00000000000E+00 0.  1.
</event>
<event>
12    1  0.1683022E-002  0.2344148E+03  0.7818608E-02  0.1123753E+00
         21   -1    0    0  501  502  0.00000000000E+00  0.00000000000E+00  0.13421731294E+03  0.13421731294E+03  0.00000000000E+00 0. -1.
         21   -1    0    0  502  503 -0.00000000000E+00 -0.00000000000E+00 -0.44328460989E+03  0.44328460989E+03  0.00000000000E+00 0.  1.
          6    2    1    2  501    0 -0.55311064498E+02 -0.14984846810E+03 -0.23618010298E+03  0.33201699017E+03  0.17011867466E+03 0.  0.
         24    2    3    3    0    0  0.28032926737E+02 -0.99141402800E+02 -0.99816458009E+02  0.16428338883E+03  0.80067745234E+02 0.  0.
         -6    2    1    2    0  503  0.55311064498E+02  0.14984846810E+03 -0.72887193973E+02  0.24548493266E+03  0.17157048659E+03 0.  0.
        -24    2    5    5    0    0  0.28342776151E+02  0.13776476591E+03  0.53154971919E+01  0.16175288777E+03  0.79707581232E+02 0.  0.
          5    1    3    3  501    0 -0.83343991235E+02 -0.50707065302E+02 -0.13636364497E+03  0.16773360133E+03  0.47000000000E+01 0. -1.
        -11    1    4    4    0    0  0.27983798021E+00  0.55083292414E+01 -0.40418018053E+02  0.40792599619E+02  0.00000000000E+00 0.  1.
         12    1    4    4    0    0  0.27753088757E+02 -0.10464973204E+03 -0.59398439956E+02  0.12349078922E+03  0.00000000000E+00 0. -1.
         -5    1    5    5    0  503  0.26968288347E+02  0.12083702191E+02 -0.78202691165E+02  0.83732044884E+02  0.47000000000E+01 0.  1.
         11    1    6    6    0    0  0.45965014875E+02  0.12716799613E+03  0.19714594526E+02  0.13664972400E+03  0.00000000000E+00 0. -1.
        -12    1    6    6    0    0 -0.17622238724E+02  0.10596769786E+02 -0.14399097334E+02  0.25103163776E+02  0.00000000000E+00 0.  1.
</event>
<event>
12    1  0.1683022E-002  0.1808317E+03  0.7818608E-02  0.1168620E+00
         21   -1    0    0  503  502  0.00000000000E+00  0.00000000000E+00  0.63248167461E+02  0.63248167461E+02  0.00000000000E+00 0.  1.
         21   -1    0    0  501  503 -0.00000000000E+00 -0.00000000000E+00 -0.56495308081E+03  0.56495308081E+03  0.00000000000E+00 0.  1.
          6    2    1    2  501    0  0.56421312724E+02  0.45108833352E+01 -0.36282433925E+03  0.40539066791E+03  0.17174510147E+03 0.  0.
         24    2    3    3    0    0  0.70210610109E+02  0.43127757786E+02 -0.33918549098E+03  0.35782710137E+03  0.78764864738E+02 0.  0.
         -6    2    1    2    0  502 -0.56421312724E+02 -0.45108833352E+01 -0.13888057410E+03  0.22281058036E+03  0.16478175949E+03 0.  0.
        -24    2    5    5    0    0 -0.73143655853E+01  0.14234980967E+02 -0.14862959655E+03  0.16914464028E+03  0.79139230074E+02 0.  0.
          5    1    3    3  501    0 -0.13789297385E+02 -0.38616874451E+02 -0.23638848267E+02  0.47563566541E+02  0.47000000000E+01 0. -1.
        -13    1    4    4    0    0  0.24045719025E+02 -0.18011913228E+02 -0.16239705759E+03  0.16515274729E+03  0.00000000000E+00 0.  1.
         14    1    4    4    0    0  0.46164891084E+02  0.61139671013E+02 -0.17678843339E+03  0.19267435408E+03  0.00000000000E+00 0. -1.
         -5    1    5    5    0  502 -0.49106947139E+02 -0.18745864302E+02  0.97490224563E+01  0.53665940079E+02  0.47000000000E+01 0.  1.
         11    1    6    6    0    0  0.10065646358E+02  0.43522911607E+02 -0.65237308385E+02  0.79066222097E+02  0.00000000000E+00 0. -1.
        -12    1    6    6    0    0 -0.17380011944E+02 -0.29287930640E+02 -0.83392288170E+02  0.90078418184E+02  0.00000000000E+00 0.  1.
</event>
<event>
12    1  0.1683022E-002  0.1832959E+03  0.7818608E-02  0.1165010E+00
         21   -1    0    0  501  502  0.00000000000E+00  0.00000000000E+00  0.35785030409E+02  0.35785030409E+02  0.00000000000E+00 0. -1.
         21   -1    0    0  502  503 -0.00000000000E+00 -0.00000000000E+00 -0.99481588223E+03  0.99481588223E+03  0.00000000000E+00 0. -1.
          6    2    1    2  501    0  0.42596820957E+02  0.40202872544E+02 -0.34727003432E+03  0.39197058104E+03  0.17208631423E+03 0.  0.
         24    2    3    3    0    0 -0.15975840630E+02  0.28965212565E+01 -0.73220272029E+02  0.10922001474E+03  0.79398904675E+02 0.  0.
         -6    2    1    2    0  503 -0.42596820957E+02 -0.40202872544E+02 -0.61176081750E+03  0.63863033160E+03  0.17368547003E+03 0.  0.
        -24    2    5    5    0    0 -0.64714405267E+02  0.30061156777E+02 -0.30547473381E+03  0.32357561189E+03  0.79339373685E+02 0.  0.
          5    1    3    3  501    0  0.58572661587E+02  0.37306351287E+02 -0.27404976229E+03  0.28275056630E+03  0.47000000000E+01 0. -1.
        -13    1    4    4    0    0  0.26544434191E+02 -0.19409705421E+02 -0.32962336051E+02  0.46560275439E+02  0.00000000000E+00 0.  1.
         14    1    4    4    0    0 -0.42520274821E+02  0.22306226677E+02 -0.40257935978E+02  0.62659739296E+02  0.00000000000E+00 0. -1.
         -5    1    5    5    0  503  0.22117584311E+02 -0.70264029321E+02 -0.30628608369E+03  0.31505471971E+03  0.47000000000E+01 0.  1.
         11    1    6    6    0    0 -0.77503775365E+02  0.36227070520E+02 -0.20549124005E+03  0.22258905088E+03  0.00000000000E+00 0. -1.
        -12    1    6    6    0    0  0.12789370098E+02 -0.61659137433E+01 -0.99983493761E+02  0.10098656101E+03  0.00000000000E+00 0.  1.
</event>
<event>
12    1  0.1683022E-002  0.2562736E+03  0.7818608E-02  0.1109414E+00
         21   -1    0    0  503  502  0.00000000000E+00  0.00000000000E+00  0.95151129923E+03  0.95151129923E+03  0.00000000000E+00 0.  1.
         21   -1    0    0  501  503 -0.00000000000E+00 -0.00000000000E+00 -0.76502981390E+02  0.76502981390E+02  0.00000000000E+00 0.  1.
          6    2    1    2  501    0  0.13932673864E+03 -0.12813398326E+03  0.27662302903E+03  0.37708948332E+03  0.17275971891E+03 0.  0.
         24    2    3    3    0    0  0.30517356238E+02 -0.42379778259E+01  0.13146133304E+03  0.15735393807E+03  0.80801672357E+02 0.  0.
         -6    2    1    2    0  502 -0.13932673864E+03  0.12813398326E+03  0.59838528882E+03  0.65092479730E+03  0.17264958761E+03 0.  0.
        -24    2    5    5    0    0 -0.74409108100E+02  0.11301327188E+03  0.53904004409E+03  0.56155543600E+03  0.80446401882E+02 0.  0.
          5    1    3    3  501    0  0.10880938241E+03 -0.12389600544E+03  0.14516169599E+03  0.21973554525E+03  0.47000000000E+01 0. -1.
        -11    1    4    4    0    0  0.31193266212E+02  0.15072813054E+02  0.13350199463E+03  0.13792386349E+03  0.00000000000E+00 0.  1.
         12    1    4    4    0    0 -0.67590997431E+00 -0.19310790880E+02 -0.20406615889E+01  0.19430074586E+02  0.00000000000E+00 0. -1.
         -5    1    5    5    0  502 -0.64917630544E+02  0.15120711383E+02  0.59345244727E+02  0.89369361304E+02  0.47000000000E+01 0.  1.
         11    1    6    6    0    0 -0.16139437096E+02  0.82487650893E+02  0.38481710779E+03  0.39388945204E+03  0.00000000000E+00 0. -1.
        -12    1    6    6    0    0 -0.58269671004E+02  0.30525620988E+02  0.15422293630E+03  0.16766598396E+03  0.00000000000E+00 0.  1.
</event>
<event>
12    1  0.1683022E-002  0.1911771E+03  0.7818608E-02  0.1157451E+00
         21   -1    0    0  501  502  0.00000000000E+00  0.00000000000E+00  0.25043603153E+04  0.25043603153E+04  0.00000000000E+00 0. -1.
         21   -1    0    0  502  503 -0.00000000000E+00 -0.00000000000E+00 -0.14588831482E+02  0.14588831482E+02  0.00000000000E+00 0.  1.
          6    2    1    2  501    0 -0.83626189436E+02 -0.39799351764E+01  0.12097233946E+04  0.12247034973E+04  0.17163561815E+03 0.  0.
         24    2    3    3    0    0 -0.89050465988E+02 -0.13536580598E+02  0.12063981025E+04  0.12122978609E+04  0.78463349436E+02 0.  0.
         -6    2    1    2    0  503  0.83626189436E+02  0.39799351764E+01  0.12800480892E+04  0.12942456494E+04  0.17187062297E+03 0.  0.
        -24    2    5    5    0    0  0.11879549367E+02  0.28504295028E+02  0.10133658152E+04  0.10169541966E+04  0.79573512871E+02 0.  0.
          5    1    3    3  501    0  0.54242765526E+01  0.95566454213E+01  0.33252920806E+01  0.12405636431E+02  0.47000000000E+01 0. -1.
        -13    1    4    4    0    0 -0.14359022288E+01  0.61600996283E+01  0.65920675649E+01  0.91358632554E+01  0.00000000000E+00 0.  1.
         14    1    4    4    0    0 -0.87614563760E+02 -0.19696680226E+02  0.11998060350E+04  0.12031619976E+04  0.00000000000E+00 0. -1.
         -5    1    5    5    0  503  0.71746640068E+02 -0.24524359852E+02  0.26668227396E+03  0.27729145287E+03  0.47000000000E+01 0.  1.
         11    1    6    6    0    0 -0.15383254869E+02 -0.22655689990E+02  0.32472475233E+03  0.32587741498E+03  0.00000000000E+00 0. -1.
        -12    1    6    6    0    0  0.27262804236E+02  0.51159985018E+02  0.68864106288E+03  0.69107678159E+03  0.00000000000E+00 0.  1.
</event>
<event>
12    1  0.1683022E-002  0.1821460E+03  0.7818608E-02  0.1165809E+00
         21   -1    0    0  501  502  0.00000000000E+00  0.00000000000E+00  0.64668476852E+03  0.64668476852E+03  0.00000000000E+00 0.  1.
         21   -1    0    0  502  503 -0.00000000000E+00 -0.00000000000E+00 -0.51468539846E+02  0.51468539846E+02  0.00000000000E+00 0.  1.
          6    2    1    2  501    0 -0.27583248331E+02  0.54652058054E+02  0.27379803328E+03  0.32885033822E+03  0.17155028090E+03 0.  0.
         24    2    3    3    0    0  0.15112074729E+02  0.91519159694E+02  0.21063059231E+03  0.24403118122E+03  0.81128537500E+02 0.  0.
         -6    2    1    2    0  503  0.27583248331E+02 -0.54652058054E+02  0.32141819539E+03  0.36930297015E+03  0.17125228289E+03 0.  0.
        -24    2    5    5    0    0 -0.44048266878E+02 -0.39335098188E+02  0.23855096314E+03  0.25860178944E+03  0.80503563396E+02 0.  0.
          5    1    3    3  501    0 -0.42695323060E+02 -0.36867101640E+02  0.63167440973E+02  0.84819156997E+02  0.47000000000E+01 0. -1.
        -13    1    4    4    0    0 -0.67132627553E+01  0.99671467623E+02  0.16845224750E+03  0.19584593190E+03  0.00000000000E+00 0.  1.
         14    1    4    4    0    0  0.21825337484E+02 -0.81523079285E+01  0.42178344811E+02  0.48185249318E+02  0.00000000000E+00 0. -1.
         -5    1    5    5    0  503  0.71631515209E+02 -0.15316959866E+02  0.82867232250E+02  0.11070118071E+03  0.47000000000E+01 0.  1.
         13    1    6    6    0    0 -0.59479078987E+01  0.24150325330E+02  0.76396056403E+02  0.80342848194E+02  0.00000000000E+00 0. -1.
        -14    1    6    6    0    0 -0.38100358979E+02 -0.63485423518E+02  0.16215490674E+03  0.17825894124E+03  0.00000000000E+00 0.  1.
</event>
<event>
12    1  0.1683022E-002  0.1819507E+03  0.7818608E-02  0.1166262E+00
         21   -1    0    0  503  502  0.00000000000E+00  0.00000000000E+00  0.65432610023E+03  0.65432610023E+03  0.00000000000E+00 0. -1.
         21   -1    0    0  501  503 -0.00000000000E+00 -0.00000000000E+00 -0.56237120550E+02  0.56237120550E+02  0.00000000000E+00 0. -1.
          6    2    1    2  501    0  0.37356612706E+02  0.41798915036E+02  0.41638541581E+03  0.45440384768E+03  0.17309932546E+03 0.  0.
         24    2    3    3    0    0 -0.32315031400E+02 -0.59943352983E+01  0.11849703345E+03  0.14472996904E+03  0.76321842814E+02 0.  0.
         -6    2    1    2    0  502 -0.37356612706E+02 -0.41798915036E+02  0.18170356386E+03  0.25615937309E+03  0.17163558341E+03 0.  0.
        -24    2    5    5    0    0 -0.18665128780E+02  0.25469235644E+02  0.16387226817E+03  0.18394842674E+03  0.77368174509E+02 0.  0.
          5    1    3    3  501    0  0.69671644106E+02  0.47793250335E+02  0.29788838236E+03  0.30967387865E+03  0.47000000000E+01 0. -1.
        -13    1    4    4    0    0 -0.12760650577E+02 -0.17310053150E+02 -0.24925266129E+01  0.21649130055E+02  0.00000000000E+00 0.  1.
         14    1    4    4    0    0 -0.19554380823E+02  0.11315717852E+02  0.12098956007E+03  0.12308083898E+03  0.00000000000E+00 0. -1.
         -5    1    5    5    0  502 -0.18691483927E+02 -0.67268150680E+02  0.17831295689E+02  0.72210946353E+02  0.47000000000E+01 0.  1.
         13    1    6    6    0    0  0.12102431440E+02  0.48537644898E+01 -0.26936314833E+01  0.13314786031E+02  0.00000000000E+00 0. -1.
        -14    1    6    6    0    0 -0.30767560220E+02  0.20615471154E+02  0.16656589966E+03  0.17063364071E+03  0.00000000000E+00 0.  1.
</event>
<event>
12    1  0.1683022E-002  0.2197857E+03  0.7818608E-02  0.1134084E+00
         21   -1    0    0  503  502  0.00000000000E+00  0.00000000000E+00  0.46707031256E+03  0.46707031256E+03  0.00000000000E+00 0. -1.
         21   -1    0    0  501  503 -0.00000000000E+00 -0.00000000000E+00 -0.12143024048E+03  0.12143024048E+03  0.00000000000E+00 0.  1.
          6    2    1    2  501    0  0.87708283915E+02 -0.10493603596E+03  0.59254412806E+02  0.22763315792E+03  0.17205073216E+03 0.  0.
         24    2    3    3    0    0  0.51470187372E+02 -0.13755466019E+03  0.62962375106E+02  0.17851072647E+03  0.79569806202E+02 0.  0.
         -6    2    1    2    0  502 -0.87708283915E+02  0.10493603596E+03  0.28638565927E+03  0.36086739512E+03  0.17176791410E+03 0.  0.
        -24    2    5    5    0    0  0.15528404246E+02  0.11656077856E+02  0.95546608813E+02  0.12464589409E+03  0.77655965447E+02 0.  0.
          5    1    3    3  501    0  0.36238096542E+02  0.32618624223E+02 -0.37079623003E+01  0.49122431451E+02  0.47000000000E+01 0. -1.
        -13    1    4    4    0    0  0.50776202913E+02 -0.12728334777E+03  0.25155396441E+02  0.13932719538E+03  0.00000000000E+00 0.  1.
         14    1    4    4    0    0  0.69398445902E+00 -0.10271312418E+02  0.37806978665E+02  0.39183531094E+02  0.00000000000E+00 0. -1.
         -5    1    5    5    0  502 -0.10323668816E+03  0.93279958108E+02  0.19083905046E+03  0.23622150102E+03  0.47000000000E+01 0.  1.
         13    1    6    6    0    0  0.25336800928E+02  0.40973721064E+02  0.48568997760E+02  0.68408675200E+02  0.00000000000E+00 0. -1.
        -14    1    6    6    0    0 -0.98083966827E+01 -0.29317643208E+02  0.46977611052E+02  0.56237218894E+02  0.00000000000E+00 0.  1.
</event>
<event>
12    1  0.1683022E-002  0.1686633E+03  0.7818608E-02  0.1179389E+00
         21   -1    0    0  503  502  0.00000000000E+00  0.00000000000E+00  0.82453173854E+03  0.82453173854E+03  0.00000000000E+00 0. -1.
         21   -1    0    0  501  503 -0.00000000000E+00 -0.00000000000E+00 -0.37111608182E+02  0.37111608182E+02  0.00000000000E+00 0. -1.
          6    2    1    2  501    0 -0.82872401497E+01  0.18154064056E+02  0.27767587054E+03  0.32488644829E+03  0.16747855627E+03 0.  0.
         24    2    3    3    0    0 -0.23501992031E+02  0.50488908775E+02  0.27075900049E+03  0.28818544082E+03  0.81479681008E+02 0.  0.
         -6    2    1    2    0  502  0.82872401497E+01 -0.18154064056E+02  0.50974425982E+03  0.53675689843E+03  0.16694462916E+03 0.  0.
        -24    2    5    5    0    0 -0.42526191749E+02  0.33332656274E+02  0.24127539691E+03  0.25867326428E+03  0.76016429413E+02 0.  0.
          5    1    3    3  501    0  0.15214751881E+02 -0.32334844719E+02  0.69168700497E+01  0.36701007467E+02  0.47000000000E+01 0. -1.
        -13    1    4    4    0    0  0.28379449831E+02  0.13297245154E+02  0.12839961871E+03  0.13216910375E+03  0.00000000000E+00 0.  1.
         14    1    4    4    0    0 -0.51881441862E+02  0.37191663621E+02  0.14235938177E+03  0.15601633707E+03  0.00000000000E+00 0. -1.
         -5    1    5    5    0  502  0.50813431899E+02 -0.51486720329E+02  0.26846886291E+03  0.27808363415E+03  0.47000000000E+01 0.  1.
         13    1    6    6    0    0 -0.16950873717E+02  0.46702204254E+02  0.21130435239E+03  0.21706671173E+03  0.00000000000E+00 0. -1.
        -14    1    6    6    0    0 -0.25575318032E+02 -0.13369547980E+02  0.29971044520E+02  0.41606552552E+02  0.00000000000E+00 0.  1.
</event>
<event>
12    1  0.1683022E-002  0.2074675E+03  0.7818608E-02  0.1143663E+00
         21   -1    0    0  503  502  0.00000000000E+00  0.00000000000E+00  0.59904855533E+02  0.59904855533E+02  0.00000000000E+00 0.  1.
         21   -1    0    0  501  503 -0.00000000000E+00 -0.00000000000E+00 -0.79222256954E+03  0.79222256954E+03  0.00000000000E+00 0.  1.
          6    2    1    2  501    0  0.75589531483E+02  0.87697085098E+02 -0.49756056302E+03  0.53908188669E+03  0.17215751703E+03 0.  0.
         24    2    3    3    0    0  0.49777255010E+02  0.43838415795E+02 -0.46932062010E+03  0.48069146910E+03  0.80017886717E+02 0.  0.
         -6    2    1    2    0  502 -0.75589531483E+02 -0.87697085098E+02 -0.23475715098E+03  0.31304553839E+03  0.17170332892E+03 0.  0.
        -24    2    5    5    0    0 -0.73687693878E+02 -0.12544245591E+03 -0.21004757762E+03  0.26764748755E+03  0.79683792270E+02 0.  0.
          5    1    3    3  501    0  0.25812276473E+02  0.43858669303E+02 -0.28239942921E+02  0.58390417587E+02  0.47000000000E+01 0. -1.
        -13    1    4    4    0    0  0.11969240324E+02  0.59337198679E+02 -0.22612091986E+03  0.23408296875E+03  0.00000000000E+00 0.  1.
         14    1    4    4    0    0  0.37808014686E+02 -0.15498782884E+02 -0.24319970024E+03  0.24660850035E+03  0.00000000000E+00 0. -1.
         -5    1    5    5    0  502 -0.19018376052E+01  0.37745370816E+02 -0.24709573358E+02  0.45398050838E+02  0.47000000000E+01 0.  1.
         11    1    6    6    0    0 -0.83873166530E+02 -0.74716241922E+02 -0.16132835309E+03  0.19658093087E+03  0.00000000000E+00 0. -1.
        -12    1    6    6    0    0  0.10185472652E+02 -0.50726213992E+02 -0.48719224536E+02  0.71066556681E+02  0.00000000000E+00 0.  1.
</event>
<event>
12    1  0.1683022E-002  0.1811618E+03  0.7818608E-02  0.1167910E+00
         21   -1    0    0  501  502  0.00000000000E+00  0.00000000000E+00  0.14765299783E+04  0.14765299783E+04  0.00000000000E+00 0. -1.
         21   -1    0    0  502  503 -0.00000000000E+00 -0.00000000000E+00 -0.40993403246E+02  0.40993403246E+02  0.00000000000E+00 0. -1.
          6    2    1    2  501    0  0.39035079005E+02  0.79929155692E+01  0.12447783738E+04  0.12578922112E+04  0.17672575119E+03 0.  0.
         24    2    3    3    0    0 -0.47797236857E+02  0.71186588270E+01  0.70343451651E+03  0.70960772557E+03  0.79923425963E+02 0.  0.
         -6    2    1    2    0  503 -0.39035079005E+02 -0.79929155692E+01  0.19075820125E+03  0.25963117030E+03  0.17155765548E+03 0.  0.
        -24    2    5    5    0    0  0.11255195585E+02 -0.53904776793E+01  0.19178243683E+03  0.20904437894E+03  0.82239361703E+02 0.  0.
          5    1    3    3  501    0  0.86832315862E+02  0.87425674217E+00  0.54134385726E+03  0.54828448564E+03  0.47000000000E+01 0. -1.
        -13    1    4    4    0    0 -0.51371272758E+02 -0.17128963195E+02  0.26433801072E+03  0.26982770976E+03  0.00000000000E+00 0.  1.
         14    1    4    4    0    0  0.35740359010E+01  0.24247622022E+02  0.43909650580E+03  0.43978001581E+03  0.00000000000E+00 0. -1.
         -5    1    5    5    0  503 -0.50290274590E+02 -0.26024378899E+01 -0.10242355809E+01  0.50586791358E+02  0.47000000000E+01 0.  1.
         13    1    6    6    0    0  0.10691163945E+02 -0.33648864577E+02  0.34928688902E+02  0.49664478073E+02  0.00000000000E+00 0. -1.
        -14    1    6    6    0    0  0.56403164005E+00  0.28258386898E+02  0.15685374793E+03  0.15937990087E+03  0.00000000000E+00 0.  1.
</event>
<event>
12    1  0.1683022E-002  0.1743961E+03  0.7818608E-02  0.1173362E+00
         21   -1    0    0  501  502  0.00000000000E+00  0.00000000000E+00  0.58997816337E+02  0.58997816337E+02  0.00000000000E+00 0.  1.
         21   -1    0    0  502  503 -0.00000000000E+00 -0.00000000000E+00 -0.73045235038E+03  0.73045235038E+03  0.00000000000E+00 0.  1.
          6    2    1    2  501    0  0.29088412446E+02 -0.66215629845E+00 -0.12141582063E+03  0.21242625671E+03  0.17186197616E+03 0.  0.
         24    2    3    3    0    0  0.76002597205E+02 -0.65351748519E+01 -0.41741769752E+02  0.11966054395E+03  0.82201989910E+02 0.  0.
         -6    2    1    2    0  503 -0.29088412446E+02  0.66215629845E+00 -0.55003871341E+03  0.57702391001E+03  0.17195183130E+03 0.  0.
        -24    2    5    5    0    0 -0.28926236205E+02  0.65625352828E+02 -0.37424242558E+03  0.38954946370E+03  0.80919574216E+02 0.  0.
          5    1    3    3  501    0 -0.46914184759E+02  0.58730185534E+01 -0.79674050882E+02  0.92765712753E+02  0.47000000000E+01 0. -1.
        -11    1    4    4    0    0  0.49207890476E+02 -0.36652437283E+02  0.37749678393E+00  0.61359271082E+02  0.00000000000E+00 0.  1.
         12    1    4    4    0    0  0.26794706729E+02  0.30117262431E+02 -0.42119266536E+02  0.58301272873E+02  0.00000000000E+00 0. -1.
         -5    1    5    5    0  503 -0.16217624123E+00 -0.64963196530E+02 -0.17579628782E+03  0.18747444631E+03  0.47000000000E+01 0.  1.
         13    1    6    6    0    0 -0.92806286573E+01 -0.15464713723E+02 -0.27331536240E+02  0.32745996885E+02  0.00000000000E+00 0. -1.
        -14    1    6    6    0    0 -0.19645607547E+02  0.81090066551E+02 -0.34691088934E+03  0.35680346682E+03  0.00000000000E+00 0.  1.
</event>
<event>
12    1  0.1683022E-002  0.2562929E+03  0.7818608E-02  0.1111558E+00
         21   -1    0    0  501  502  0.00000000000E+00  0.00000000000E+00  0.21365904103E+03  0.21365904103E+03  0.00000000000E+00 0. -1.
         21   -1    0    0  502  503 -0.00000000000E+00 -0.00000000000E+00 -0.29147525735E+03  0.29147525735E+03  0.00000000000E+00 0. -1.
          6    2    1    2  501    0 -0.14628160520E+03 -0.89968253503E+02 -0.29558739248E+02  0.24433776644E+03  0.17127355425E+03 0.  0.
         24    2    3    3    0    0 -0.97613189088E+00 -0.39439979856E+02 -0.14917514949E+02  0.89731031593E+02  0.79200132159E+02 0.  0.
         -6    2    1    2    0  503  0.14628160520E+03  0.89968253503E+02 -0.48257477072E+02  0.26079653193E+03  0.19024576820E+03 0.  0.
        -24    2    5    5    0    0  0.17814348488E+03  0.43015753206E+02 -0.37161161853E+02  0.20278847325E+03  0.78465003056E+02 0.  0.
          5    1    3    3  501    0 -0.14530547331E+03 -0.50528273648E+02 -0.14641224298E+02  0.15460673485E+03  0.47000000000E+01 0. -1.
        -11    1    4    4    0    0 -0.21119317128E+02 -0.40089291008E+01 -0.37434772914E+02  0.43167803877E+02  0.00000000000E+00 0.  1.
         12    1    4    4    0    0  0.20143185237E+02 -0.35431050755E+02  0.22517257964E+02  0.46563227716E+02  0.00000000000E+00 0. -1.
         -5    1    5    5    0  503 -0.31861879679E+02  0.46952500298E+02 -0.11096315218E+02  0.58008058684E+02  0.47000000000E+01 0.  1.
         11    1    6    6    0    0  0.69347177616E+02 -0.21803468542E+02 -0.12220626894E+02  0.73714082816E+02  0.00000000000E+00 0. -1.
        -12    1    6    6    0    0  0.10879630726E+03  0.64819221748E+02 -0.24940534960E+02  0.12907439043E+03  0.00000000000E+00 0.  1.
</event>
<event>
12    1  0.1683022E-002  0.1782372E+03  0.7818608E-02  0.1169741E+00
         21   -1    0    0  501  502  0.00000000000E+00  0.00000000000E+00  0.17448661748E+04  0.17448661748E+04  0.00000000000E+00 0.  1.
         21   -1    0    0  502  503 -0.00000000000E+00 -0.00000000000E+00 -0.18934504916E+02  0.18934504916E+02  0.00000000000E+00 0.  1.
          6    2    1    2  501    0  0.32718607833E+02  0.29249495777E+02  0.67739994846E+03  0.70022779660E+03  0.17182036162E+03 0.  0.
         24    2    3    3    0    0 -0.10357581846E+02  0.46595606132E+02  0.19902125850E+03  0.21957750100E+03  0.79538591877E+02 0.  0.
         -6    2    1    2    0  503 -0.32718607833E+02 -0.29249495777E+02  0.10485317214E+04  0.10635728831E+04  0.17274972228E+03 0.  0.
        -24    2    5    5    0    0 -0.18016660726E+02  0.20442362174E+02  0.93377929889E+03  0.93757432568E+03  0.79745513448E+02 0.  0.
          5    1    3    3  501    0  0.43076189679E+02 -0.17346110355E+02  0.47837868996E+03  0.48065029561E+03  0.47000000000E+01 0. -1.
        -13    1    4    4    0    0  0.96947300710E+01  0.32922182627E+02  0.19093566509E+03  0.19399558269E+03  0.00000000000E+00 0.  1.
         14    1    4    4    0    0 -0.20052311917E+02  0.13673423505E+02  0.80855934102E+01  0.25581918309E+02  0.00000000000E+00 0. -1.
         -5    1    5    5    0  503 -0.14701947107E+02 -0.49691857951E+02  0.11475242255E+03  0.12599855744E+03  0.47000000000E+01 0.  1.
         11    1    6    6    0    0  0.15192545772E+02 -0.43886486101E+00  0.72395113378E+03  0.72411066153E+03  0.00000000000E+00 0. -1.
        -12    1    6    6    0    0 -0.33209206498E+02  0.20881227035E+02  0.20982816511E+03  0.21346366415E+03  0.00000000000E+00 0.  1.
</event>
<event>
12    1  0.1683022E-002  0.1972611E+03  0.7818608E-02  0.1152256E+00
         21   -1    0    0  503  502  0.00000000000E+00  0.00000000000E+00  0.34053612538E+02  0.34053612538E+02  0.00000000000E+00 0.  1.
         21   -1    0    0  501  503 -0.00000000000E+00 -0.00000000000E+00 -0.11472492139E+04  0.11472492139E+04  0.00000000000E+00 0.  1.
          6    2    1    2  501    0  0.71055847509E+02  0.60684598450E+02 -0.61170141764E+03  0.64272121699E+03  0.17372502547E+03 0.  0.
         24    2    3    3    0    0  0.89973616393E+02  0.69625429909E+02 -0.30113533655E+03  0.33141557752E+03  0.78808895206E+02 0.  0.
         -6    2    1    2    0  502 -0.71055847509E+02 -0.60684598450E+02 -0.50149418374E+03  0.53858160946E+03  0.17274889225E+03 0.  0.
        -24    2    5    5    0    0  0.26271423964E+02 -0.44717037136E+02 -0.20130614239E+03  0.22257130749E+03  0.79523724919E+02 0.  0.
          5    1    3    3  501    0 -0.18917768883E+02 -0.89408314589E+01 -0.31056608109E+03  0.31130563948E+03  0.47000000000E+01 0. -1.
        -13    1    4    4    0    0  0.22098735610E+02  0.66435200776E+02 -0.13970710570E+03  0.15626920810E+03  0.00000000000E+00 0.  1.
         14    1    4    4    0    0  0.67874880783E+02  0.31902291329E+01 -0.16142823085E+03  0.17514636942E+03  0.00000000000E+00 0. -1.
         -5    1    5    5    0  502 -0.97327271473E+02 -0.15967561314E+02 -0.30018804134E+03  0.31601030197E+03  0.47000000000E+01 0.  1.
         11    1    6    6    0    0  0.35875035342E+02  0.11523801283E+02 -0.87327118174E+02  0.95109630034E+02  0.00000000000E+00 0. -1.
        -12    1    6    6    0    0 -0.96036113781E+01 -0.56240838419E+02 -0.11397902422E+03  0.12746167746E+03  0.00000000000E+00 0.  1.
</event>
<event>
12    1  0.1683022E-002  0.2342603E+03  0.7818608E-02  0.1123913E+00
         21   -1    0    0  503  502  0.00000000000E+00  0.00000000000E+00  0.97649287259E+02  0.97649287259E+02  0.00000000000E+00 0. -1.
         21   -1    0    0  501  503 -0.00000000000E+00 -0.00000000000E+00 -0.58210063991E+03  0.58210063991E+03  0.00000000000E+00 0. -1.
          6    2    1    2  501    0  0.13133004498E+02 -0.15756744794E+03 -0.31105196245E+03  0.38939853798E+03  0.17285231147E+03 0.  0.
         24    2    3    3    0    0 -0.40314429407E+01 -0.23022355349E+02 -0.51133892033E+02  0.96181052956E+02  0.78037418302E+02 0.  0.
         -6    2    1    2    0  502 -0.13133004498E+02  0.15756744794E+03 -0.17339939020E+03  0.29035138919E+03  0.17098714637E+03 0.  0.
        -24    2    5    5    0    0  0.41804921685E+02  0.82085859417E+02 -0.45433671341E+02  0.13188069429E+03  0.82719763299E+02 0.  0.
          5    1    3    3  501    0  0.17164447439E+02 -0.13454509259E+03 -0.25991807042E+03  0.29321748503E+03  0.47000000000E+01 0. -1.
        -13    1    4    4    0    0 -0.38868888534E+02 -0.21086235803E+01 -0.35376607095E+02  0.52599820521E+02  0.00000000000E+00 0.  1.
         14    1    4    4    0    0  0.34837445593E+02 -0.20913731769E+02 -0.15757284939E+02  0.43581232435E+02  0.00000000000E+00 0. -1.
         -5    1    5    5    0  502 -0.54937926183E+02  0.75481588523E+02 -0.12796571886E+03  0.15847069490E+03  0.47000000000E+01 0.  1.
         13    1    6    6    0    0 -0.34525997167E+01  0.54337930973E+02  0.97433923817E+01  0.55312429727E+02  0.00000000000E+00 0. -1.
        -14    1    6    6    0    0  0.45257521401E+02  0.27747928444E+02 -0.55177063723E+02  0.76568264558E+02  0.00000000000E+00 0.  1.
</event>
<event>
12    1  0.1683022E-002  0.1842027E+03  0.7818608E-02  0.1163892E+00
         21   -1    0    0  503  502  0.00000000000E+00  0.00000000000E+00  0.71803456874E+03  0.71803456874E+03  0.00000000000E+00 0. -1.
         21   -1    0    0  501  503 -0.00000000000E+00 -0.00000000000E+00 -0.48090214416E+02  0.48090214416E+02  0.00000000000E+00 0. -1.
          6    2    1    2  501    0  0.38063572860E+01  0.63493544968E+02  0.28178843686E+03  0.33665316193E+03  0.17287194590E+03 0.  0.
         24    2    3    3    0    0 -0.36883127417E+02  0.39524651699E+02  0.75884114278E+02  0.12535048313E+03  0.83855719190E+02 0.  0.
         -6    2    1    2    0  502 -0.38063572860E+01 -0.63493544968E+02  0.38815591746E+03  0.42947162122E+03  0.17243821667E+03 0.  0.
        -24    2    5    5    0    0 -0.22441630227E+02  0.94505112056E+01  0.32298979295E+03  0.32978800917E+03  0.62006336057E+02 0.  0.
          5    1    3    3  501    0  0.40689484703E+02  0.23968893268E+02  0.20590432259E+03  0.21130267880E+03  0.47000000000E+01 0. -1.
        -13    1    4    4    0    0  0.10983368407E+02 -0.18508156693E+02  0.31042175075E+02  0.37773044346E+02  0.00000000000E+00 0.  1.
         14    1    4    4    0    0 -0.47866495824E+02  0.58032808392E+02  0.44841939203E+02  0.87577438783E+02  0.00000000000E+00 0. -1.
         -5    1    5    5    0  502  0.18635272941E+02 -0.72944056173E+02  0.65166124506E+02  0.99683612052E+02  0.47000000000E+01 0.  1.
         13    1    6    6    0    0 -0.22198116682E+02 -0.22182760445E+02  0.21438911713E+03  0.21667377504E+03  0.00000000000E+00 0. -1.
        -14    1    6    6    0    0 -0.24351354521E+00  0.31633271651E+02  0.10860067582E+03  0.11311423413E+03  0.00000000000E+00 0.  1.
</event>
<event>
12    1  0.1683022E-002  0.2616887E+03  0.7818608E-02  0.1106161E+00
         21   -1    0    0  501  502  0.00000000000E+00  0.00000000000E+00  0.42349019023E+03  0.42349019023E+03  0.00000000000E+00 0. -1.
         21   -1    0    0  502  503 -0.00000000000E+00 -0.00000000000E+00 -0.26382930072E+03  0.26382930072E+03  0.00000000000E+00 0.  1.
          6    2    1    2  501    0  0.15924054690E+03  0.11608218612E+03  0.29374589543E+03  0.39327906093E+03  0.17189864157E+03 0.  0.
         24    2    3    3    0    0  0.40881170542E+02  0.63214368885E+02  0.57092423454E+02  0.12340704706E+03  0.79387832257E+02 0.  0.
         -6    2    1    2    0  503 -0.15924054690E+03 -0.11608218612E+03 -0.13408500593E+03  0.29404043002E+03  0.17218699127E+03 0.  0.
        -24    2    5    5    0    0 -0.10970050195E+03 -0.59182886277E+02 -0.15566916087E+03  0.21542928501E+03  0.81486655571E+02 0.  0.
          5    1    3    3  501    0  0.11835937636E+03  0.52867817237E+02  0.23665347198E+03  0.26987201387E+03  0.47000000000E+01 0. -1.
        -11    1    4    4    0    0 -0.67887619994E+01  0.52246519716E+02  0.52334276067E+02  0.74260774055E+02  0.00000000000E+00 0.  1.
         12    1    4    4    0    0  0.47669932541E+02  0.10967849169E+02  0.47581473870E+01  0.49146273007E+02  0.00000000000E+00 0. -1.
         -5    1    5    5    0  503 -0.49540044948E+02 -0.56899299845E+02  0.21584154943E+02  0.78611145017E+02  0.47000000000E+01 0.  1.
         11    1    6    6    0    0  0.80255596409E+01 -0.33191328374E+01  0.38095003331E+01  0.94835933659E+01  0.00000000000E+00 0. -1.
        -12    1    6    6    0    0 -0.11772606159E+03 -0.55863753439E+02 -0.15947866120E+03  0.20594569164E+03  0.00000000000E+00 0.  1.
</event>
<event>
12    1  0.1683022E-002  0.2179822E+03  0.7818608E-02  0.1135421E+00
         21   -1    0    0  503  502  0.00000000000E+00  0.00000000000E+00  0.26320101502E+02  0.26320101502E+02  0.00000000000E+00 0.  1.
         21   -1    0    0  501  503 -0.00000000000E+00 -0.00000000000E+00 -0.21379193163E+04  0.21379193163E+04  0.00000000000E+00 0. -1.
          6    2    1    2  501    0  0.42591148901E+02 -0.12541365998E+03 -0.14830479251E+04  0.14989628141E+04  0.17296178188E+03 0.  0.
         24    2    3    3    0    0 -0.33151561576E+02 -0.11066541150E+03 -0.95929710687E+03  0.96953720217E+03  0.80034916187E+02 0.  0.
         -6    2    1    2    0  502 -0.42591148901E+02  0.12541365998E+03 -0.62855128968E+03  0.66527660364E+03  0.17312897940E+03 0.  0.
        -24    2    5    5    0    0 -0.57692306712E+02  0.14490944316E+02 -0.22271944006E+03  0.24426178919E+03  0.80755699206E+02 0.  0.
          5    1    3    3  501    0  0.75742710476E+02 -0.14748248479E+02 -0.52375081820E+03  0.52942561195E+03  0.47000000000E+01 0. -1.
        -13    1    4    4    0    0 -0.16361162919E+01 -0.96653325763E+02 -0.52150053531E+03  0.53038415379E+03  0.00000000000E+00 0.  1.
         14    1    4    4    0    0 -0.31515445284E+02 -0.14012085739E+02 -0.43779657155E+03  0.43915304838E+03  0.00000000000E+00 0. -1.
         -5    1    5    5    0  502  0.15101157811E+02  0.11092271566E+03 -0.40583184962E+03  0.42101481445E+03  0.47000000000E+01 0.  1.
         11    1    6    6    0    0 -0.62008004968E+02  0.86899638505E+01 -0.22725745200E+03  0.23572538607E+03  0.00000000000E+00 0. -1.
        -12    1    6    6    0    0  0.43156982563E+01  0.58009804656E+01  0.45380119337E+01  0.85364031133E+01  0.00000000000E+00 0.  1.
</event>
<event>
12    1  0.1683022E-002  0.2350845E+03  0.7818608E-02  0.1124111E+00
         21   -1    0    0  501  502  0.00000000000E+00  0.00000000000E+00  0.25466417382E+03  0.25466417382E+03  0.00000000000E+00 0.  1.
         21   -1    0    0  502  503 -0.00000000000E+00 -0.00000000000E+00 -0.26209973449E+03  0.26209973449E+03  0.00000000000E+00 0. -1.
          6    2    1    2  501    0  0.15401333053E+03 -0.52759464575E+02 -0.11703067899E+03  0.26260403473E+03  0.16959077849E+03 0.  0.
         24    2    3    3    0    0  0.73692559613E+02  0.15936436078E+02 -0.98486101914E+02  0.15519572804E+03  0.93282572829E+02 0.  0.
         -6    2    1    2    0  503 -0.15401333053E+03  0.52759464575E+02  0.10959511832E+03  0.25415987358E+03  0.16150072537E+03 0.  0.
        -24    2    5    5    0    0 -0.10357414700E+03  0.78287056029E+02  0.27758550930E+02  0.15458536418E+03  0.79180998985E+02 0.  0.
          5    1    3    3  501    0  0.80320770919E+02 -0.68695900653E+02 -0.18544577078E+02  0.10740830669E+03  0.47000000000E+01 0. -1.
        -13    1    4    4    0    0 -0.59499144286E+01 -0.17876848529E+02 -0.55443973850E+02  0.58557812726E+02  0.00000000000E+00 0.  1.
         14    1    4    4    0    0  0.79642474042E+02  0.33813284606E+02 -0.43042128064E+02  0.96637915311E+02  0.00000000000E+00 0. -1.
         -5    1    5    5    0  503 -0.50439183537E+02 -0.25527591454E+02  0.81836567385E+02  0.99574509402E+02  0.47000000000E+01 0.  1.
         13    1    6    6    0    0 -0.71350696579E+02  0.24350493595E+02 -0.17198686212E+02  0.77328282330E+02  0.00000000000E+00 0. -1.
        -14    1    6    6    0    0 -0.32223450416E+02  0.53936562434E+02  0.44957237143E+02  0.77257081846E+02  0.00000000000E+00 0.  1.
</event>
<event>
12    1  0.1683022E-002  0.2243075E+03  0.7818608E-02  0.1130928E+00
         21   -1    0    0  501  502  0.00000000000E+00  0.00000000000E+00  0.15055012380E+04  0.15055012380E+04  0.00000000000E+00 0.  1.
         21   -1    0    0  502  503 -0.00000000000E+00 -0.00000000000E+00 -0.33480396233E+02  0.33480396233E+02  0.00000000000E+00 0. -1.
          6    2    1    2  501    0 -0.13926688081E+03 -0.30459562144E+02  0.79879052496E+03  0.82936702525E+03  0.17164006174E+03 0.  0.
         24    2    3    3    0    0 -0.90702119348E+01 -0.20854013840E+02  0.43445510028E+03  0.44231944313E+03  0.79862988803E+02 0.  0.
         -6    2    1    2    0  503  0.13926688081E+03  0.30459562144E+02  0.67323031678E+03  0.70961460896E+03  0.17317847671E+03 0.  0.
        -24    2    5    5    0    0  0.67250270769E+00  0.31668197754E+02  0.30295394096E+03  0.31422044241E+03  0.77136690891E+02 0.  0.
          5    1    3    3  501    0 -0.13019666887E+03 -0.96055483041E+01  0.36433542468E+03  0.38704758212E+03  0.47000000000E+01 0. -1.
        -13    1    4    4    0    0 -0.54393159255E+01  0.17693512529E+02  0.25364543863E+02  0.31400742487E+02  0.00000000000E+00 0.  1.
         14    1    4    4    0    0 -0.36308960093E+01 -0.38547526369E+02  0.40909055641E+03  0.41091870065E+03  0.00000000000E+00 0. -1.
         -5    1    5    5    0  503  0.13859437810E+03 -0.12086356096E+01  0.37027637583E+03  0.39539416655E+03  0.47000000000E+01 0.  1.
         13    1    6    6    0    0  0.33611671443E+02  0.36182265295E+02  0.20121936449E+03  0.20719105537E+03  0.00000000000E+00 0. -1.
        -14    1    6    6    0    0 -0.32939168735E+02 -0.45140675415E+01  0.10173457647E+03  0.10702938705E+03  0.00000000000E+00 0.  1.
</event>
<event>
12    1  0.1683022E-002  0.2831739E+03  0.7818608E-02  0.1094008E+00
         21   -1    0    0  503  502  0.00000000000E+00  0.00000000000E+00  0.99037664736E+03  0.99037664736E+03  0.00000000000E+00 0.  1.
         21   -1    0    0  501  503 -0.00000000000E+00 -0.00000000000E+00 -0.80948095902E+02  0.80948095902E+02  0.00000000000E+00 0. -1.
          6    2    1    2  501    0  0.20136807021E+03 -0.97255190457E+02  0.43959717705E+03  0.52290835402E+03  0.17372333425E+03 0.  0.
         24    2    3    3    0    0  0.48324939067E+02  0.14361844522E+02  0.14410992816E+03  0.17188788917E+03  0.78969695039E+02 0.  0.
         -6    2    1    2    0  502 -0.20136807021E+03  0.97255190457E+02  0.46983137441E+03  0.54841638924E+03  0.17323782451E+03 0.  0.
        -24    2    5    5    0    0 -0.58008972745E+02 -0.10542469006E+02  0.12111223631E+03  0.15624385899E+03  0.79169344541E+02 0.  0.
          5    1    3    3  501    0  0.15304313114E+03 -0.11161703498E+03  0.29548724889E+03  0.35102046485E+03  0.47000000000E+01 0. -1.
        -11    1    4    4    0    0  0.42664583477E+02  0.32497218819E+02  0.14314848566E+03  0.15286538150E+03  0.00000000000E+00 0.  1.
         12    1    4    4    0    0  0.56603555895E+01 -0.18135374297E+02  0.96144249878E+00  0.19022507668E+02  0.00000000000E+00 0. -1.
         -5    1    5    5    0  502 -0.14335909747E+03  0.10779765946E+03  0.34871913809E+03  0.39217253025E+03  0.47000000000E+01 0.  1.
         11    1    6    6    0    0 -0.72305442296E+02  0.99982423166E+01  0.97846243956E+02  0.12207345859E+03  0.00000000000E+00 0. -1.
        -12    1    6    6    0    0  0.14296469551E+02 -0.20540711322E+02  0.23265992358E+02  0.34170400402E+02  0.00000000000E+00 0.  1.
</event>
<event>
12    1  0.1683022E-002  0.2627319E+03  0.7818608E-02  0.1106329E+00
         21   -1    0    0  503  502  0.00000000000E+00  0.00000000000E+00  0.82388978168E+03  0.82388978168E+03  0.00000000000E+00 0. -1.
         21   -1    0    0  501  503 -0.00000000000E+00 -0.00000000000E+00 -0.86740325546E+02  0.86740325546E+02  0.00000000000E+00 0.  1.
          6    2    1    2  501    0  0.12927777357E+03  0.14130068668E+03  0.25910368033E+03  0.36514336172E+03  0.17180317416E+03 0.  0.
         24    2    3    3    0    0  0.14747726314E+03  0.11014932810E+03  0.26026920196E+03  0.32874175457E+03  0.80303587010E+02 0.  0.
         -6    2    1    2    0  502 -0.12927777357E+03 -0.14130068668E+03  0.47804577581E+03  0.54548674550E+03  0.17985938663E+03 0.  0.
        -24    2    5    5    0    0 -0.11686006798E+03 -0.35675020149E+02  0.23689243052E+03  0.28188096638E+03  0.91705359832E+02 0.  0.
          5    1    3    3  501    0 -0.18199489570E+02  0.31151358585E+02 -0.11655216283E+01  0.36401607148E+02  0.47000000000E+01 0. -1.
        -13    1    4    4    0    0  0.10958181034E+03  0.49507391561E+02  0.20767199973E+03  0.23997252853E+03  0.00000000000E+00 0.  1.
         14    1    4    4    0    0  0.37895452803E+02  0.60641936540E+02  0.52597202230E+02  0.88769226046E+02  0.00000000000E+00 0. -1.
         -5    1    5    5    0  502 -0.12417705600E+02 -0.10562566654E+03  0.24115334529E+03  0.26360577912E+03  0.47000000000E+01 0.  1.
         13    1    6    6    0    0 -0.36282612155E+02 -0.58599907296E+02  0.10261658628E+03  0.12361448483E+03  0.00000000000E+00 0. -1.
        -14    1    6    6    0    0 -0.80577455820E+02  0.22924887148E+02  0.13427584424E+03  0.15826648156E+03  0.00000000000E+00 0.  1.
</event>
<event>
12    1  0.1683022E-002  0.1801367E+03  0.7818608E-02  0.1168013E+00
         21   -1    0    0  501  502  0.00000000000E+00  0.00000000000E+00  0.73074080307E+03  0.73074080307E+03  0.00000000000E+00 0.  1.
         21   -1    0    0  502  503 -0.00000000000E+00 -0.00000000000E+00 -0.51822524218E+02  0.51822524218E+02  0.00000000000E+00 0.  1.
          6    2    1    2  501    0  0.30159182815E+02  0.44347132252E+02  0.49203630358E+03  0.52397420859E+03  0.17196802836E+03 0.  0.
         24    2    3    3    0    0  0.73218335763E+02  0.53229526416E+02  0.23635102973E+03  0.26449388787E+03  0.76817317645E+02 0.  0.
         -6    2    1    2    0  503 -0.30159182815E+02 -0.44347132252E+02  0.18688197527E+03  0.25858911870E+03  0.17049110000E+03 0.  0.
        -24    2    5    5    0    0  0.11884368065E+02 -0.45945642970E+01  0.18449066202E+03  0.20048804118E+03  0.77435793132E+02 0.  0.
          5    1    3    3  501    0 -0.43059152948E+02 -0.88823941637E+01  0.25568527385E+03  0.25948032072E+03  0.47000000000E+01 0. -1.
        -13    1    4    4    0    0  0.97116664475E+01  0.52584953594E+02  0.85860673642E+02  0.10115112005E+03  0.00000000000E+00 0.  1.
         14    1    4    4    0    0  0.63506669315E+02  0.64457282151E+00  0.15049035609E+03  0.16334276782E+03  0.00000000000E+00 0. -1.
         -5    1    5    5    0  503 -0.42043550880E+02 -0.39752567955E+02  0.23913132501E+01  0.58101077517E+02  0.47000000000E+01 0.  1.
         11    1    6    6    0    0 -0.16795751580E+02 -0.13438163368E+02  0.16085254490E+03  0.16228438837E+03  0.00000000000E+00 0. -1.
        -12    1    6    6    0    0  0.28680119644E+02  0.88435990708E+01  0.23638117116E+02  0.38203652811E+02  0.00000000000E+00 0.  1.
</event>
<event>
12    1  0.1683022E-002  0.2203555E+03  0.7818608E-02  0.1133722E+00
         21   -1    0    0  501  502  0.00000000000E+00  0.00000000000E+00  0.41817816036E+03  0.41817816036E+03  0.00000000000E+00 0. -1.
         21   -1    0    0  502  503 -0.00000000000E+00 -0.00000000000E+00 -0.15205120485E+03  0.15205120485E+03  0.00000000000E+00 0. -1.
          6    2    1    2  501    0  0.12658181772E+03 -0.53796870358E+02  0.27236351461E+03  0.35034047759E+03  0.17216127995E+03 0.  0.
         24    2    3    3    0    0  0.98368041549E+02 -0.87013023555E+02  0.26477878640E+03  0.30585510808E+03  0.78689284804E+02 0.  0.
         -6    2    1    2    0  503 -0.12658181772E+03  0.53796870358E+02 -0.62365590920E+01  0.21988888762E+03  0.17145019216E+03 0.  0.
        -24    2    5    5    0    0 -0.34849893578E+02  0.52331372747E+02  0.49331421009E+02  0.11252602625E+03  0.79217610593E+02 0.  0.
          5    1    3    3  501    0  0.28213776168E+02  0.33216153196E+02  0.75847282023E+01  0.44485369513E+02  0.47000000000E+01 0. -1.
        -13    1    4    4    0    0  0.40655552778E+02 -0.29571832705E+02  0.18556640780E+03  0.19225571244E+03  0.00000000000E+00 0.  1.
         14    1    4    4    0    0  0.57712488771E+02 -0.57441190850E+02  0.79212378607E+02  0.11359939564E+03  0.00000000000E+00 0. -1.
         -5    1    5    5    0  503 -0.91731924139E+02  0.14654976118E+01 -0.55567980101E+02  0.10736286137E+03  0.47000000000E+01 0.  1.
         13    1    6    6    0    0 -0.12961076721E+02  0.10656580281E+01  0.54980308453E+02  0.56497428741E+02  0.00000000000E+00 0. -1.
        -14    1    6    6    0    0 -0.21888816857E+02  0.51265714718E+02 -0.56488874441E+01  0.56028597505E+02  0.00000000000E+00 0.  1.
</event>
<event>
12    1  0.1683022E-002  0.1769893E+03  0.7818608E-02  0.1170785E+00
         21   -1    0    0  501  502  0.00000000000E+00  0.00000000000E+00  0.77351606404E+02  0.77351606404E+02  0.00000000000E+00 0.  1.
         21   -1    0    0  502  503 -0.00000000000E+00 -0.00000000000E+00 -0.47066492668E+03  0.47066492668E+03  0.00000000000E+00 0. -1.
          6    2    1    2  501    0  0.42207113342E+02 -0.13129761575E+02 -0.93961298731E+02  0.20025675705E+03  0.17123145748E+03 0.  0.
         24    2    3    3    0    0  0.42910676029E+01 -0.72465792651E+02 -0.51632853730E+02  0.11796351088E+03  0.77328739484E+02 0.  0.
         -6    2    1    2    0  503 -0.42207113342E+02  0.13129761575E+02 -0.29935202154E+03  0.34775977603E+03  0.17138085648E+03 0.  0.
        -24    2    5    5    0    0 -0.78339283114E+02 -0.39469342703E+01 -0.10976348217E+03  0.15394787883E+03  0.74157304500E+02 0.  0.
          5    1    3    3  501    0  0.37916045739E+02  0.59336031075E+02 -0.42328445000E+02  0.82293246165E+02  0.47000000000E+01 0. -1.
        -11    1    4    4    0    0  0.32059304885E+02 -0.46909729233E+02 -0.36740214862E+01  0.56936984116E+02  0.00000000000E+00 0.  1.
         12    1    4    4    0    0 -0.27768237282E+02 -0.25556063418E+02 -0.47958832244E+02  0.61026526768E+02  0.00000000000E+00 0. -1.
         -5    1    5    5    0  503  0.36132169772E+02  0.17076695845E+02 -0.18958853937E+03  0.19381189720E+03  0.47000000000E+01 0.  1.
         13    1    6    6    0    0 -0.34945423468E+02  0.80990232372E+01 -0.10216113818E+03  0.10827592046E+03  0.00000000000E+00 0. -1.
        -14    1    6    6    0    0 -0.43393859646E+02 -0.12045957507E+02 -0.76023439923E+01  0.45671958371E+02  0.00000000000E+00 0.  1.
</event>
<event>
12    1  0.1683022E-002  0.2932554E+03  0.7818608E-02  0.1088787E+00
         21   -1    0    0  501  502  0.00000000000E+00  0.00000000000E+00  0.29459852307E+03  0.29459852307E+03  0.00000000000E+00 0.  1.
         21   -1    0    0  502  503 -0.00000000000E+00 -0.00000000000E+00 -0.31940602915E+03  0.31940602915E+03  0.00000000000E+00 0.  1.
          6    2    1    2  501    0  0.23179711731E+03  0.51843866932E+02 -0.10405783882E+03  0.31116997815E+03  0.17199136998E+03 0.  0.
         24    2    3    3    0    0  0.73447085636E+02  0.31777025330E+02 -0.10113527068E+03  0.15145760521E+03  0.79415423401E+02 0.  0.
         -6    2    1    2    0  503 -0.23179711731E+03 -0.51843866932E+02  0.79250332737E+02  0.30283457406E+03  0.17032461325E+03 0.  0.
        -24    2    5    5    0    0 -0.68328337628E+02  0.12757868946E+02  0.79899649101E+00  0.11029333597E+03  0.85629764802E+02 0.  0.
          5    1    3    3  501    0  0.15835003168E+03  0.20066841602E+02 -0.29225681355E+01  0.15971237293E+03  0.47000000000E+01 0. -1.
        -13    1    4    4    0    0  0.49645406982E+02 -0.20479826452E+02 -0.61698648471E+02  0.81797389622E+02  0.00000000000E+00 0.  1.
         14    1    4    4    0    0  0.23801678655E+02  0.52256851781E+02 -0.39436622212E+02  0.69660215592E+02  0.00000000000E+00 0. -1.
         -5    1    5    5    0  503 -0.16346877968E+03 -0.64601735878E+02  0.78451336246E+02  0.19254123810E+03  0.47000000000E+01 0.  1.
         11    1    6    6    0    0 -0.53039536535E+02  0.15233600754E+01 -0.39234673031E+02  0.65991458762E+02  0.00000000000E+00 0. -1.
        -12    1    6    6    0    0 -0.15288801093E+02  0.11234508871E+02  0.40033669522E+02  0.44301877204E+02  0.00000000000E+00 0.  1.
</event>
<event>
12    1  0.1683022E-002  0.1762005E+03  0.7818608E-02  0.1171676E+00
         21   -1    0    0  503  502  0.00000000000E+00  0.00000000000E+00  0.74361764976E+03  0.74361764976E+03  0.00000000000E+00 0. -1.
         21   -1    0    0  501  503 -0.00000000000E+00 -0.00000000000E+00 -0.54551929076E+02  0.54551929076E+02  0.00000000000E+00 0. -1.
          6    2    1    2  501    0 -0.24327544690E+02 -0.29541687285E+02  0.14974761748E+03  0.23079789309E+03  0.17140238562E+03 0.  0.
         24    2    3    3    0    0  0.26255142391E+02 -0.16361007057E+02  0.15560827716E+03  0.17798903118E+03  0.80679267768E+02 0.  0.
         -6    2    1    2    0  502  0.24327544690E+02  0.29541687285E+02  0.53931810321E+03  0.56737168575E+03  0.17199439707E+03 0.  0.
        -24    2    5    5    0    0  0.29691607490E+02 -0.79290660345E+00  0.12477861889E+03  0.15166261102E+03  0.80929744791E+02 0.  0.
          5    1    3    3  501    0 -0.50582687081E+02 -0.13180680228E+02 -0.58606596839E+01  0.52808861904E+02  0.47000000000E+01 0. -1.
        -13    1    4    4    0    0 -0.18955696950E+02 -0.28309433578E+02  0.98217408592E+02  0.10395865441E+03  0.00000000000E+00 0.  1.
         14    1    4    4    0    0  0.45210839341E+02  0.11948426522E+02  0.57390868567E+02  0.74030376773E+02  0.00000000000E+00 0. -1.
         -5    1    5    5    0  502 -0.53640627998E+01  0.30334593888E+02  0.41453948431E+03  0.41570907473E+03  0.47000000000E+01 0.  1.
         11    1    6    6    0    0  0.29775754227E+02  0.32964210721E+02  0.10110100144E+03  0.11042937662E+03  0.00000000000E+00 0. -1.
        -12    1    6    6    0    0 -0.84146737290E-01 -0.33757117324E+02  0.23677617449E+02  0.41233234396E+02  0.00000000000E+00 0.  1.
</event>
<event>
12    1  0.1683022E-002  0.2076733E+03  0.7818608E-02  0.1143460E+00
         21   -1    0    0  503  502  0.00000000000E+00  0.00000000000E+00  0.60594143436E+03  0.60594143436E+03  0.00000000000E+00 0.  1.
         21   -1    0    0  501  503 -0.00000000000E+00 -0.00000000000E+00 -0.74551331271E+02  0.74551331271E+02  0.00000000000E+00 0. -1.
          6    2    1    2  501    0  0.91678204678E+02 -0.70751595357E+02  0.33867075413E+03  0.39717502703E+03  0.17216109007E+03 0.  0.
         24    2    3    3    0    0  0.24104362766E+02 -0.22220668763E+02  0.28667991318E+03  0.29895785700E+03  0.78202616409E+02 0.  0.
         -6    2    1    2    0  502 -0.91678204678E+02  0.70751595357E+02  0.19271934896E+03  0.28331773860E+03  0.17238767962E+03 0.  0.
        -24    2    5    5    0    0 -0.20024617441E+02  0.48546454957E+02  0.24275941191E+02  0.98865640635E+02  0.80170755172E+02 0.  0.
          5    1    3    3  501    0  0.67573841912E+02 -0.48530926594E+02  0.51990840949E+02  0.98217170034E+02  0.47000000000E+01 0. -1.
        -11    1    4    4    0    0  0.36086711956E+02 -0.33961724925E+02  0.27256740558E+03  0.27703544922E+03  0.00000000000E+00 0.  1.
         12    1    4    4    0    0 -0.11982349190E+02  0.11741056162E+02  0.14112507603E+02  0.21922407778E+02  0.00000000000E+00 0. -1.
         -5    1    5    5    0  502 -0.71653587237E+02  0.22205140400E+02  0.16844340777E+03  0.18445209797E+03  0.47000000000E+01 0.  1.
         11    1    6    6    0    0 -0.83423801332E+00  0.66820180957E+02  0.27316008216E+02  0.72192775546E+02  0.00000000000E+00 0. -1.
        -12    1    6    6    0    0 -0.19190379428E+02 -0.18273726000E+02 -0.30400670243E+01  0.26672865089E+02  0.00000000000E+00 0.  1.
</event>
<event>
12    1  0.1683022E-002  0.2227982E+03  0.7818608E-02  0.1132691E+00
         21   -1    0    0  503  502  0.00000000000E+00  0.00000000000E+00  0.12987101756E+04  0.12987101756E+04  0.00000000000E+00 0.  1.
         21   -1    0    0  501  503 -0.00000000000E+00 -0.00000000000E+00 -0.37786285193E+02  0.37786285193E+02  0.00000000000E+00 0. -1.
          6    2    1    2  501    0 -0.10242832986E+03 -0.95189623077E+02  0.69004409099E+03  0.72368098716E+03  0.16733408666E+03 0.  0.
         24    2    3    3    0    0 -0.28436891408E+02  0.12400536136E+02  0.32714949115E+03  0.33798038317E+03  0.79003289525E+02 0.  0.
         -6    2    1    2    0  502  0.10242832986E+03  0.95189623077E+02  0.57087979945E+03  0.61281547367E+03  0.17345440972E+03 0.  0.
        -24    2    5    5    0    0  0.43954384906E+02  0.12164502711E+03  0.32873006094E+03  0.36226073614E+03  0.80248909081E+02 0.  0.
          5    1    3    3  501    0 -0.73991438450E+02 -0.10759015921E+03  0.36289459984E+03  0.38570060399E+03  0.47000000000E+01 0. -1.
        -11    1    4    4    0    0  0.22286796842E+02  0.22569836772E+02  0.15560662982E+03  0.15880655556E+03  0.00000000000E+00 0.  1.
         12    1    4    4    0    0 -0.50723688250E+02 -0.10169300635E+02  0.17154286134E+03  0.17917382761E+03  0.00000000000E+00 0. -1.
         -5    1    5    5    0  502  0.58473944952E+02 -0.26455404029E+02  0.24214973850E+03  0.25055473753E+03  0.47000000000E+01 0.  1.
         11    1    6    6    0    0  0.27597861883E+02 -0.73381158368E+00  0.78818936217E+02  0.83514101602E+02  0.00000000000E+00 0. -1.
        -12    1    6    6    0    0  0.16356523024E+02  0.12237883869E+03  0.24991112472E+03  0.27874663454E+03  0.00000000000E+00 0.  1.
</event>
<event>
12    1  0.1683022E-002  0.2494779E+03  0.7818608E-02  0.1113917E+00
         21   -1    0    0  503  502  0.00000000000E+00  0.00000000000E+00  0.24481315423E+03  0.24481315423E+03  0.00000000000E+00 0. -1.
         21   -1    0    0  501  503 -0.00000000000E+00 -0.00000000000E+00 -0.60505047339E+03  0.60505047339E+03  0.00000000000E+00 0. -1.
          6    2    1    2  501    0  0.51484392201E+02 -0.17178663240E+03 -0.50424761255E+03  0.56180425236E+03  0.17087151164E+03 0.  0.
         24    2    3    3    0    0 -0.29996290138E+02 -0.52189786702E+02 -0.24834443445E+03  0.26777868602E+03  0.80043209007E+02 0.  0.
         -6    2    1    2    0  502 -0.51484392201E+02  0.17178663240E+03  0.14401029339E+03  0.28805937526E+03  0.17342995521E+03 0.  0.
        -24    2    5    5    0    0 -0.28944215280E+02  0.14259274284E+03  0.30309029217E+02  0.16843324836E+03  0.79250640322E+02 0.  0.
          5    1    3    3  501    0  0.81480682339E+02 -0.11959684570E+03 -0.25590317811E+03  0.29402556634E+03  0.47000000000E+01 0. -1.
        -13    1    4    4    0    0  0.89036103116E+01  0.13408500084E+02 -0.13984681873E+02  0.21322135873E+02  0.00000000000E+00 0.  1.
         14    1    4    4    0    0 -0.38899900450E+02 -0.65598286787E+02 -0.23435975257E+03  0.24645655015E+03  0.00000000000E+00 0. -1.
         -5    1    5    5    0  502 -0.22540176921E+02  0.29193889553E+02  0.11370126417E+03  0.11962612690E+03  0.47000000000E+01 0.  1.
         11    1    6    6    0    0  0.24350621504E+02  0.20603569677E+02 -0.26914513585E-01  0.31897657836E+02  0.00000000000E+00 0. -1.
        -12    1    6    6    0    0 -0.53294836784E+02  0.12198917317E+03  0.30335943731E+02  0.13653559052E+03  0.00000000000E+00 0.  1.
</event>
<event>
12    1  0.1683022E-002  0.2098350E+03  0.7818608E-02  0.1142697E+00
         21   -1    0    0  503  502  0.00000000000E+00  0.00000000000E+00  0.11228374775E+03  0.11228374775E+03  0.00000000000E+00 0. -1.
         21   -1    0    0  501  503 -0.00000000000E+00 -0.00000000000E+00 -0.51114147105E+03  0.51114147105E+03  0.00000000000E+00 0.  1.
          6    2    1    2  501    0 -0.10133313437E+03 -0.54975488630E+02 -0.35736265769E+03  0.41441378903E+03  0.17532829478E+03 0.  0.
         24    2    3    3    0    0  0.13152725511E+02 -0.25627226381E+00 -0.13933246399E+03  0.16210354326E+03  0.81798308981E+02 0.  0.
         -6    2    1    2    0  502  0.10133313437E+03  0.54975488630E+02 -0.41495065602E+02  0.20901142977E+03  0.16933171243E+03 0.  0.
        -24    2    5    5    0    0  0.11609855286E+03  0.59326016294E+01  0.33624262553E+01  0.14076550004E+03  0.79306685429E+02 0.  0.
          5    1    3    3  501    0 -0.11448585988E+03 -0.54719216366E+02 -0.21803019371E+03  0.25231024577E+03  0.47000000000E+01 0. -1.
        -13    1    4    4    0    0  0.16862988253E+02 -0.28588324692E+02 -0.12649721143E+03  0.13077919247E+03  0.00000000000E+00 0.  1.
         14    1    4    4    0    0 -0.37102627420E+01  0.28332052428E+02 -0.12835252552E+02  0.31324350791E+02  0.00000000000E+00 0. -1.
         -5    1    5    5    0  502 -0.14765418490E+02  0.49042887000E+02 -0.44857491857E+02  0.68245929726E+02  0.47000000000E+01 0.  1.
         13    1    6    6    0    0  0.70031122727E+02  0.38425069056E+02 -0.15401196703E+02  0.81351342596E+02  0.00000000000E+00 0. -1.
        -14    1    6    6    0    0  0.46067430135E+02 -0.32492467427E+02  0.18763622959E+02  0.59414157448E+02  0.00000000000E+00 0.  1.
</event>
<event>
12    1  0.1683022E-002  0.1732191E+03  0.7818608E-02  0.1175160E+00
         21   -1    0    0  503  502  0.00000000000E+00  0.00000000000E+00  0.67016153167E+02  0.67016153167E+02  0.00000000000E+00 0.  1.
         21   -1    0    0  501  503 -0.00000000000E+00 -0.00000000000E+00 -0.68028160048E+03  0.68028160048E+03  0.00000000000E+00 0.  1.
          6    2    1    2  501    0 -0.20421875154E+02  0.17228047948E+02 -0.52945688693E+03  0.55707220844E+03  0.17114611207E+03 0.  0.
         24    2    3    3    0    0  0.46938587077E+02 -0.18970434175E+02 -0.25924375457E+03  0.27620749211E+03  0.80747421533E+02 0.  0.
         -6    2    1    2    0  502  0.20421875154E+02 -0.17228047948E+02 -0.83808560380E+02  0.19022554520E+03  0.16866542217E+03 0.  0.
        -24    2    5    5    0    0  0.18844685866E+02  0.41846544265E+02 -0.91712149689E+02  0.13041875884E+03  0.80570955093E+02 0.  0.
          5    1    3    3  501    0 -0.67360462231E+02  0.36198482123E+02 -0.27021313236E+03  0.28086471633E+03  0.47000000000E+01 0. -1.
        -11    1    4    4    0    0  0.36153196515E+02 -0.48942637857E+02 -0.19852463257E+03  0.20764023010E+03  0.00000000000E+00 0.  1.
         12    1    4    4    0    0  0.10785390562E+02  0.29972203682E+02 -0.60719122004E+02  0.68567262014E+02  0.00000000000E+00 0. -1.
         -5    1    5    5    0  502  0.15771892879E+01 -0.59074592213E+02  0.79035893089E+01  0.59806786364E+02  0.47000000000E+01 0.  1.
         11    1    6    6    0    0  0.15527951751E+02  0.59243835445E+02 -0.33998694485E+02  0.70048986792E+02  0.00000000000E+00 0. -1.
        -12    1    6    6    0    0  0.33167341148E+01 -0.17397291181E+02 -0.57713455204E+02  0.60369772049E+02  0.00000000000E+00 0.  1.
</event>
<event>
12    1  0.1683022E-002  0.1958377E+03  0.7818608E-02  0.1154199E+00
         21   -1    0    0  501  502  0.00000000000E+00  0.00000000000E+00  0.35464589983E+02  0.35464589983E+02  0.00000000000E+00 0. -1.
         21   -1    0    0  502  503 -0.00000000000E+00 -0.00000000000E+00 -0.12178097633E+04  0.12178097633E+04  0.00000000000E+00 0.  1.
          6    2    1    2  501    0 -0.18541805770E+02  0.87791492799E+02 -0.35936342010E+03  0.40731254673E+03  0.16944113506E+03 0.  0.
         24    2    3    3    0    0 -0.51448001472E+02  0.69649730805E+02 -0.13576988752E+03  0.18053490442E+03  0.81617446042E+02 0.  0.
         -6    2    1    2    0  503  0.18541805770E+02 -0.87791492799E+02 -0.82298175321E+03  0.84596180654E+03  0.17407259188E+03 0.  0.
        -24    2    5    5    0    0 -0.11508306574E+02 -0.44138453739E+02 -0.75076997622E+03  0.75626661265E+03  0.78759050273E+02 0.  0.
          5    1    3    3  501    0  0.32906195702E+02  0.18141761994E+02 -0.22359353258E+03  0.22677764232E+03  0.47000000000E+01 0. -1.
        -11    1    4    4    0    0  0.13907500355E+02 -0.79383983781E+01 -0.97186885208E+01  0.18732048513E+02  0.00000000000E+00 0.  1.
         12    1    4    4    0    0 -0.65355501827E+02  0.77588129183E+02 -0.12605119900E+03  0.16180285591E+03  0.00000000000E+00 0. -1.
         -5    1    5    5    0  503  0.30050112344E+02 -0.43653039060E+02 -0.72211776985E+02  0.89695193887E+02  0.47000000000E+01 0.  1.
         13    1    6    6    0    0 -0.14748414014E+02  0.20924990811E+02 -0.23899496618E+03  0.24036215346E+03  0.00000000000E+00 0. -1.
        -14    1    6    6    0    0  0.32401074402E+01 -0.65063444550E+02 -0.51177501004E+03  0.51590445919E+03  0.00000000000E+00 0.  1.
</event>
<event>
12    1  0.1683022E-002  0.2265634E+03  0.7818608E-02  0.1129223E+00
         21   -1    0    0  501  502  0.00000000000E+00  0.00000000000E+00  0.70980341378E+02  0.70980341378E+02  0.00000000000E+00 0. -1.
         21   -1    0    0  502  503 -0.00000000000E+00 -0.00000000000E+00 -0.90024349919E+03  0.90024349919E+03  0.00000000000E+00 0. -1.
          6    2    1    2  501    0 -0.14276762290E+03 -0.39675673830E+02 -0.19832646333E+03  0.30110520873E+03  0.17138905281E+03 0.  0.
         24    2    3    3    0    0 -0.16529816153E+03 -0.51820107498E+02 -0.14203019526E+03  0.23908527452E+03  0.83548706637E+02 0.  0.
         -6    2    1    2    0  503  0.14276762290E+03  0.39675673830E+02 -0.63093669449E+03  0.67011863184E+03  0.17035584831E+03 0.  0.
        -24    2    5    5    0    0  0.89857462301E+02 -0.35099599895E+02 -0.45771327342E+03  0.47411028952E+03  0.77283766210E+02 0.  0.
          5    1    3    3  501    0  0.22530538634E+02  0.12144433669E+02 -0.56296268072E+02  0.62019934207E+02  0.47000000000E+01 0. -1.
        -13    1    4    4    0    0 -0.72035135260E+02 -0.26056024525E+02 -0.11578726045E+03  0.13883323380E+03  0.00000000000E+00 0.  1.
         14    1    4    4    0    0 -0.93263026270E+02 -0.25764082974E+02 -0.26242934809E+02  0.10025204072E+03  0.00000000000E+00 0. -1.
         -5    1    5    5    0  503  0.52910160595E+02  0.74775273725E+02 -0.17322342107E+03  0.19600834232E+03  0.47000000000E+01 0.  1.
         11    1    6    6    0    0  0.12857939028E+02  0.12953837252E+02 -0.20094597711E+03  0.20177317516E+03  0.00000000000E+00 0. -1.
        -12    1    6    6    0    0  0.76999523273E+02 -0.48053437147E+02 -0.25676729631E+03  0.27233711436E+03  0.00000000000E+00 0.  1.
</event>
<event>
12    1  0.1683022E-002  0.1773500E+03  0.7818608E-02  0.1170598E+00
         21   -1    0    0  501  502  0.00000000000E+00  0.00000000000E+00  0.21269435986E+03  0.21269435986E+03  0.00000000000E+00 0. -1.
         21   -1    0    0  502  503 -0.00000000000E+00 -0.00000000000E+00 -0.17314982311E+03  0.17314982311E+03  0.00000000000E+00 0. -1.
          6    2    1    2  501    0 -0.29383322602E+02 -0.29051007633E+02  0.94437836155E+02  0.20019314647E+03  0.17161424854E+03 0.  0.
         24    2    3    3    0    0  0.14229484948E+02 -0.36247753002E+02 -0.89322457085E+01  0.87670553397E+02  0.78038215510E+02 0.  0.
         -6    2    1    2    0  503  0.29383322602E+02  0.29051007633E+02 -0.54893299402E+02  0.18565103650E+03  0.17246939538E+03 0.  0.
        -24    2    5    5    0    0  0.57825662477E+02  0.43182687085E+02 -0.87138738839E+02  0.14014796598E+03  0.82702725820E+02 0.  0.
          5    1    3    3  501    0 -0.43612807550E+02  0.71967453692E+01  0.10337008186E+03  0.11252259307E+03  0.47000000000E+01 0. -1.
        -11    1    4    4    0    0 -0.43313770715E+01  0.58840976321E+01 -0.34324370117E+02  0.35093387072E+02  0.00000000000E+00 0.  1.
         12    1    4    4    0    0  0.18560862020E+02 -0.42131850634E+02  0.25392124408E+02  0.52577166325E+02  0.00000000000E+00 0. -1.
         -5    1    5    5    0  503 -0.28442339875E+02 -0.14131679453E+02  0.32245439437E+02  0.45503070514E+02  0.47000000000E+01 0.  1.
         13    1    6    6    0    0  0.50018939603E+02  0.12190433129E+02 -0.46600818899E+01  0.51693494195E+02  0.00000000000E+00 0. -1.
        -14    1    6    6    0    0  0.78067228745E+01  0.30992253956E+02 -0.82478656949E+02  0.88454471789E+02  0.00000000000E+00 0.  1.
</event>
<event>
12    1  0.1683022E-002  0.1767038E+03  0.7818608E-02  0.1171212E+00
         21   -1    0    0  501  502  0.00000000000E+00  0.00000000000E+00  0.11635089711E+04  0.11635089711E+04  0.00000000000E+00 0.  1.
         21   -1    0    0  502  503 -0.00000000000E+00 -0.00000000000E+00 -0.27028085861E+02  0.27028085861E+02  0.00000000000E+00 0.  1.
          6    2    1    2  501    0 -0.36615904245E+02  0.46131013691E+01  0.63232479393E+03  0.65655073399E+03  0.17280687527E+03 0.  0.
         24    2    3    3    0    0  0.43748323549E+02  0.16911412536E+02  0.39043252579E+03  0.40131825770E+03  0.80117882429E+02 0.  0.
         -6    2    1    2    0  503  0.36615904245E+02 -0.46131013691E+01  0.50415609133E+03  0.53398632298E+03  0.17206401008E+03 0.  0.
        -24    2    5    5    0    0  0.68916127179E+00  0.60737341072E+02  0.31262883218E+03  0.32839889101E+03  0.80122065411E+02 0.  0.
          5    1    3    3  501    0 -0.80364227794E+02 -0.12298311166E+02  0.24189226814E+03  0.25523247629E+03  0.47000000000E+01 0. -1.
        -11    1    4    4    0    0 -0.11939617029E+02  0.17109838502E+01  0.23825572029E+03  0.23856083117E+03  0.00000000000E+00 0.  1.
         12    1    4    4    0    0  0.55687940578E+02  0.15200428685E+02  0.15217680550E+03  0.16275742653E+03  0.00000000000E+00 0. -1.
         -5    1    5    5    0  503  0.35926742973E+02 -0.65350442441E+02  0.19152725915E+03  0.20558743197E+03  0.47000000000E+01 0.  1.
         11    1    6    6    0    0 -0.29010426242E+02  0.29215264185E+02  0.24253202499E+03  0.24600186917E+03  0.00000000000E+00 0. -1.
        -12    1    6    6    0    0  0.29699587514E+02  0.31522076887E+02  0.70096807189E+02  0.82397021838E+02  0.00000000000E+00 0.  1.
</event>
<event>
12    1  0.1683022E-002  0.1816236E+03  0.7818608E-02  0.1166526E+00
         21   -1    0    0  501  502  0.00000000000E+00  0.00000000000E+00  0.56468566850E+02  0.56468566850E+02  0.00000000000E+00 0. -1.
         21   -1    0    0  502  503 -0.00000000000E+00 -0.00000000000E+00 -0.59321287278E+03  0.59321287278E+03  0.00000000000E+00 0. -1.
          6    2    1    2  501    0 -0.37962265184E+01  0.54141762677E+02 -0.21969434747E+03  0.28429425287E+03  0.17208101030E+03 0.  0.
         24    2    3    3    0    0  0.46951299146E+01  0.60307366932E+02 -0.36569943388E+02  0.10080922574E+03  0.71875701627E+02 0.  0.
         -6    2    1    2    0  503  0.37962265184E+01 -0.54141762677E+02 -0.31704995846E+03  0.36538718676E+03  0.17332448842E+03 0.  0.
        -24    2    5    5    0    0 -0.54116042245E+02 -0.47102518024E+02 -0.26577606082E+03  0.28757661924E+03  0.83163719228E+02 0.  0.
          5    1    3    3  501    0 -0.84913564331E+01 -0.61656042548E+01 -0.18312440408E+03  0.18348502713E+03  0.47000000000E+01 0. -1.
        -13    1    4    4    0    0 -0.21153696253E+02 -0.35513723596E+01  0.25242604160E+01  0.21597754546E+02  0.00000000000E+00 0.  1.
         14    1    4    4    0    0  0.25848826167E+02  0.63858739292E+02 -0.39094203804E+02  0.79211471197E+02  0.00000000000E+00 0. -1.
         -5    1    5    5    0  503  0.57912268763E+02 -0.70392446534E+01 -0.51273897645E+02  0.77810567523E+02  0.47000000000E+01 0.  1.
         11    1    6    6    0    0 -0.30586002228E+02 -0.67517983877E+02 -0.14499283566E+03  0.16284073223E+03  0.00000000000E+00 0. -1.
        -12    1    6    6    0    0 -0.23530040017E+02  0.20415465853E+02 -0.12078322515E+03  0.12473588701E+03  0.00000000000E+00 0.  1.
</event>
<event>
12    1  0.1683022E-002  0.2591766E+03  0.7818608E-02  0.1107759E+00
         21   -1    0    0  503  502  0.00000000000E+00  0.00000000000E+00  0.12496085487E+04  0.12496085487E+04  0.00000000000E+00 0.  1.
         21   -1    0    0  501  503 -0.00000000000E+00 -0.00000000000E+00 -0.67597796524E+02  0.67597796524E+02  0.00000000000E+00 0. -1.
          6    2    1    2  501    0  0.95231013849E+02  0.16830254836E+03  0.29047002348E+03  0.38875742268E+03  0.17136162162E+03 0.  0.
         24    2    3    3    0    0  0.37208537199E+02  0.14992505436E+03  0.13687882625E+03  0.22347981999E+03  0.85705423996E+02 0.  0.
         -6    2    1    2    0  502 -0.95231013849E+02 -0.16830254836E+03  0.89154072872E+03  0.92844892258E+03  0.17256255989E+03 0.  0.
        -24    2    5    5    0    0 -0.10032023527E+03 -0.65373487277E+02  0.38630517585E+03  0.41278881584E+03  0.82614013052E+02 0.  0.
          5    1    3    3  501    0  0.58022476650E+02  0.18377493996E+02  0.15359119723E+03  0.16527760268E+03  0.47000000000E+01 0. -1.
        -13    1    4    4    0    0  0.28755166188E+02  0.29336173882E+02  0.79895941818E+02  0.89837810523E+02  0.00000000000E+00 0.  1.
         14    1    4    4    0    0  0.84533710110E+01  0.12058888048E+03  0.56982884433E+02  0.13364200947E+03  0.00000000000E+00 0. -1.
         -5    1    5    5    0  502  0.50892214188E+01 -0.10292906108E+03  0.50523555288E+03  0.51566010674E+03  0.47000000000E+01 0.  1.
         13    1    6    6    0    0 -0.50952690234E+02  0.50720013255E+01  0.83025074640E+02  0.97545193929E+02  0.00000000000E+00 0. -1.
        -14    1    6    6    0    0 -0.49367545033E+02 -0.70445488602E+02  0.30328010121E+03  0.31524362191E+03  0.00000000000E+00 0.  1.
</event>
<event>
12    1  0.1683022E-002  0.2164966E+03  0.7818608E-02  0.1136724E+00
         21   -1    0    0  501  502  0.00000000000E+00  0.00000000000E+00  0.52791931159E+03  0.52791931159E+03  0.00000000000E+00 0.  1.
         21   -1    0    0  502  503 -0.00000000000E+00 -0.00000000000E+00 -0.17392664754E+03  0.17392664754E+03  0.00000000000E+00 0. -1.
          6    2    1    2  501    0  0.20534877214E+02  0.12800867513E+03  0.42292833535E+03  0.47463917150E+03  0.17206412814E+03 0.  0.
         24    2    3    3    0    0  0.42720159931E+02  0.11783710623E+03  0.42453809359E+03  0.44973276862E+03  0.79475622637E+02 0.  0.
         -6    2    1    2    0  503 -0.20534877214E+02 -0.12800867513E+03 -0.68935671309E+02  0.22720678763E+03  0.17338654928E+03 0.  0.
        -24    2    5    5    0    0 -0.58781884380E+02 -0.10771443629E+03 -0.97999063466E+02  0.17484782993E+03  0.76878068877E+02 0.  0.
          5    1    3    3  501    0 -0.22185282717E+02  0.10171568901E+02 -0.16097582341E+01  0.24906402886E+02  0.47000000000E+01 0. -1.
        -11    1    4    4    0    0  0.20529041405E+02  0.43422478603E+02  0.29357921394E+03  0.29748228191E+03  0.00000000000E+00 0.  1.
         12    1    4    4    0    0  0.22191118526E+02  0.74414627629E+02  0.13095887964E+03  0.15225048671E+03  0.00000000000E+00 0. -1.
         -5    1    5    5    0  503  0.38247007166E+02 -0.20294238846E+02  0.29063392157E+02  0.52358957698E+02  0.47000000000E+01 0.  1.
         11    1    6    6    0    0 -0.33787753939E+02 -0.10368043995E+03 -0.10188065597E+03  0.14923442634E+03  0.00000000000E+00 0. -1.
        -12    1    6    6    0    0 -0.24994130441E+02 -0.40339963386E+01  0.38815925040E+01  0.25613403588E+02  0.00000000000E+00 0.  1.
</event>
<event>
12    1  0.1683022E-002  0.2545625E+03  0.7818608E-02  0.1110603E+00
         21   -1    0    0  501  502  0.00000000000E+00  0.00000000000E+00  0.28970407036E+03  0.28970407036E+03  0.00000000000E+00 0.  1.
         21   -1    0    0  502  503 -0.00000000000E+00 -0.00000000000E+00 -0.22311595912E+03  0.22311595912E+03  0.00000000000E+00 0. -1.
          6    2    1    2  501    0  0.17654304256E+03 -0.62655511969E+02  0.24400382643E+02  0.25572928999E+03  0.17236279190E+03 0.  0.
         24    2    3    3    0    0  0.29795977099E+02  0.21856676169E+02  0.56492108473E+01  0.85286608692E+02  0.76657533841E+02 0.  0.
         -6    2    1    2    0  503 -0.17654304256E+03  0.62655511969E+02  0.42187728590E+02  0.25709073949E+03  0.17094643849E+03 0.  0.
        -24    2    5    5    0    0 -0.90108426576E+02 -0.18916690729E+02 -0.19529971292E+02  0.12309024855E+03  0.79324774074E+02 0.  0.
          5    1    3    3  501    0  0.14674706546E+03 -0.84512188138E+02  0.18751171796E+02  0.17044268130E+03  0.47000000000E+01 0. -1.
        -13    1    4    4    0    0  0.18258604611E+02  0.10516406090E+02 -0.35382319274E+02  0.41181063083E+02  0.00000000000E+00 0.  1.
         14    1    4    4    0    0  0.11537372488E+02  0.11340270079E+02  0.41031530121E+02  0.44105545609E+02  0.00000000000E+00 0. -1.
         -5    1    5    5    0  503 -0.86434615980E+02  0.81572202698E+02  0.61717699882E+02  0.13400049094E+03  0.47000000000E+01 0.  1.
         13    1    6    6    0    0 -0.10009907640E+03 -0.20371819249E+01 -0.82394637155E+01  0.10045826979E+03  0.00000000000E+00 0. -1.
        -14    1    6    6    0    0  0.99906498257E+01 -0.16879508804E+02 -0.11290507576E+02  0.22631978763E+02  0.00000000000E+00 0.  1.
</event>
<event>
12    1  0.1683022E-002  0.1858906E+03  0.7818608E-02  0.1162598E+00
         21   -1    0    0  501  502  0.00000000000E+00  0.00000000000E+00  0.39048598378E+02  0.39048598378E+02  0.00000000000E+00 0.  1.
         21   -1    0    0  502  503 -0.00000000000E+00 -0.00000000000E+00 -0.89457783919E+03  0.89457783919E+03  0.00000000000E+00 0.  1.
          6    2    1    2  501    0  0.62012839159E+02  0.28123721052E+02 -0.49090946321E+03  0.52435526015E+03  0.17123025981E+03 0.  0.
         24    2    3    3    0    0  0.89224755046E+02  0.63806875719E+02 -0.34748201314E+03  0.37399802113E+03  0.84251979502E+02 0.  0.
         -6    2    1    2    0  503 -0.62012839159E+02 -0.28123721052E+02 -0.36461977760E+03  0.40927117742E+03  0.17297045568E+03 0.  0.
        -24    2    5    5    0    0 -0.40739134882E+02 -0.50433700293E+02 -0.10235140333E+03  0.14515549100E+03  0.79944177824E+02 0.  0.
          5    1    3    3  501    0 -0.27211915887E+02 -0.35683154667E+02 -0.14342745007E+03  0.15035723902E+03  0.47000000000E+01 0. -1.
        -11    1    4    4    0    0  0.63457345073E+02  0.28070548839E+02 -0.30500651890E+03  0.31279988320E+03  0.00000000000E+00 0.  1.
         12    1    4    4    0    0  0.25767409973E+02  0.35736326880E+02 -0.42475494244E+02  0.61198137936E+02  0.00000000000E+00 0. -1.
         -5    1    5    5    0  503 -0.21273704277E+02  0.22309979241E+02 -0.26226837427E+03  0.26411568641E+03  0.47000000000E+01 0.  1.
         11    1    6    6    0    0 -0.17016400385E+02 -0.50072644706E+02 -0.10845107814E+03  0.12065846004E+03  0.00000000000E+00 0. -1.
        -12    1    6    6    0    0 -0.23722734497E+02 -0.36105558661E+00  0.60996748073E+01  0.24497030961E+02  0.00000000000E+00 0.  1.
</event>
<event>
12    1  0.1683022E-002  0.1897820E+03  0.7818608E-02  0.1158805E+00
         21   -1    0    0  503  502  0.00000000000E+00  0.00000000000E+00  0.16415978641E+03  0.16415978641E+03  0.00000000000E+00 0.  1.
         21   -1    0    0  501  503 -0.00000000000E+00 -0.00000000000E+00 -0.29923664295E+03  0.29923664295E+03  0.00000000000E+00 0.  1.
          6    2    1    2  501    0  0.82751892054E+02 -0.99766003948E+01 -0.18769080499E+03  0.26645622753E+03  0.16977536547E+03 0.  0.
         24    2    3    3    0    0  0.11986823861E+02 -0.41503840420E+02 -0.16021686985E+03  0.18412416299E+03  0.79787275276E+02 0.  0.
         -6    2    1    2    0  502 -0.82751892054E+02  0.99766003948E+01  0.52613948446E+02  0.19694020182E+03  0.17049870184E+03 0.  0.
        -24    2    5    5    0    0 -0.67797577471E+02  0.37148438026E+02 -0.27424172014E+02  0.11097433062E+03  0.74744223103E+02 0.  0.
          5    1    3    3  501    0  0.70765068192E+02  0.31527240025E+02 -0.27473935133E+02  0.82332064541E+02  0.47000000000E+01 0. -1.
        -11    1    4    4    0    0  0.40690609882E+02 -0.45274715715E+02 -0.95847623871E+02  0.11354423199E+03  0.00000000000E+00 0.  1.
         12    1    4    4    0    0 -0.28703786021E+02  0.37708752947E+01 -0.64369245982E+02  0.70579931005E+02  0.00000000000E+00 0. -1.
         -5    1    5    5    0  502 -0.14954314583E+02 -0.27171837631E+02  0.80038120460E+02  0.85965871203E+02  0.47000000000E+01 0.  1.
         13    1    6    6    0    0 -0.14048579377E+02  0.47651466722E+02 -0.26268391822E+02  0.56196559255E+02  0.00000000000E+00 0. -1.
        -14    1    6    6    0    0 -0.53748998093E+02 -0.10503028696E+02 -0.11557801922E+01  0.54777771365E+02  0.00000000000E+00 0.  1.
</event>
<event>
12    1  0.1683022E-002  0.2423645E+03  0.7818608E-02  0.1118430E+00
         21   -1    0    0  503  502  0.00000000000E+00  0.00000000000E+00  0.88027309918E+03  0.88027309918E+03  0.00000000000E+00 0. -1.
         21   -1    0    0  501  503 -0.00000000000E+00 -0.00000000000E+00 -0.85516212426E+02  0.85516212426E+02  0.00000000000E+00 0. -1.
          6    2    1    2  501    0  0.12974791266E+03  0.11085702086E+03  0.16823227288E+03  0.29402027807E+03  0.17035852302E+03 0.  0.
         24    2    3    3    0    0  0.69329869176E+02 -0.67564978725E+01  0.94511062062E+02  0.14256009620E+03  0.80862594279E+02 0.  0.
         -6    2    1    2    0  502 -0.12974791266E+03 -0.11085702086E+03  0.62652461387E+03  0.67176903353E+03  0.17209515598E+03 0.  0.
        -24    2    5    5    0    0 -0.12632553785E+03 -0.70239801144E+02  0.29529278661E+03  0.33800551758E+03  0.78473746672E+02 0.  0.
          5    1    3    3  501    0  0.60418043486E+02  0.11761351873E+03  0.73721210820E+02  0.15146018187E+03  0.47000000000E+01 0. -1.
        -11    1    4    4    0    0  0.79284554828E+02  0.10621826477E+02  0.51561700903E+02  0.95170756181E+02  0.00000000000E+00 0.  1.
         12    1    4    4    0    0 -0.99546856526E+01 -0.17378324350E+02  0.42949361159E+02  0.47389340021E+02  0.00000000000E+00 0. -1.
         -5    1    5    5    0  502 -0.34223748129E+01 -0.40617219717E+02  0.33123182726E+03  0.33376351595E+03  0.47000000000E+01 0.  1.
         13    1    6    6    0    0 -0.10528299190E+03 -0.51062676580E+02  0.28438546992E+03  0.30751748052E+03  0.00000000000E+00 0. -1.
        -14    1    6    6    0    0 -0.21042545951E+02 -0.19177124564E+02  0.10907316684E+02  0.30488037062E+02  0.00000000000E+00 0.  1.
</event>
<event>
12    1  0.1683022E-002  0.1948298E+03  0.7818608E-02  0.1155702E+00
         21   -1    0    0  501  502  0.00000000000E+00  0.00000000000E+00  0.14154543691E+03  0.14154543691E+03  0.00000000000E+00 0. -1.
         21   -1    0    0  502  503 -0.00000000000E+00 -0.00000000000E+00 -0.34479091886E+03  0.34479091886E+03  0.00000000000E+00 0. -1.
          6    2    1    2  501    0 -0.83826859122E+02  0.44186816338E+01  0.21160384115E+02  0.18915518202E+03  0.16818279928E+03 0.  0.
         24    2    3    3    0    0 -0.61476067588E+01 -0.22368771311E+02 -0.35246194654E+02  0.89378300877E+02  0.78791061875E+02 0.  0.
         -6    2    1    2    0  503  0.83826859122E+02 -0.44186816338E+01 -0.22440586607E+03  0.29718117375E+03  0.17581862884E+03 0.  0.
        -24    2    5    5    0    0  0.85243639292E+02  0.52159909247E+02 -0.10746283565E+03  0.16717768697E+03  0.80081107644E+02 0.  0.
          5    1    3    3  501    0 -0.77679252364E+02  0.26787452944E+02  0.56406578768E+02  0.99776881147E+02  0.47000000000E+01 0. -1.
        -11    1    4    4    0    0 -0.29183746113E+02  0.23884605462E+00 -0.46751077266E+02  0.55112714596E+02  0.00000000000E+00 0.  1.
         12    1    4    4    0    0  0.23036139355E+02 -0.22607617365E+02  0.11504882612E+02  0.34265586281E+02  0.00000000000E+00 0. -1.
         -5    1    5    5    0  503 -0.14167801696E+01 -0.56578590880E+02 -0.11694303042E+03  0.13000348678E+03  0.47000000000E+01 0.  1.
         13    1    6    6    0    0  0.22921097955E+02  0.47385445973E+02 -0.86488459630E+02  0.10124727587E+03  0.00000000000E+00 0. -1.
        -14    1    6    6    0    0  0.62322541337E+02  0.47744632741E+01 -0.20974376018E+02  0.65930411099E+02  0.00000000000E+00 0.  1.
</event>
<event>
12    1  0.1683022E-002  0.2184319E+03  0.7818608E-02  0.1136592E+00
         21   -1    0    0  501  502  0.00000000000E+00  0.00000000000E+00  0.68122617129E+03  0.68122617129E+03  0.00000000000E+00 0.  1.
         21   -1    0    0  502  503 -0.00000000000E+00 -0.00000000000E+00 -0.67701679970E+02  0.67701679970E+02  0.00000000000E+00 0. -1.
          6    2    1    2  501    0  0.90493920630E+02  0.90172662131E+02  0.29197277559E+03  0.36463763278E+03  0.17717856216E+03 0.  0.
         24    2    3    3    0    0  0.65922587125E+02 -0.13245327615E+02  0.89295840014E+02  0.13572922043E+03  0.76989921660E+02 0.  0.
         -6    2    1    2    0  503 -0.90493920630E+02 -0.90172662131E+02  0.32155171573E+03  0.38429021848E+03  0.16722203043E+03 0.  0.
        -24    2    5    5    0    0 -0.28242915345E+02 -0.11110005507E+03  0.25337018414E+03  0.28950649264E+03  0.80477789261E+02 0.  0.
          5    1    3    3  501    0  0.24571333505E+02  0.10341798975E+03  0.20267693557E+03  0.22890841235E+03  0.47000000000E+01 0. -1.
        -13    1    4    4    0    0 -0.20886686843E+01  0.23360014239E+02  0.31451970647E+02  0.39233649584E+02  0.00000000000E+00 0.  1.
         14    1    4    4    0    0  0.68011255809E+02 -0.36605341854E+02  0.57843869367E+02  0.96495570843E+02  0.00000000000E+00 0. -1.
         -5    1    5    5    0  503 -0.62251005285E+02  0.20927392935E+02  0.68181531593E+02  0.94783725841E+02  0.47000000000E+01 0.  1.
         11    1    6    6    0    0 -0.22270083902E+02 -0.75229029345E+02  0.78830383384E+02  0.11121867126E+03  0.00000000000E+00 0. -1.
        -12    1    6    6    0    0 -0.59728314430E+01 -0.35871025722E+02  0.17453980076E+03  0.17828782137E+03  0.00000000000E+00 0.  1.
</event>
<event>
12    1  0.1683022E-002  0.2060167E+03  0.7818608E-02  0.1145182E+00
         21   -1    0    0  503  502  0.00000000000E+00  0.00000000000E+00  0.11885564020E+03  0.11885564020E+03  0.00000000000E+00 0.  1.
         21   -1    0    0  501  503 -0.00000000000E+00 -0.00000000000E+00 -0.42293375347E+03  0.42293375347E+03  0.00000000000E+00 0.  1.
          6    2    1    2  501    0 -0.46538104109E+02 -0.10025352304E+03 -0.26114459444E+03  0.33134662038E+03  0.17139871532E+03 0.  0.
         24    2    3    3    0    0 -0.62528595456E+02 -0.17541133693E+02 -0.17799597824E+03  0.21288642647E+03  0.97059495582E+02 0.  0.
         -6    2    1    2    0  502  0.46538104109E+02  0.10025352304E+03 -0.42933518826E+02  0.21044277329E+03  0.17385715336E+03 0.  0.
        -24    2    5    5    0    0  0.65188802262E+00  0.67701849504E+01  0.25591582999E+02  0.85693188490E+02  0.81499282640E+02 0.  0.
          5    1    3    3  501    0  0.15990491347E+02 -0.82712389352E+02 -0.83148616201E+02  0.11846019391E+03  0.47000000000E+01 0. -1.
        -13    1    4    4    0    0 -0.88231802678E+02 -0.55833069680E+01 -0.13665538394E+03  0.16275969489E+03  0.00000000000E+00 0.  1.
         14    1    4    4    0    0  0.25703207222E+02 -0.11957826725E+02 -0.41340594303E+02  0.50126731579E+02  0.00000000000E+00 0. -1.
         -5    1    5    5    0  502  0.45886216086E+02  0.93483338095E+02 -0.68525101824E+02  0.12474958480E+03  0.47000000000E+01 0.  1.
         11    1    6    6    0    0 -0.32957243568E+02  0.13485512728E+02  0.35228384912E+02  0.50090698344E+02  0.00000000000E+00 0. -1.
        -12    1    6    6    0    0  0.33609131590E+02 -0.67153277777E+01 -0.96368019132E+01  0.35602490145E+02  0.00000000000E+00 0.  1.
</event>
<event>
12    1  0.1683022E-002  0.2145677E+03  0.7818608E-02  0.1138734E+00
         21   -1    0    0  501  502  0.00000000000E+00  0.00000000000E+00  0.13690337896E+04  0.13690337896E+04  0.00000000000E+00 0.  1.
         21   -1    0    0  502  503 -0.00000000000E+00 -0.00000000000E+00 -0.33421459672E+02  0.33421459672E+02  0.00000000000E+00 0. -1.
          6    2    1    2  501    0 -0.78215403978E+02  0.10131150702E+03  0.59865221051E+03  0.63594321617E+03  0.17221391977E+03 0.  0.
         24    2    3    3    0    0 -0.11718351950E+03  0.10472689021E+03  0.49052552868E+03  0.52086216562E+03  0.77345992238E+02 0.  0.
         -6    2    1    2    0  503  0.78215403978E+02 -0.10131150702E+03  0.73696011938E+03  0.76651203307E+03  0.16747778483E+03 0.  0.
        -24    2    5    5    0    0  0.58555008169E+02 -0.52748396083E+02  0.22137251394E+03  0.24824803105E+03  0.80063804062E+02 0.  0.
          5    1    3    3  501    0  0.38968115524E+02 -0.34153831958E+01  0.10812668184E+03  0.11508105055E+03  0.47000000000E+01 0. -1.
        -13    1    4    4    0    0 -0.42926370888E+02  0.99812762465E+00  0.18213812854E+03  0.18713088319E+03  0.00000000000E+00 0.  1.
         14    1    4    4    0    0 -0.74257148613E+02  0.10372876259E+03  0.30838740014E+03  0.33373128243E+03  0.00000000000E+00 0. -1.
         -5    1    5    5    0  503  0.19660395808E+02 -0.48563110934E+02  0.51558760543E+03  0.51826400201E+03  0.47000000000E+01 0.  1.
         11    1    6    6    0    0 -0.45888083545E+01  0.96957102974E+01  0.11428681521E+01  0.10787497759E+02  0.00000000000E+00 0. -1.
        -12    1    6    6    0    0  0.63143816524E+02 -0.62444106380E+02  0.22022964579E+03  0.23746053329E+03  0.00000000000E+00 0.  1.
</event>
<event>
12    1  0.1683022E-002  0.1769245E+03  0.7818608E-02  0.1170952E+00
         21   -1    0    0  503  502  0.00000000000E+00  0.00000000000E+00  0.27264329430E+03  0.27264329430E+03  0.00000000000E+00 0. -1.
         21   -1    0    0  501  503 -0.00000000000E+00 -0.00000000000E+00 -0.12705984781E+03  0.12705984781E+03  0.00000000000E+00 0. -1.
          6    2    1    2  501    0 -0.28547892714E+02  0.23229247354E+02  0.99295831231E+01  0.17720288143E+03  0.17305399289E+03 0.  0.
         24    2    3    3    0    0 -0.51592547394E+02 -0.37557453249E+02 -0.31245749440E+02  0.10010828310E+03  0.70519630216E+02 0.  0.
         -6    2    1    2    0  502  0.28547892714E+02 -0.23229247354E+02  0.13565386337E+03  0.22250026068E+03  0.17248134752E+03 0.  0.
        -24    2    5    5    0    0  0.12901336046E+02 -0.27969714824E+02 -0.15280237216E+01  0.84267678002E+02  0.78421663335E+02 0.  0.
          5    1    3    3  501    0  0.23044654680E+02  0.60786700603E+02  0.41175332563E+02  0.77094598327E+02  0.47000000000E+01 0. -1.
        -13    1    4    4    0    0 -0.48752640335E+02 -0.21435500425E+02 -0.51487050349E+02  0.74075751577E+02  0.00000000000E+00 0.  1.
         14    1    4    4    0    0 -0.28399070589E+01 -0.16121952824E+02  0.20241300908E+02  0.26032531522E+02  0.00000000000E+00 0. -1.
         -5    1    5    5    0  502  0.15646556668E+02  0.47404674700E+01  0.13718188709E+03  0.13823258268E+03  0.47000000000E+01 0.  1.
         13    1    6    6    0    0 -0.13206498578E+02 -0.33501099970E+02 -0.28799967689E+02  0.46110448304E+02  0.00000000000E+00 0. -1.
        -14    1    6    6    0    0  0.26107834624E+02  0.55313851462E+01  0.27271943968E+02  0.38157229697E+02  0.00000000000E+00 0.  1.
</event>
<event>
12    1  0.1683022E-002  0.1975686E+03  0.7818608E-02  0.1151951E+00
         21   -1    0    0  501  502  0.00000000000E+00  0.00000000000E+00  0.34121811296E+03  0.34121811296E+03  0.00000000000E+00 0. -1.
         21   -1    0    0  502  503 -0.00000000000E+00 -0.00000000000E+00 -0.11616992036E+03  0.11616992036E+03  0.00000000000E+00 0. -1.
          6    2    1    2  501    0 -0.30796554033E+02 -0.90181680494E+02  0.14392016754E+03  0.24443072321E+03  0.17306704074E+03 0.  0.
         24    2    3    3    0    0 -0.44001743977E+02 -0.81750344492E+02  0.25669868615E+02  0.12505447908E+03  0.79752167906E+02 0.  0.
         -6    2    1    2    0  503  0.30796554033E+02  0.90181680494E+02  0.81128025062E+02  0.21295731010E+03  0.17230175924E+03 0.  0.
        -24    2    5    5    0    0 -0.14809268969E+02 -0.38434906375E+01  0.27816947880E+01  0.82263540681E+02  0.80780353007E+02 0.  0.
          5    1    3    3  501    0  0.13205189944E+02 -0.84313360018E+01  0.11825029892E+03  0.11937624413E+03  0.47000000000E+01 0. -1.
        -13    1    4    4    0    0 -0.17677615557E+02 -0.90315024384E+02  0.30505333120E+02  0.96952963183E+02  0.00000000000E+00 0.  1.
         14    1    4    4    0    0 -0.26324128420E+02  0.85646798920E+01 -0.48354645050E+01  0.28101515897E+02  0.00000000000E+00 0. -1.
         -5    1    5    5    0  503  0.45605823002E+02  0.94025171131E+02  0.78346330274E+02  0.13069376942E+03  0.47000000000E+01 0.  1.
         13    1    6    6    0    0 -0.10972522641E+02  0.36745876754E+02 -0.98267432152E+01  0.39588137033E+02  0.00000000000E+00 0. -1.
        -14    1    6    6    0    0 -0.38367463276E+01 -0.40589367392E+02  0.12608438003E+02  0.42675403648E+02  0.00000000000E+00 0.  1.
</event>
<event>
12    1  0.1683022E-002  0.2084997E+03  0.7818608E-02  0.1143841E+00
         21   -1    0    0  501  502  0.00000000000E+00  0.00000000000E+00  0.47230295131E+03  0.47230295131E+03  0.00000000000E+00 0. -1.
         21   -1    0    0  502  503 -0.00000000000E+00 -0.00000000000E+00 -0.91756055044E+02  0.91756055044E+02  0.00000000000E+00 0. -1.
          6    2    1    2  501    0  0.18732889834E+02 -0.10780367925E+03  0.15048746034E+03  0.25713539475E+03  0.17748121335E+03 0.  0.
         24    2    3    3    0    0 -0.17708615541E+02 -0.12691298467E+03  0.15258927460E+03  0.21566665362E+03  0.82511320544E+02 0.  0.
         -6    2    1    2    0  503 -0.18732889834E+02  0.10780367925E+03  0.23005943592E+03  0.30692361160E+03  0.17117886809E+03 0.  0.
        -24    2    5    5    0    0 -0.25568223829E+02  0.13525165800E+03  0.13885345475E+03  0.21131642396E+03  0.80172339845E+02 0.  0.
          5    1    3    3  501    0  0.36441505375E+02  0.19109305417E+02 -0.21018142623E+01  0.41468741128E+02  0.47000000000E+01 0. -1.
        -13    1    4    4    0    0  0.10167835503E+02 -0.41176716654E+02  0.49820756013E+01  0.42705127918E+02  0.00000000000E+00 0.  1.
         14    1    4    4    0    0 -0.27876451045E+02 -0.85736268016E+02  0.14760719900E+03  0.17296152570E+03  0.00000000000E+00 0. -1.
         -5    1    5    5    0  503  0.68353339956E+01 -0.27447978748E+02  0.91205981165E+02  0.95607187640E+02  0.47000000000E+01 0.  1.
         13    1    6    6    0    0  0.27104547391E+01  0.15361589628E+02 -0.96746772865E+01  0.18355500031E+02  0.00000000000E+00 0. -1.
        -14    1    6    6    0    0 -0.28278678568E+02  0.11989006837E+03  0.14852813204E+03  0.19296092393E+03  0.00000000000E+00 0.  1.
</event>
<event>
12    1  0.1683022E-002  0.1989907E+03  0.7818608E-02  0.1150644E+00
         21   -1    0    0  503  502  0.00000000000E+00  0.00000000000E+00  0.31727494215E+03  0.31727494215E+03  0.00000000000E+00 0. -1.
         21   -1    0    0  501  503 -0.00000000000E+00 -0.00000000000E+00 -0.14916604731E+03  0.14916604731E+03  0.00000000000E+00 0.  1.
          6    2    1    2  501    0  0.79051926762E+02  0.59991541473E+02 -0.10527158477E+02  0.19903096059E+03  0.17220426833E+03 0.  0.
         24    2    3    3    0    0  0.36001564875E+02 -0.34553726077E+02  0.10944019546E+00  0.94496906296E+02  0.80246997845E+02 0.  0.
         -6    2    1    2    0  502 -0.79051926762E+02 -0.59991541473E+02  0.17863605332E+03  0.26741002888E+03  0.17247925042E+03 0.  0.
        -24    2    5    5    0    0 -0.40922876962E+02 -0.97016186094E+02  0.76317852814E+02  0.15201612565E+03  0.78725253737E+02 0.  0.
          5    1    3    3  501    0  0.43050361888E+02  0.94545267551E+02 -0.10636598672E+02  0.10453405429E+03  0.47000000000E+01 0. -1.
        -11    1    4    4    0    0  0.12833371081E+02  0.13815917100E+02 -0.28144720021E+02  0.33877724890E+02  0.00000000000E+00 0.  1.
         12    1    4    4    0    0  0.23168193794E+02 -0.48369643177E+02  0.28254160217E+02  0.60619181406E+02  0.00000000000E+00 0. -1.
         -5    1    5    5    0  502 -0.38129049800E+02  0.37024644621E+02  0.10231820050E+03  0.11539390323E+03  0.47000000000E+01 0.  1.
         11    1    6    6    0    0 -0.63955954619E+02 -0.69470035540E+02  0.46067154668E+02  0.10506489760E+03  0.00000000000E+00 0. -1.
        -12    1    6    6    0    0  0.23033077657E+02 -0.27546150554E+02  0.30250698145E+02  0.46951228045E+02  0.00000000000E+00 0.  1.
</event>
<event>
12    1  0.1683022E-002  0.1744149E+03  0.7818608E-02  0.1173848E+00
         21   -1    0    0  503  502  0.00000000000E+00  0.00000000000E+00  0.26904066770E+03  0.26904066770E+03  0.00000000000E+00 0. -1.
         21   -1    0    0  501  503 -0.00000000000E+00 -0.00000000000E+00 -0.11864505313E+03  0.11864505313E+03  0.00000000000E+00 0. -1.
          6    2    1    2  501    0  0.18264140028E+02 -0.24656615231E+02  0.27961217543E+02  0.17458777526E+03  0.16958046497E+03 0.  0.
         24    2    3    3    0    0  0.14345061723E+02  0.49071529633E+02  0.45031608196E+01  0.96976120562E+02  0.82281794374E+02 0.  0.
         -6    2    1    2    0  502 -0.18264140028E+02  0.24656615231E+02  0.12243439703E+03  0.21309794557E+03  0.17169456993E+03 0.  0.
        -24    2    5    5    0    0 -0.31583976982E+02 -0.16593980583E+02  0.79835809497E+01  0.90623013385E+02  0.82920957524E+02 0.  0.
          5    1    3    3  501    0  0.39190783050E+01 -0.73728144864E+02  0.23458056724E+02  0.77611654699E+02  0.47000000000E+01 0. -1.
        -13    1    4    4    0    0  0.15346095296E+02  0.83868458862E+01  0.39565519929E+02  0.43258203754E+02  0.00000000000E+00 0.  1.
         14    1    4    4    0    0 -0.10010335727E+01  0.40684683747E+02 -0.35062359110E+02  0.53717916808E+02  0.00000000000E+00 0. -1.
         -5    1    5    5    0  502  0.13319836954E+02  0.41250595813E+02  0.11445081608E+03  0.12247493218E+03  0.47000000000E+01 0.  1.
         13    1    6    6    0    0 -0.37993498993E+02  0.25652442205E+02  0.12869022337E+02  0.47614761290E+02  0.00000000000E+00 0. -1.
        -14    1    6    6    0    0  0.64095220110E+01 -0.42246422788E+02 -0.48854413870E+01  0.43008252095E+02  0.00000000000E+00 0.  1.
</event>
<event>
12    1  0.1683022E-002  0.1900604E+03  0.7818608E-02  0.1159559E+00
         21   -1    0    0  503  502  0.00000000000E+00  0.00000000000E+00  0.49699994456E+03  0.49699994456E+03  0.00000000000E+00 0.  1.
         21   -1    0    0  501  503 -0.00000000000E+00 -0.00000000000E+00 -0.72382846133E+02  0.72382846133E+02  0.00000000000E+00 0.  1.
          6    2    1    2  501    0 -0.62130230964E+02 -0.22725876463E+02  0.25762681096E+03  0.32014766937E+03  0.17817498537E+03 0.  0.
         24    2    3    3    0    0 -0.84961625887E+02 -0.70424998108E+02  0.17930780612E+03  0.22553035954E+03  0.80836226441E+02 0.  0.
         -6    2    1    2    0  502  0.62130230964E+02  0.22725876463E+02  0.16699028746E+03  0.24923512133E+03  0.17278818980E+03 0.  0.
        -24    2    5    5    0    0  0.16332681689E+02 -0.27144264797E+02  0.22224193613E+02  0.89348416320E+02  0.80533577560E+02 0.  0.
          5    1    3    3  501    0  0.22831394923E+02  0.47699121645E+02  0.78319004841E+02  0.94617309828E+02  0.47000000000E+01 0. -1.
        -13    1    4    4    0    0  0.12822206104E+02 -0.23993357589E+02  0.24366785759E+02  0.36521643254E+02  0.00000000000E+00 0.  1.
         14    1    4    4    0    0 -0.97783831991E+02 -0.46431640518E+02  0.15494102036E+03  0.18900871628E+03  0.00000000000E+00 0. -1.
         -5    1    5    5    0  502  0.45797549274E+02  0.49870141260E+02  0.14476609385E+03  0.15988670501E+03  0.47000000000E+01 0.  1.
         11    1    6    6    0    0  0.80689922720E+01 -0.11063554897E+02 -0.30595527664E+02  0.33520101376E+02  0.00000000000E+00 0. -1.
        -12    1    6    6    0    0  0.82636894174E+01 -0.16080709900E+02  0.52819721277E+02  0.55828314944E+02  0.00000000000E+00 0.  1.
</event>
<event>
12    1  0.1683022E-002  0.1759401E+03  0.7818608E-02  0.1171923E+00
         21   -1    0    0  503  502  0.00000000000E+00  0.00000000000E+00  0.78834688319E+03  0.78834688319E+03  0.00000000000E+00 0.  1.
         21   -1    0    0  501  503 -0.00000000000E+00 -0.00000000000E+00 -0.55348771110E+02  0.55348771110E+02  0.00000000000E+00 0.  1.
          6    2    1    2  501    0  0.18786540178E+02  0.32692924385E+02  0.13865972346E+03  0.22401215514E+03  0.17185216130E+03 0.  0.
         24    2    3    3    0    0 -0.31409305591E+02  0.90630088687E+01  0.14376651012E+03  0.16810003561E+03  0.80747321532E+02 0.  0.
         -6    2    1    2    0  502 -0.18786540178E+02 -0.32692924385E+02  0.59433838862E+03  0.61968349916E+03  0.17131187219E+03 0.  0.
        -24    2    5    5    0    0 -0.17114717063E+02 -0.69617188066E+02  0.21739760016E+03  0.24090566949E+03  0.75062364918E+02 0.  0.
          5    1    3    3  501    0  0.50195845770E+02  0.23629915517E+02 -0.51067866537E+01  0.55912119525E+02  0.47000000000E+01 0. -1.
        -11    1    4    4    0    0 -0.33643900881E+02  0.19841218758E+02  0.20067619847E+02  0.43912360385E+02  0.00000000000E+00 0.  1.
         12    1    4    4    0    0  0.22345952895E+01 -0.10778209890E+02  0.12369889027E+03  0.12418767523E+03  0.00000000000E+00 0. -1.
         -5    1    5    5    0  502 -0.16718231157E+01  0.36924263681E+02  0.37694078847E+03  0.37877782967E+03  0.47000000000E+01 0.  1.
         13    1    6    6    0    0  0.13205403045E+02 -0.62664784313E+02  0.18596414810E+03  0.19668228757E+03  0.00000000000E+00 0. -1.
        -14    1    6    6    0    0 -0.30320120107E+02 -0.69524037528E+01  0.31433452051E+02  0.44223381928E+02  0.00000000000E+00 0.  1.
</event>
<event>
12    1  0.1683022E-002  0.3192116E+03  0.7818608E-02  0.1076054E+00
         21   -1    0    0  501  502  0.00000000000E+00  0.00000000000E+00  0.11991511761E+03  0.11991511761E+03  0.00000000000E+00 0. -1.
         21   -1    0    0  502  503 -0.00000000000E+00 -0.00000000000E+00 -0.10548997140E+04  0.10548997140E+04  0.00000000000E+00 0. -1.
          6    2    1    2  501    0 -0.27005534612E+02 -0.26741955150E+03 -0.20804958443E+03  0.38102584638E+03  0.17220206331E+03 0.  0.
         24    2    3    3    0    0  0.46024378686E+02 -0.14290077537E+03 -0.14993279610E+03  0.22534044267E+03  0.75892006963E+02 0.  0.
         -6    2    1    2    0  503  0.27005534612E+02  0.26741955150E+03 -0.72693501197E+03  0.79378898525E+03  0.17153403757E+03 0.  0.
        -24    2    5    5    0    0 -0.14073342292E+02  0.23394496952E+03 -0.67660216014E+03  0.72055301226E+03  0.80485108194E+02 0.  0.
          5    1    3    3  501    0 -0.73029913298E+02 -0.12451877613E+03 -0.58116788326E+02  0.15568540371E+03  0.47000000000E+01 0. -1.
        -11    1    4    4    0    0  0.80909411949E+01  0.75226492278E+01 -0.25043840066E+01  0.11328085455E+02  0.00000000000E+00 0.  1.
         12    1    4    4    0    0  0.37933437491E+02 -0.15042342460E+03 -0.14742841210E+03  0.21401235722E+03  0.00000000000E+00 0. -1.
         -5    1    5    5    0  503  0.41078876904E+02  0.33474581973E+02 -0.50332851833E+02  0.73235972989E+02  0.47000000000E+01 0.  1.
         11    1    6    6    0    0  0.38694149291E+01  0.12989179032E+03 -0.25851583052E+03  0.28933939275E+03  0.00000000000E+00 0. -1.
        -12    1    6    6    0    0 -0.17942757221E+02  0.10405317920E+03 -0.41808632962E+03  0.43121361951E+03  0.00000000000E+00 0.  1.
</event>
<event>
12    1  0.1683022E-002  0.2293247E+03  0.7818608E-02  0.1127344E+00
         21   -1    0    0  501  502  0.00000000000E+00  0.00000000000E+00  0.11391503623E+03  0.11391503623E+03  0.00000000000E+00 0.  1.
         21   -1    0    0  502  503 -0.00000000000E+00 -0.00000000000E+00 -0.83175552841E+03  0.83175552841E+03  0.00000000000E+00 0. -1.
          6    2    1    2  501    0  0.15004714000E+03 -0.21573593898E+02 -0.42972249006E+02  0.23331618855E+03  0.17207633619E+03 0.  0.
         24    2    3    3    0    0  0.93520647433E+02 -0.31646587307E+02 -0.92857721996E+02  0.15711015221E+03  0.79457066459E+02 0.  0.
         -6    2    1    2    0  503 -0.15004714000E+03  0.21573593898E+02 -0.67486824318E+03  0.71235437609E+03  0.17035858449E+03 0.  0.
        -24    2    5    5    0    0 -0.87275635619E+02 -0.49995573580E+01 -0.59682220010E+03  0.60862555189E+03  0.81155971657E+02 0.  0.
          5    1    3    3  501    0  0.56526492566E+02  0.10072993409E+02  0.49885472989E+02  0.76206036331E+02  0.47000000000E+01 0. -1.
        -11    1    4    4    0    0  0.86535750150E+02 -0.29724762896E+01 -0.37462190281E+02  0.94343454304E+02  0.00000000000E+00 0.  1.
         12    1    4    4    0    0  0.69848972830E+01 -0.28674111017E+02 -0.55395531715E+02  0.62766697911E+02  0.00000000000E+00 0. -1.
         -5    1    5    5    0  503 -0.62771504380E+02  0.26573151256E+02 -0.78046043077E+02  0.10372882420E+03  0.47000000000E+01 0.  1.
         13    1    6    6    0    0 -0.62699642712E+02 -0.38366654125E+02 -0.29741458207E+03  0.30636363847E+03  0.00000000000E+00 0. -1.
        -14    1    6    6    0    0 -0.24575992907E+02  0.33367096767E+02 -0.29940761803E+03  0.30226191343E+03  0.00000000000E+00 0.  1.
</event>
<event>
12    1  0.1683022E-002  0.2031816E+03  0.7818608E-02  0.1148999E+00
         21   -1    0    0  501  502  0.00000000000E+00  0.00000000000E+00  0.88992530900E+03  0.88992530900E+03  0.00000000000E+00 0. -1.
         21   -1    0    0  502  503 -0.00000000000E+00 -0.00000000000E+00 -0.64118992289E+02  0.64118992289E+02  0.00000000000E+00 0.  1.
          6    2    1    2  501    0 -0.38486047473E+02  0.96240783143E+02  0.68427080484E+03  0.71379920398E+03  0.17475498580E+03 0.  0.
         24    2    3    3    0    0 -0.11941595185E+02  0.44549873078E+02  0.62107288456E+03  0.62781882681E+03  0.79357787774E+02 0.  0.
         -6    2    1    2    0  503  0.38486047473E+02 -0.96240783143E+02  0.14153551188E+03  0.24024509731E+03  0.16414000569E+03 0.  0.
        -24    2    5    5    0    0  0.16034282108E+02  0.95716911657E+01  0.80738676811E+02  0.11607301252E+03  0.81274195337E+02 0.  0.
          5    1    3    3  501    0 -0.26544452288E+02  0.51690910064E+02  0.63197920283E+02  0.85980377172E+02  0.47000000000E+01 0. -1.
        -13    1    4    4    0    0 -0.11299219220E+02  0.15325519839E+02  0.27062409952E+02  0.33089544356E+02  0.00000000000E+00 0.  1.
         14    1    4    4    0    0 -0.64237596572E+00  0.29224353239E+02  0.59401047460E+03  0.59472928245E+03  0.00000000000E+00 0. -1.
         -5    1    5    5    0  503  0.22451765365E+02 -0.10581247431E+03  0.60796835065E+02  0.12417208479E+03  0.47000000000E+01 0.  1.
         13    1    6    6    0    0  0.34226899534E+02  0.32948810520E+02  0.69927746685E+02  0.84539898999E+02  0.00000000000E+00 0. -1.
        -14    1    6    6    0    0 -0.18192617425E+02 -0.23377119354E+02  0.10810930126E+02  0.31533113520E+02  0.00000000000E+00 0.  1.
</event>
<event>
12    1  0.2059837E-002  0.2508576E+03  0.7818608E-02  0.1112898E+00
         21   -1    0    0  503  502  0.00000000000E+00  0.00000000000E+00  0.14581091399E+03  0.14581091399E+03  0.00000000000E+00 0. -1.
         21   -1    0    0  501  503 -0.00000000000E+00 -0.00000000000E+00 -0.61133963354E+03  0.61133963354E+03  0.00000000000E+00 0. -1.
          6    2    1    2  501    0 -0.14917165594E+03  0.10478310299E+03 -0.43915641393E+03  0.50575479454E+03  0.17233071315E+03 0.  0.
         24    2    3    3    0    0 -0.32032847168E+01  0.32732082685E+02 -0.17804379285E+03  0.19802113403E+03  0.80194308267E+02 0.  0.
         -6    2    1    2    0  502  0.14917165594E+03 -0.10478310299E+03 -0.26372305613E+02  0.25139575299E+03  0.17109250278E+03 0.  0.
        -24    2    5    5    0    0  0.17768463504E+03 -0.10377011094E+03 -0.16617616950E+02  0.22087919877E+03  0.78558321037E+02 0.  0.
          5    1    3    3  501    0 -0.14596837122E+03  0.72051020309E+02 -0.26111262108E+03  0.30773366051E+03  0.47000000000E+01 0. -1.
        -13    1    4    4    0    0 -0.37897674304E+01 -0.17269131155E+02 -0.12048358078E+03  0.12177388253E+03  0.00000000000E+00 0.  1.
         14    1    4    4    0    0  0.58648271357E+00  0.50001213840E+02 -0.57560212068E+02  0.76247251497E+02  0.00000000000E+00 0. -1.
         -5    1    5    5    0  502 -0.28512979102E+02 -0.10129920552E+01 -0.97546886638E+01  0.30516554214E+02  0.47000000000E+01 0.  1.
         11    1    6    6    0    0  0.70914247898E+02 -0.17119941269E+02 -0.37119594653E+02  0.81852228139E+02  0.00000000000E+00 0. -1.
        -12    1    6    6    0    0  0.10677038714E+03 -0.86650169669E+02  0.20501977704E+02  0.13902697064E+03  0.00000000000E+00 0.  1.
</event>
<event>
12    1  0.1683022E-002  0.2320792E+03  0.7818608E-02  0.1125257E+00
         21   -1    0    0  501  502  0.00000000000E+00  0.00000000000E+00  0.45398150433E+03  0.45398150433E+03  0.00000000000E+00 0.  1.
         21   -1    0    0  502  503 -0.00000000000E+00 -0.00000000000E+00 -0.14019566194E+03  0.14019566194E+03  0.00000000000E+00 0. -1.
          6    2    1    2  501    0 -0.43191894657E+02  0.14945828171E+03  0.27383335923E+03  0.35868412702E+03  0.17165743974E+03 0.  0.
         24    2    3    3    0    0 -0.53208453633E+02  0.93403239595E+02  0.65804507061E+02  0.14295143935E+03  0.67450546006E+02 0.  0.
         -6    2    1    2    0  503  0.43191894657E+02 -0.14945828171E+03  0.39952483164E+02  0.23549303925E+03  0.17221339347E+03 0.  0.
        -24    2    5    5    0    0 -0.48349814455E+01 -0.14999570647E+03 -0.51515497145E+01  0.16943750628E+03  0.78488477275E+02 0.  0.
          5    1    3    3  501    0  0.10016558976E+02  0.56055042111E+02  0.20802885217E+03  0.21573268768E+03  0.47000000000E+01 0. -1.
        -13    1    4    4    0    0 -0.10638733323E+02  0.12238612944E+02  0.46558371806E+02  0.49301605235E+02  0.00000000000E+00 0.  1.
         14    1    4    4    0    0 -0.42569720310E+02  0.81164626651E+02  0.19246135255E+02  0.93649834110E+02  0.00000000000E+00 0. -1.
         -5    1    5    5    0  503  0.48026876103E+02  0.53742476647E+00  0.45104032879E+02  0.66055532967E+02  0.47000000000E+01 0.  1.
         13    1    6    6    0    0  0.14185477867E+02 -0.23661442544E+02 -0.28386381400E+02  0.39583813543E+02  0.00000000000E+00 0. -1.
        -14    1    6    6    0    0 -0.19020459312E+02 -0.12633426393E+03  0.23234831686E+02  0.12985369274E+03  0.00000000000E+00 0.  1.
</event>
<event>
12    1  0.1683022E-002  0.1759833E+03  0.7818608E-02  0.1172037E+00
         21   -1    0    0  503  502  0.00000000000E+00  0.00000000000E+00  0.47611768884E+03  0.47611768884E+03  0.00000000000E+00 0.  1.
         21   -1    0    0  501  503 -0.00000000000E+00 -0.00000000000E+00 -0.86344810800E+02  0.86344810800E+02  0.00000000000E+00 0.  1.
          6    2    1    2  501    0  0.35793337701E+02  0.10897148890E+02  0.53345193879E+02  0.18278672144E+03  0.17077870168E+03 0.  0.
         24    2    3    3    0    0  0.51591505407E+02 -0.49715014017E+02  0.54058038326E+02  0.11996941059E+03  0.79606041989E+02 0.  0.
         -6    2    1    2    0  502 -0.35793337701E+02 -0.10897148890E+02  0.33642768416E+03  0.37967577820E+03  0.17195987614E+03 0.  0.
        -24    2    5    5    0    0  0.15627088697E+02 -0.85666638839E+01  0.70817065958E+02  0.10908275923E+03  0.81033313518E+02 0.  0.
          5    1    3    3  501    0 -0.15798167706E+02  0.60612162907E+02 -0.71284444668E+00  0.62817310849E+02  0.47000000000E+01 0. -1.
        -13    1    4    4    0    0 -0.68203041853E+01 -0.32288359556E+02 -0.69534074075E+01  0.33725429375E+02  0.00000000000E+00 0.  1.
         14    1    4    4    0    0  0.58411809592E+02 -0.17426654461E+02  0.61011445734E+02  0.86243981216E+02  0.00000000000E+00 0. -1.
         -5    1    5    5    0  502 -0.51420426398E+02 -0.23304850057E+01  0.26561061820E+03  0.27059301896E+03  0.47000000000E+01 0.  1.
         11    1    6    6    0    0  0.23872647016E+02 -0.41817602558E+02  0.47533531091E+02  0.67661301622E+02  0.00000000000E+00 0. -1.
        -12    1    6    6    0    0 -0.82455583188E+01  0.33250938674E+02  0.23283534867E+02  0.41421457611E+02  0.00000000000E+00 0.  1.
</event>
<event>
12    1  0.1683022E-002  0.1973534E+03  0.7818608E-02  0.1151991E+00
         21   -1    0    0  503  502  0.00000000000E+00  0.00000000000E+00  0.84901794410E+03  0.84901794410E+03  0.00000000000E+00 0.  1.
         21   -1    0    0  501  503 -0.00000000000E+00 -0.00000000000E+00 -0.46890408375E+02  0.46890408375E+02  0.00000000000E+00 0. -1.
          6    2    1    2  501    0 -0.60346204640E+02 -0.74917398398E+02  0.46699636122E+03  0.50698517286E+03  0.17231971191E+03 0.  0.
         24    2    3    3    0    0 -0.39402425004E+02 -0.87267474941E+02  0.46600292034E+03  0.48220124217E+03  0.78683879545E+02 0.  0.
         -6    2    1    2    0  502  0.60346204640E+02  0.74917398398E+02  0.33513117450E+03  0.38892317961E+03  0.17231962894E+03 0.  0.
        -24    2    5    5    0    0  0.87079814112E+02  0.30508435080E+01  0.17589137428E+03  0.21212133697E+03  0.80408235769E+02 0.  0.
          5    1    3    3  501    0 -0.20943779636E+02  0.12350076543E+02  0.99344088051E+00  0.24783930698E+02  0.47000000000E+01 0. -1.
        -13    1    4    4    0    0 -0.12199884278E+02 -0.36373835112E+02  0.35525251003E+03  0.35731812008E+03  0.00000000000E+00 0.  1.
         14    1    4    4    0    0 -0.27202540725E+02 -0.50893639829E+02  0.11075041032E+03  0.12488312209E+03  0.00000000000E+00 0. -1.
         -5    1    5    5    0  502 -0.26733609472E+02  0.71866554890E+02  0.15923980022E+03  0.17680184264E+03  0.47000000000E+01 0.  1.
         11    1    6    6    0    0  0.56025333402E+02 -0.44253733105E+01  0.17075955129E+03  0.17976998155E+03  0.00000000000E+00 0. -1.
        -12    1    6    6    0    0  0.31054480709E+02  0.74762168185E+01  0.51318229937E+01  0.32351355417E+02  0.00000000000E+00 0.  1.
</event>
<event>
12    1  0.1683022E-002  0.8620886E+03  0.7818608E-02  0.9474340E-01
         21   -1    0    0  503  502  0.00000000000E+00  0.00000000000E+00  0.14317783099E+04  0.14317783099E+04  0.00000000000E+00 0. -1.
         21   -1    0    0  501  503 -0.00000000000E+00 -0.00000000000E+00 -0.75271245845E+03  0.75271245845E+03  0.00000000000E+00 0.  1.
          6    2    1    2  501    0  0.82743105627E+03 -0.16997464420E+03 -0.26923368920E+03  0.90290238051E+03  0.17091634438E+03 0.  0.
         24    2    3    3    0    0  0.33450750318E+03 -0.30897930813E+02 -0.15316985650E+03  0.37772730051E+03  0.79793212696E+02 0.  0.
         -6    2    1    2    0  502 -0.82743105627E+03  0.16997464420E+03  0.94829954062E+03  0.12815883878E+04  0.17223020779E+03 0.  0.
        -24    2    5    5    0    0 -0.76202408661E+03  0.19733409886E+03  0.87137836770E+03  0.11768717784E+04  0.78137494134E+02 0.  0.
          5    1    3    3  501    0  0.49292355309E+03 -0.13907671338E+03 -0.11606383269E+03  0.52517508000E+03  0.47000000000E+01 0. -1.
        -13    1    4    4    0    0  0.33137452677E+03 -0.18452549585E+02 -0.14314196789E+03  0.36144044675E+03  0.00000000000E+00 0.  1.
         14    1    4    4    0    0  0.31329764134E+01 -0.12445381228E+02 -0.10027888613E+02  0.16286853753E+02  0.00000000000E+00 0. -1.
         -5    1    5    5    0  502 -0.65406969661E+02 -0.27359454659E+02  0.76921172921E+02  0.10471660939E+03  0.47000000000E+01 0.  1.
         13    1    6    6    0    0 -0.64913893019E+03  0.13862372080E+03  0.72865218819E+03  0.98566317675E+03  0.00000000000E+00 0. -1.
        -14    1    6    6    0    0 -0.11288515642E+03  0.58710378056E+02  0.14272617951E+03  0.19120860166E+03  0.00000000000E+00 0.  1.
</event>
<event>
12    1  0.1683022E-002  0.2264148E+03  0.7818608E-02  0.1129690E+00
         21   -1    0    0  501  502  0.00000000000E+00  0.00000000000E+00  0.24879412596E+04  0.24879412596E+04  0.00000000000E+00 0.  1.
         21   -1    0    0  502  503 -0.00000000000E+00 -0.00000000000E+00 -0.26922563862E+02  0.26922563862E+02  0.00000000000E+00 0. -1.
          6    2    1    2  501    0 -0.31287116569E+02 -0.14577658940E+03  0.18573728861E+04  0.18711220381E+04  0.17039350190E+03 0.  0.
         24    2    3    3    0    0 -0.65703017971E+02 -0.13950754798E+03  0.17390905759E+04  0.17476856170E+04  0.78674912683E+02 0.  0.
         -6    2    1    2    0  503  0.31287116569E+02  0.14577658940E+03  0.60364580958E+03  0.64374178538E+03  0.16668990712E+03 0.  0.
        -24    2    5    5    0    0  0.60393970528E+02  0.16067035892E+03  0.53723610264E+03  0.56957054773E+03  0.79533533510E+02 0.  0.
          5    1    3    3  501    0  0.34415901402E+02 -0.62690414207E+01  0.11828231019E+03  0.12343642110E+03  0.47000000000E+01 0. -1.
        -11    1    4    4    0    0 -0.53768149148E+02 -0.97225628253E+02  0.81336083279E+03  0.82091393031E+03  0.00000000000E+00 0.  1.
         12    1    4    4    0    0 -0.11934868822E+02 -0.42281919729E+02  0.92572974315E+03  0.92677168665E+03  0.00000000000E+00 0. -1.
         -5    1    5    5    0  503 -0.29106853959E+02 -0.14893769520E+02  0.66409706937E+02  0.74171237642E+02  0.47000000000E+01 0.  1.
         13    1    6    6    0    0  0.11373388813E+02  0.13064657511E+02  0.10283940093E+02  0.20144445209E+02  0.00000000000E+00 0. -1.
        -14    1    6    6    0    0  0.49020581715E+02  0.14760570141E+03  0.52695216255E+03  0.54942610252E+03  0.00000000000E+00 0.  1.
</event>
<event>
12    1  0.1683022E-002  0.2014953E+03  0.7818608E-02  0.1149020E+00
         21   -1    0    0  501  502  0.00000000000E+00  0.00000000000E+00  0.68039440804E+03  0.68039440804E+03  0.00000000000E+00 0. -1.
         21   -1    0    0  502  503 -0.00000000000E+00 -0.00000000000E+00 -0.72332313672E+02  0.72332313672E+02  0.00000000000E+00 0. -1.
          6    2    1    2  501    0  0.88766043214E+02  0.50719293313E+02  0.14038262592E+03  0.24348762465E+03  0.17066658886E+03 0.  0.
         24    2    3    3    0    0  0.10527447502E+03 -0.11323959984E+01  0.58565308849E+02  0.14511440991E+03  0.80896842646E+02 0.  0.
         -6    2    1    2    0  503 -0.88766043214E+02 -0.50719293313E+02  0.46767946844E+03  0.50923909706E+03  0.17363327916E+03 0.  0.
        -24    2    5    5    0    0 -0.79847180389E+02 -0.99763469421E+02  0.31457718416E+03  0.34815751283E+03  0.76983939251E+02 0.  0.
          5    1    3    3  501    0 -0.16508431809E+02  0.51851689311E+02  0.81817317072E+02  0.98373214739E+02  0.47000000000E+01 0. -1.
        -13    1    4    4    0    0  0.60372554928E+01  0.66090752929E+01  0.43536873141E+02  0.44447583208E+02  0.00000000000E+00 0.  1.
         14    1    4    4    0    0  0.99237219531E+02 -0.77414712914E+01  0.15028435708E+02  0.10066682670E+03  0.00000000000E+00 0. -1.
         -5    1    5    5    0  503 -0.89188628251E+01  0.49044176108E+02  0.15310228429E+03  0.16108158423E+03  0.47000000000E+01 0.  1.
         13    1    6    6    0    0 -0.52327518058E+02 -0.15551225539E+02  0.17044839743E+03  0.17897671901E+03  0.00000000000E+00 0. -1.
        -14    1    6    6    0    0 -0.27519662332E+02 -0.84212243882E+02  0.14412878673E+03  0.16918079382E+03  0.00000000000E+00 0.  1.
</event>
<event>
12    1  0.1683022E-002  0.1905889E+03  0.7818608E-02  0.1158759E+00
         21   -1    0    0  501  502  0.00000000000E+00  0.00000000000E+00  0.92491098814E+03  0.92491098814E+03  0.00000000000E+00 0. -1.
         21   -1    0    0  502  503 -0.00000000000E+00 -0.00000000000E+00 -0.53977565813E+02  0.53977565813E+02  0.00000000000E+00 0. -1.
          6    2    1    2  501    0 -0.66897515856E+02 -0.37088451987E+02  0.70033889867E+03  0.72580900507E+03  0.17456605613E+03 0.  0.
         24    2    3    3    0    0 -0.10113890385E+03 -0.62559713635E+02  0.60084863238E+03  0.61745006032E+03  0.77991681047E+02 0.  0.
         -6    2    1    2    0  503  0.66897515856E+02  0.37088451987E+02  0.17059452366E+03  0.25307954888E+03  0.17057530789E+03 0.  0.
        -24    2    5    5    0    0  0.21585255199E+02 -0.37243625274E+02  0.58681893334E+02  0.11121699039E+03  0.84099009986E+02 0.  0.
          5    1    3    3  501    0  0.34241387991E+02  0.25471261648E+02  0.99490266286E+02  0.10835894475E+03  0.47000000000E+01 0. -1.
        -11    1    4    4    0    0 -0.69766381172E+00  0.15180373508E+02  0.62171923351E+02  0.64002175961E+02  0.00000000000E+00 0.  1.
         12    1    4    4    0    0 -0.10044124004E+03 -0.77740087143E+02  0.53867670903E+03  0.55344788436E+03  0.00000000000E+00 0. -1.
         -5    1    5    5    0  503  0.45312260657E+02  0.74332077262E+02  0.11191263032E+03  0.14186255849E+03  0.47000000000E+01 0.  1.
         13    1    6    6    0    0  0.17708752768E+02  0.24990545618E+01 -0.17614959030E+02  0.25102429761E+02  0.00000000000E+00 0. -1.
        -14    1    6    6    0    0  0.38765024315E+01 -0.39742679836E+02  0.76296852364E+02  0.86114560629E+02  0.00000000000E+00 0.  1.
</event>
<event>
12    1  0.1683022E-002  0.1801197E+03  0.7818608E-02  0.1168439E+00
         21   -1    0    0  503  502  0.00000000000E+00  0.00000000000E+00  0.11347306332E+03  0.11347306332E+03  0.00000000000E+00 0.  1.
         21   -1    0    0  501  503 -0.00000000000E+00 -0.00000000000E+00 -0.28132229604E+03  0.28132229604E+03  0.00000000000E+00 0.  1.
          6    2    1    2  501    0  0.21985977240E+02 -0.24789992643E+02 -0.78367021011E+02  0.19642933639E+03  0.17704566439E+03 0.  0.
         24    2    3    3    0    0 -0.19812676343E+02  0.48119728208E+02 -0.47150286995E+02  0.10665445505E+03  0.80274359744E+02 0.  0.
         -6    2    1    2    0  502 -0.21985977240E+02  0.24789992643E+02 -0.89482211714E+02  0.19836602298E+03  0.17390826872E+03 0.  0.
        -24    2    5    5    0    0 -0.69969567389E+02 -0.57299960371E+01 -0.19060308348E+02  0.10772812193E+03  0.79457407995E+02 0.  0.
          5    1    3    3  501    0  0.41798653583E+02 -0.72909720851E+02 -0.31216734016E+02  0.89774881334E+02  0.47000000000E+01 0. -1.
        -13    1    4    4    0    0  0.22347738613E+02 -0.58678410952E+01 -0.26396201679E+02  0.35080086137E+02  0.00000000000E+00 0.  1.
         14    1    4    4    0    0 -0.42160414956E+02  0.53987569303E+02 -0.20754085315E+02  0.71574368917E+02  0.00000000000E+00 0. -1.
         -5    1    5    5    0  502  0.47983590148E+02  0.30519988680E+02 -0.70421903365E+02  0.90637901047E+02  0.47000000000E+01 0.  1.
         11    1    6    6    0    0 -0.29576435223E+02 -0.40789972067E+02 -0.20063508783E+02  0.54232201933E+02  0.00000000000E+00 0. -1.
        -12    1    6    6    0    0 -0.40393132165E+02  0.35059976030E+02  0.10032004344E+01  0.53495919998E+02  0.00000000000E+00 0.  1.
</event>
<event>
12    1  0.1683022E-002  0.1961036E+03  0.7818608E-02  0.1153597E+00
         21   -1    0    0  503  502  0.00000000000E+00  0.00000000000E+00  0.24246583601E+03  0.24246583601E+03  0.00000000000E+00 0. -1.
         21   -1    0    0  501  503 -0.00000000000E+00 -0.00000000000E+00 -0.15957287683E+03  0.15957287683E+03  0.00000000000E+00 0.  1.
          6    2    1    2  501    0 -0.21965490754E+02  0.79532943935E+02  0.68899803801E+02  0.20785522568E+03  0.17790064622E+03 0.  0.
         24    2    3    3    0    0 -0.52914526539E+02  0.72014523992E+01  0.82603300536E+02  0.12785795506E+03  0.81685637523E+02 0.  0.
         -6    2    1    2    0  502  0.21965490754E+02 -0.79532943935E+02  0.13993155382E+02  0.19418348716E+03  0.17522398903E+03 0.  0.
        -24    2    5    5    0    0 -0.19068098248E+02 -0.10842872530E+03 -0.15116158002E+02  0.13597555185E+03  0.78361161468E+02 0.  0.
          5    1    3    3  501    0  0.30949035785E+02  0.72331491536E+02 -0.13703496735E+02  0.79997270620E+02  0.47000000000E+01 0. -1.
        -13    1    4    4    0    0 -0.14856150167E+02  0.42628271460E+02  0.32265994348E+02  0.55488459311E+02  0.00000000000E+00 0.  1.
         14    1    4    4    0    0 -0.38058376372E+02 -0.35426819061E+02  0.50337306187E+02  0.72369495750E+02  0.00000000000E+00 0. -1.
         -5    1    5    5    0  502  0.41033589002E+02  0.28895781365E+02  0.29109313384E+02  0.58207935307E+02  0.47000000000E+01 0.  1.
         11    1    6    6    0    0 -0.13500598770E+02 -0.68309611802E+02  0.29583428373E+02  0.75654798037E+02  0.00000000000E+00 0. -1.
        -12    1    6    6    0    0 -0.55674994779E+01 -0.40119113498E+02 -0.44699586375E+02  0.60320753811E+02  0.00000000000E+00 0.  1.
</event>
<event>
12    1  0.1683022E-002  0.2091471E+03  0.7818608E-02  0.1142992E+00
         21   -1    0    0  501  502  0.00000000000E+00  0.00000000000E+00  0.31001368342E+02  0.31001368342E+02  0.00000000000E+00 0.  1.
         21   -1    0    0  502  503 -0.00000000000E+00 -0.00000000000E+00 -0.14296831326E+04  0.14296831326E+04  0.00000000000E+00 0. -1.
          6    2    1    2  501    0 -0.11252750958E+03  0.16176507516E+02 -0.56555273636E+03  0.60170459503E+03  0.17109763955E+03 0.  0.
         24    2    3    3    0    0 -0.93631273791E+02  0.32648680501E+02 -0.21873269612E+03  0.25394802712E+03  0.82540028802E+02 0.  0.
         -6    2    1    2    0  503  0.11252750958E+03 -0.16176507516E+02 -0.83312902789E+03  0.85897990591E+03  0.17555165005E+03 0.  0.
        -24    2    5    5    0    0  0.64806873303E+02  0.52722496357E+02 -0.34824596254E+03  0.36688437766E+03  0.79682518132E+02 0.  0.
          5    1    3    3  501    0 -0.18896235793E+02 -0.16472172985E+02 -0.34682004025E+03  0.34775656791E+03  0.47000000000E+01 0. -1.
        -11    1    4    4    0    0 -0.33054628110E+02 -0.13453661437E+02 -0.19500581308E+02  0.40667949504E+02  0.00000000000E+00 0.  1.
         12    1    4    4    0    0 -0.60576645681E+02  0.46102341938E+02 -0.19923211481E+03  0.21328007761E+03  0.00000000000E+00 0. -1.
         -5    1    5    5    0  503  0.47720636282E+02 -0.68899003873E+02 -0.48488306535E+03  0.49209552825E+03  0.47000000000E+01 0.  1.
         11    1    6    6    0    0  0.55134888742E+02  0.67873518534E+02 -0.32952849838E+03  0.34093357376E+03  0.00000000000E+00 0. -1.
        -12    1    6    6    0    0  0.96719845608E+01 -0.15151022177E+02 -0.18717464169E+02  0.25950803904E+02  0.00000000000E+00 0.  1.
</event>
<event>
12    1  0.1683022E-002  0.2131416E+03  0.7818608E-02  0.1139198E+00
         21   -1    0    0  501  502  0.00000000000E+00  0.00000000000E+00  0.20767480881E+03  0.20767480881E+03  0.00000000000E+00 0. -1.
         21   -1    0    0  502  503 -0.00000000000E+00 -0.00000000000E+00 -0.22335159663E+03  0.22335159663E+03  0.00000000000E+00 0.  1.
          6    2    1    2  501    0 -0.12541702788E+03  0.10391483981E+02  0.24736022376E+02  0.21457219109E+03  0.17202308149E+03 0.  0.
         24    2    3    3    0    0 -0.13344385372E+03  0.43381397627E+02  0.55392080411E+02  0.16858688659E+03  0.75259869792E+02 0.  0.
         -6    2    1    2    0  503  0.12541702788E+03 -0.10391483981E+02 -0.40412810195E+02  0.21645421435E+03  0.17141125360E+03 0.  0.
        -24    2    5    5    0    0  0.11903132013E+03 -0.65207155460E+02 -0.10654176085E+02  0.15357972503E+03  0.71082994990E+02 0.  0.
          5    1    3    3  501    0  0.80268258461E+01 -0.32989913646E+02 -0.30656058034E+02  0.45985304498E+02  0.47000000000E+01 0. -1.
        -11    1    4    4    0    0 -0.63721872058E+02  0.53769879347E+02  0.82487364312E+01  0.83783760695E+02  0.00000000000E+00 0.  1.
         12    1    4    4    0    0 -0.69721981667E+02 -0.10388481720E+02  0.47143343979E+02  0.84803125895E+02  0.00000000000E+00 0. -1.
         -5    1    5    5    0  503  0.63857077518E+01  0.54815671479E+02 -0.29758634111E+02  0.62874489321E+02  0.47000000000E+01 0.  1.
         13    1    6    6    0    0 -0.13815540419E+01 -0.21689980894E+02  0.99395740802E+01  0.23898935032E+02  0.00000000000E+00 0. -1.
        -14    1    6    6    0    0  0.12041287417E+03 -0.43517174566E+02 -0.20593750165E+02  0.12968078999E+03  0.00000000000E+00 0.  1.
</event>
<event>
12    1  0.1683022E-002  0.2087640E+03  0.7818608E-02  0.1142569E+00
         21   -1    0    0  503  502  0.00000000000E+00  0.00000000000E+00  0.28747893830E+03  0.28747893830E+03  0.00000000000E+00 0.  1.
         21   -1    0    0  501  503 -0.00000000000E+00 -0.00000000000E+00 -0.15156834897E+03  0.15156834897E+03  0.00000000000E+00 0. -1.
          6    2    1    2  501    0  0.11632053884E+03  0.19871811060E+02  0.71541038056E+02  0.22058483143E+03  0.17208774244E+03 0.  0.
         24    2    3    3    0    0  0.46950441568E+01 -0.33303477874E+02  0.26541620789E+02  0.88922764107E+02  0.77920698561E+02 0.  0.
         -6    2    1    2    0  502 -0.11632053884E+03 -0.19871811060E+02  0.64369551274E+02  0.21846245584E+03  0.17221222038E+03 0.  0.
        -24    2    5    5    0    0 -0.10140932999E+03  0.46099610658E+02  0.24207157437E+02  0.13966092976E+03  0.80685578132E+02 0.  0.
          5    1    3    3  501    0  0.11162549469E+03  0.53175288934E+02  0.44999417268E+02  0.13166206732E+03  0.47000000000E+01 0. -1.
        -11    1    4    4    0    0  0.23951722250E+02 -0.51304478444E+02  0.91815831353E+01  0.57359706903E+02  0.00000000000E+00 0.  1.
         12    1    4    4    0    0 -0.19256678093E+02  0.18001000570E+02  0.17360037654E+02  0.31563057204E+02  0.00000000000E+00 0. -1.
         -5    1    5    5    0  502 -0.14911208849E+02 -0.65971421718E+02  0.40162393837E+02  0.78801526074E+02  0.47000000000E+01 0.  1.
         13    1    6    6    0    0 -0.46610683106E+02 -0.89146448844E+00 -0.24414999347E+02  0.52625494598E+02  0.00000000000E+00 0. -1.
        -14    1    6    6    0    0 -0.54798646887E+02  0.46991075147E+02  0.48622156783E+02  0.87035435165E+02  0.00000000000E+00 0.  1.
</event>
<event>
12    1  0.1683022E-002  0.1826495E+03  0.7818608E-02  0.1165299E+00
         21   -1    0    0  501  502  0.00000000000E+00  0.00000000000E+00  0.64924952036E+02  0.64924952036E+02  0.00000000000E+00 0.  1.
         21   -1    0    0  502  503 -0.00000000000E+00 -0.00000000000E+00 -0.58385497780E+03  0.58385497780E+03  0.00000000000E+00 0.  1.
          6    2    1    2  501    0  0.47183395127E+02 -0.38592448792E+02 -0.14688620976E+03  0.23438513520E+03  0.17217776599E+03 0.  0.
         24    2    3    3    0    0  0.33725729639E+02 -0.75902950924E+02 -0.30475717097E+02  0.11131330604E+03  0.67551461640E+02 0.  0.
         -6    2    1    2    0  503 -0.47183395127E+02  0.38592448792E+02 -0.37204381601E+03  0.41439479464E+03  0.17201975154E+03 0.  0.
        -24    2    5    5    0    0 -0.94247322606E+02  0.35177460339E+02 -0.31639722704E+03  0.34128317943E+03  0.79037913366E+02 0.  0.
          5    1    3    3  501    0  0.13457665489E+02  0.37310502131E+02 -0.11641049267E+03  0.12307182916E+03  0.47000000000E+01 0. -1.
        -11    1    4    4    0    0  0.40989019299E+02 -0.85268150890E+02 -0.30683778980E+02  0.99459798672E+02  0.00000000000E+00 0.  1.
         12    1    4    4    0    0 -0.72632896603E+01  0.93651999667E+01  0.20806188304E+00  0.11853507365E+02  0.00000000000E+00 0. -1.
         -5    1    5    5    0  503  0.47063927479E+02  0.34149884533E+01 -0.55646588970E+02  0.73111615219E+02  0.47000000000E+01 0.  1.
         11    1    6    6    0    0 -0.14622313232E+02 -0.16530864603E+02 -0.19076497463E+02  0.29171806325E+02  0.00000000000E+00 0. -1.
        -12    1    6    6    0    0 -0.79625009374E+02  0.51708324942E+02 -0.29732072957E+03  0.31211137310E+03  0.00000000000E+00 0.  1.
</event>
<event>
12    1  0.1683022E-002  0.1771960E+03  0.7818608E-02  0.1170641E+00
         21   -1    0    0  501  502  0.00000000000E+00  0.00000000000E+00  0.12856496244E+04  0.12856496244E+04  0.00000000000E+00 0. -1.
         21   -1    0    0  502  503 -0.00000000000E+00 -0.00000000000E+00 -0.39269893311E+02  0.39269893311E+02  0.00000000000E+00 0. -1.
          6    2    1    2  501    0 -0.24908248976E+02 -0.21404709842E+02  0.10316883416E+04  0.10467947596E+04  0.17412596633E+03 0.  0.
         24    2    3    3    0    0  0.69675566374E+01 -0.85068361796E+01  0.21052519781E+03  0.22489852480E+03  0.78342673158E+02 0.  0.
         -6    2    1    2    0  503  0.24908248976E+02  0.21404709842E+02  0.21469138954E+03  0.27812475812E+03  0.17373084316E+03 0.  0.
        -24    2    5    5    0    0 -0.27132705531E+02 -0.31437208911E+02  0.16735771078E+03  0.19001632227E+03  0.79831807929E+02 0.  0.
          5    1    3    3  501    0 -0.31875805613E+02 -0.12897873663E+02  0.82116314375E+03  0.82189623480E+03  0.47000000000E+01 0. -1.
        -13    1    4    4    0    0  0.25095145573E+02 -0.83030083687E+01  0.20388596316E+03  0.20559229620E+03  0.00000000000E+00 0.  1.
         14    1    4    4    0    0 -0.18127588935E+02 -0.20382781092E+00  0.66392346486E+01  0.19306228609E+02  0.00000000000E+00 0. -1.
         -5    1    5    5    0  503  0.52040954506E+02  0.52841918753E+02  0.47333678763E+02  0.88108435854E+02  0.47000000000E+01 0.  1.
         11    1    6    6    0    0  0.17839612746E+02 -0.95707082372E+01  0.11810452950E+03  0.11982708428E+03  0.00000000000E+00 0. -1.
        -12    1    6    6    0    0 -0.44972318277E+02 -0.21866500674E+02  0.49253181281E+02  0.70189237987E+02  0.00000000000E+00 0.  1.
</event>
<event>
12    1  0.1683022E-002  0.1769477E+03  0.7818608E-02  0.1171795E+00
         21   -1    0    0  501  502  0.00000000000E+00  0.00000000000E+00  0.27301575545E+02  0.27301575545E+02  0.00000000000E+00 0. -1.
         21   -1    0    0  502  503 -0.00000000000E+00 -0.00000000000E+00 -0.11690593027E+04  0.11690593027E+04  0.00000000000E+00 0. -1.
          6    2    1    2  501    0 -0.15466811871E+02  0.48624794135E+00 -0.44329161760E+03  0.47582954901E+03  0.17224065365E+03 0.  0.
         24    2    3    3    0    0 -0.53147067202E+02  0.66907805268E+01 -0.42026789101E+03  0.43099117423E+03  0.79113303299E+02 0.  0.
         -6    2    1    2    0  503  0.15466811871E+02 -0.48624794135E+00 -0.69846610960E+03  0.72053132928E+03  0.17626976913E+03 0.  0.
        -24    2    5    5    0    0  0.43792608955E+01  0.67671294769E+02 -0.35068487303E+03  0.36592977411E+03  0.79537018741E+02 0.  0.
          5    1    3    3  501    0  0.37680255331E+02 -0.62045325855E+01 -0.23023726592E+02  0.44838374777E+02  0.47000000000E+01 0. -1.
        -13    1    4    4    0    0 -0.58265323918E+02  0.26856182920E+02 -0.20708552261E+03  0.21679602443E+03  0.00000000000E+00 0.  1.
         14    1    4    4    0    0  0.51182567152E+01 -0.20165402393E+02 -0.21318236839E+03  0.21419514980E+03  0.00000000000E+00 0. -1.
         -5    1    5    5    0  503  0.11087550976E+02 -0.68157542710E+02 -0.34778123658E+03  0.35460155517E+03  0.47000000000E+01 0.  1.
         11    1    6    6    0    0  0.25521044772E+02  0.96313495585E+01 -0.21647758909E+03  0.21818944338E+03  0.00000000000E+00 0. -1.
        -12    1    6    6    0    0 -0.21141783876E+02  0.58039945210E+02 -0.13420728393E+03  0.14774033074E+03  0.00000000000E+00 0.  1.
</event>
<event>
12    1  0.1683022E-002  0.2027783E+03  0.7818608E-02  0.1147720E+00
         21   -1    0    0  501  502  0.00000000000E+00  0.00000000000E+00  0.39321688043E+03  0.39321688043E+03  0.00000000000E+00 0.  1.
         21   -1    0    0  502  503 -0.00000000000E+00 -0.00000000000E+00 -0.12004514074E+03  0.12004514074E+03  0.00000000000E+00 0.  1.
          6    2    1    2  501    0  0.14198224022E+02  0.10623073561E+03  0.23136547976E+03  0.30765083989E+03  0.17214091700E+03 0.  0.
         24    2    3    3    0    0  0.49846083935E+02  0.12255000672E+03  0.21604534071E+03  0.26529655810E+03  0.78762543546E+02 0.  0.
         -6    2    1    2    0  503 -0.14198224022E+02 -0.10623073561E+03  0.41806259921E+02  0.20561118127E+03  0.17041606656E+03 0.  0.
        -24    2    5    5    0    0 -0.69441867347E+02 -0.41883955586E+02  0.79378701381E+01  0.11416980085E+03  0.79970588137E+02 0.  0.
          5    1    3    3  501    0 -0.35647859913E+02 -0.16319271104E+02  0.15320139055E+02  0.42354281795E+02  0.47000000000E+01 0. -1.
        -13    1    4    4    0    0  0.40395867465E+02  0.10884606957E+02  0.62295980955E+02  0.75040589150E+02  0.00000000000E+00 0.  1.
         14    1    4    4    0    0  0.94502164703E+01  0.11166539976E+03  0.15374935975E+03  0.19025596895E+03  0.00000000000E+00 0. -1.
         -5    1    5    5    0  503  0.55243643325E+02 -0.64346780028E+02  0.33868389783E+02  0.91441380426E+02  0.47000000000E+01 0.  1.
         13    1    6    6    0    0 -0.34796353794E+02 -0.55952110766E+01  0.41014126455E+02  0.54076345967E+02  0.00000000000E+00 0. -1.
        -14    1    6    6    0    0 -0.34645513553E+02 -0.36288744509E+02 -0.33076256317E+02  0.60093454879E+02  0.00000000000E+00 0.  1.
</event>
<event>
12    1  0.1683022E-002  0.2417233E+03  0.7818608E-02  0.1118759E+00
         21   -1    0    0  501  502  0.00000000000E+00  0.00000000000E+00  0.17884948142E+03  0.17884948142E+03  0.00000000000E+00 0. -1.
         21   -1    0    0  502  503 -0.00000000000E+00 -0.00000000000E+00 -0.37621742129E+03  0.37621742129E+03  0.00000000000E+00 0. -1.
          6    2    1    2  501    0 -0.42596208284E+02  0.16503509376E+03  0.30203704150E+01  0.24108339745E+03  0.17047305582E+03 0.  0.
         24    2    3    3    0    0 -0.14540724821E+02  0.55947072500E+02 -0.58854992862E+02  0.11248340867E+03  0.76466328815E+02 0.  0.
         -6    2    1    2    0  503  0.42596208284E+02 -0.16503509376E+03 -0.20038831028E+03  0.31398350525E+03  0.17140346420E+03 0.  0.
        -24    2    5    5    0    0  0.52139525497E+01 -0.17037021929E+03 -0.20258067194E+03  0.27586798272E+03  0.77530757282E+02 0.  0.
          5    1    3    3  501    0 -0.28055483463E+02  0.10908802126E+03  0.61875363277E+02  0.12859998878E+03  0.47000000000E+01 0. -1.
        -13    1    4    4    0    0  0.19287066043E+02 -0.10010719884E+02 -0.13214225942E+02  0.25432679693E+02  0.00000000000E+00 0.  1.
         14    1    4    4    0    0 -0.33827790864E+02  0.65957792384E+02 -0.45640766920E+02  0.87050728980E+02  0.00000000000E+00 0. -1.
         -5    1    5    5    0  503  0.37382255734E+02  0.53351255338E+01  0.21923616538E+01  0.38115522531E+02  0.47000000000E+01 0.  1.
         13    1    6    6    0    0  0.15531290154E+02 -0.13549544695E+03 -0.10620231005E+03  0.17285591624E+03  0.00000000000E+00 0. -1.
        -14    1    6    6    0    0 -0.10317337604E+02 -0.34874772338E+02 -0.96378361882E+02  0.10301206648E+03  0.00000000000E+00 0.  1.
</event>
<event>
12    1  0.1683022E-002  0.2207183E+03  0.7818608E-02  0.1133563E+00
         21   -1    0    0  501  502  0.00000000000E+00  0.00000000000E+00  0.35223967706E+03  0.35223967706E+03  0.00000000000E+00 0.  1.
         21   -1    0    0  502  503 -0.00000000000E+00 -0.00000000000E+00 -0.15511450915E+03  0.15511450915E+03  0.00000000000E+00 0. -1.
          6    2    1    2  501    0  0.12671462991E+03 -0.55032921718E+02  0.18406995210E+03  0.28739925258E+03  0.17213762869E+03 0.  0.
         24    2    3    3    0    0  0.11837263986E+03  0.15027140780E+02  0.91012531493E+02  0.17052421382E+03  0.80977341172E+02 0.  0.
         -6    2    1    2    0  503 -0.12671462991E+03  0.55032921718E+02  0.13055215815E+02  0.21995493364E+03  0.17065905855E+03 0.  0.
        -24    2    5    5    0    0 -0.12807620869E+03  0.15914957604E+02 -0.48393651407E+02  0.14694724709E+03  0.50938657435E+02 0.  0.
          5    1    3    3  501    0  0.83419900564E+01 -0.70060062498E+02  0.93057420604E+02  0.11687503876E+03  0.47000000000E+01 0. -1.
        -11    1    4    4    0    0  0.10066264191E+03 -0.91317908160E+00  0.30027592506E+02  0.10504978669E+03  0.00000000000E+00 0.  1.
         12    1    4    4    0    0  0.17709997948E+02  0.15940319862E+02  0.60984938987E+02  0.65474427129E+02  0.00000000000E+00 0. -1.
         -5    1    5    5    0  503  0.13615787783E+01  0.39117964114E+02  0.61448867221E+02  0.73007686554E+02  0.47000000000E+01 0.  1.
         13    1    6    6    0    0 -0.10882895642E+03 -0.53666024361E+01 -0.30571591288E+02  0.11316874291E+03  0.00000000000E+00 0. -1.
        -14    1    6    6    0    0 -0.19247252273E+02  0.21281560040E+02 -0.17822060119E+02  0.33778504181E+02  0.00000000000E+00 0.  1.
</event>
<event>
12    1  0.1683022E-002  0.1910339E+03  0.7818608E-02  0.1157566E+00
         21   -1    0    0  503  502  0.00000000000E+00  0.00000000000E+00  0.63467765619E+03  0.63467765619E+03  0.00000000000E+00 0. -1.
         21   -1    0    0  501  503 -0.00000000000E+00 -0.00000000000E+00 -0.59270840856E+02  0.59270840856E+02  0.00000000000E+00 0.  1.
          6    2    1    2  501    0  0.17711284587E+02  0.80733747087E+02  0.22706399033E+03  0.29673561253E+03  0.17222758350E+03 0.  0.
         24    2    3    3    0    0  0.15591705665E+02  0.23530390610E+02  0.19517053736E+02  0.81388131704E+02  0.73799268478E+02 0.  0.
         -6    2    1    2    0  502 -0.17711284587E+02 -0.80733747087E+02  0.34834282500E+03  0.39721288452E+03  0.17205732875E+03 0.  0.
        -24    2    5    5    0    0 -0.76424106542E+02 -0.56990938924E+02  0.26213878056E+03  0.29014214305E+03  0.79856820099E+02 0.  0.
          5    1    3    3  501    0  0.21195789218E+01  0.57203356478E+02  0.20754693660E+03  0.21534748083E+03  0.47000000000E+01 0. -1.
        -11    1    4    4    0    0  0.22400580639E+02 -0.22493656272E+02  0.24798886135E+01  0.31841803230E+02  0.00000000000E+00 0.  1.
         12    1    4    4    0    0 -0.68088749733E+01  0.46024046882E+02  0.17037165123E+02  0.49546328473E+02  0.00000000000E+00 0. -1.
         -5    1    5    5    0  502  0.58712821955E+02 -0.23742808164E+02  0.86204044438E+02  0.10707074147E+03  0.47000000000E+01 0.  1.
         13    1    6    6    0    0 -0.32135747388E+02 -0.31242152573E+02  0.21788004558E+03  0.22244211072E+03  0.00000000000E+00 0. -1.
        -14    1    6    6    0    0 -0.44288359154E+02 -0.25748786351E+02  0.44258734978E+02  0.67700032326E+02  0.00000000000E+00 0.  1.
</event>
<event>
12    1  0.1683022E-002  0.2034356E+03  0.7818608E-02  0.1147003E+00
         21   -1    0    0  503  502  0.00000000000E+00  0.00000000000E+00  0.28733661378E+03  0.28733661378E+03  0.00000000000E+00 0. -1.
         21   -1    0    0  501  503 -0.00000000000E+00 -0.00000000000E+00 -0.14381794937E+03  0.14381794937E+03  0.00000000000E+00 0. -1.
          6    2    1    2  501    0 -0.88001462750E+02 -0.60940612262E+02  0.62998222665E+02  0.21236340024E+03  0.17225394635E+03 0.  0.
         24    2    3    3    0    0 -0.28223954839E+02 -0.98855946876E+02  0.60514171837E+02  0.14137619322E+03  0.75869448120E+02 0.  0.
         -6    2    1    2    0  502  0.88001462750E+02  0.60940612262E+02  0.80520441743E+02  0.21879116292E+03  0.17299715536E+03 0.  0.
        -24    2    5    5    0    0  0.66614578551E+02  0.78901619243E+01  0.11323430167E+03  0.15273031424E+03  0.77490548340E+02 0.  0.
          5    1    3    3  501    0 -0.59777507911E+02  0.37915334614E+02  0.24840508280E+01  0.70987207013E+02  0.47000000000E+01 0. -1.
        -11    1    4    4    0    0  0.10698054836E+02 -0.55459140204E+01  0.35125240962E+02  0.37134728924E+02  0.00000000000E+00 0.  1.
         12    1    4    4    0    0 -0.38922009675E+02 -0.93310032855E+02  0.25388930875E+02  0.10424146430E+03  0.00000000000E+00 0. -1.
         -5    1    5    5    0  502  0.21386884200E+02  0.53050450338E+02 -0.32713859926E+02  0.66060848678E+02  0.47000000000E+01 0.  1.
         13    1    6    6    0    0  0.34430320884E+02 -0.33089366021E+02  0.71451717646E+02  0.85940101783E+02  0.00000000000E+00 0. -1.
        -14    1    6    6    0    0  0.32184257666E+02  0.40979527945E+02  0.41782584023E+02  0.66790212455E+02  0.00000000000E+00 0.  1.
</event>
<event>
12    1  0.1683022E-002  0.1857134E+03  0.7818608E-02  0.1162619E+00
         21   -1    0    0  503  502  0.00000000000E+00  0.00000000000E+00  0.35351399470E+02  0.35351399470E+02  0.00000000000E+00 0. -1.
         21   -1    0    0  501  503 -0.00000000000E+00 -0.00000000000E+00 -0.13911047894E+04  0.13911047894E+04  0.00000000000E+00 0. -1.
          6    2    1    2  501    0 -0.30867428625E+02 -0.62470285663E+02 -0.10714007044E+04  0.10873770905E+04  0.17214567364E+03 0.  0.
         24    2    3    3    0    0  0.44834623196E+02 -0.11894610649E+02 -0.62324570900E+03  0.63004385379E+03  0.79802372870E+02 0.  0.
         -6    2    1    2    0  502  0.30867428625E+02  0.62470285663E+02 -0.28435268555E+03  0.33907909832E+03  0.17106387813E+03 0.  0.
        -24    2    5    5    0    0  0.54502852602E+02  0.98925411851E+02 -0.18589711732E+03  0.23136095497E+03  0.78824838762E+02 0.  0.
          5    1    3    3  501    0 -0.75702051822E+02 -0.50575675014E+02 -0.44815499537E+03  0.45733323674E+03  0.47000000000E+01 0. -1.
        -13    1    4    4    0    0  0.59065254180E+01  0.31705791216E+02 -0.16866198041E+03  0.17171781467E+03  0.00000000000E+00 0.  1.
         14    1    4    4    0    0  0.38928097778E+02 -0.43600401866E+02 -0.45458372859E+03  0.45832603912E+03  0.00000000000E+00 0. -1.
         -5    1    5    5    0  502 -0.23635423977E+02 -0.36455126188E+02 -0.98455568230E+02  0.10771814335E+03  0.47000000000E+01 0.  1.
         11    1    6    6    0    0 -0.13235533097E+02 -0.44216136996E+01 -0.15227117446E+02  0.20654178991E+02  0.00000000000E+00 0. -1.
        -12    1    6    6    0    0  0.67738385699E+02  0.10334702555E+03 -0.17066999987E+03  0.21070677598E+03  0.00000000000E+00 0.  1.
</event>
<event>
12    1  0.1683022E-002  0.2140415E+03  0.7818608E-02  0.1139300E+00
         21   -1    0    0  503  502  0.00000000000E+00  0.00000000000E+00  0.14683445756E+03  0.14683445756E+03  0.00000000000E+00 0. -1.
         21   -1    0    0  501  503 -0.00000000000E+00 -0.00000000000E+00 -0.31760774385E+03  0.31760774385E+03  0.00000000000E+00 0.  1.
          6    2    1    2  501    0  0.68438229618E+02  0.98701553817E+02 -0.13185495619E+03  0.25139510415E+03  0.17716653442E+03 0.  0.
         24    2    3    3    0    0  0.55333393472E+02 -0.27827223277E+01 -0.10875087053E+03  0.14638708631E+03  0.80826352280E+02 0.  0.
         -6    2    1    2    0  502 -0.68438229618E+02 -0.98701553817E+02 -0.38918330108E+02  0.21304709726E+03  0.17160606409E+03 0.  0.
        -24    2    5    5    0    0 -0.90737428782E+02 -0.10083697655E+03 -0.71523534038E+02  0.17320988304E+03  0.80527453948E+02 0.  0.
          5    1    3    3  501    0  0.13104836145E+02  0.10148427614E+03 -0.23104085660E+02  0.10500801783E+03  0.47000000000E+01 0. -1.
        -13    1    4    4    0    0  0.41489759733E+02  0.27843978425E+02 -0.99793381295E+02  0.11160379137E+03  0.00000000000E+00 0.  1.
         14    1    4    4    0    0  0.13843633739E+02 -0.30626700752E+02 -0.89574892305E+01  0.34783294947E+02  0.00000000000E+00 0. -1.
         -5    1    5    5    0  502  0.22299199164E+02  0.21354227295E+01  0.32605203931E+02  0.39837214222E+02  0.47000000000E+01 0.  1.
         11    1    6    6    0    0 -0.16312514921E+02 -0.60745122030E+02 -0.65970518626E+00  0.62900740889E+02  0.00000000000E+00 0. -1.
        -12    1    6    6    0    0 -0.74424913862E+02 -0.40091854517E+02 -0.70863828852E+02  0.11030914215E+03  0.00000000000E+00 0.  1.
</event>
<event>
12    1  0.1683022E-002  0.1853967E+03  0.7818608E-02  0.1162864E+00
         21   -1    0    0  503  502  0.00000000000E+00  0.00000000000E+00  0.78749762337E+03  0.78749762337E+03  0.00000000000E+00 0.  1.
         21   -1    0    0  501  503 -0.00000000000E+00 -0.00000000000E+00 -0.75229799872E+02  0.75229799872E+02  0.00000000000E+00 0. -1.
          6    2    1    2  501    0  0.66196964507E+02  0.94041577086E+01  0.76258702392E+02  0.20046777127E+03  0.17292039017E+03 0.  0.
         24    2    3    3    0    0  0.95569802004E+02  0.13185455228E+02  0.10147110385E+03  0.16129103096E+03  0.80068523571E+02 0.  0.
         -6    2    1    2    0  502 -0.66196964507E+02 -0.94041577086E+01  0.63600912110E+03  0.66225965197E+03  0.17207489128E+03 0.  0.
        -24    2    5    5    0    0 -0.99003192347E+02 -0.19318688063E+02  0.59463367366E+03  0.60832854639E+03  0.79369835000E+02 0.  0.
          5    1    3    3  501    0 -0.29372837497E+02 -0.37812975194E+01 -0.25212401462E+02  0.39176740307E+02  0.47000000000E+01 0. -1.
        -13    1    4    4    0    0  0.77173272882E+02 -0.17752480490E+02  0.36897224333E+02  0.87362862673E+02  0.00000000000E+00 0.  1.
         14    1    4    4    0    0  0.18396529122E+02  0.30937935718E+02  0.64573879521E+02  0.73928168289E+02  0.00000000000E+00 0. -1.
         -5    1    5    5    0  502  0.32806227840E+02  0.99145303545E+01  0.41375447446E+02  0.53931105575E+02  0.47000000000E+01 0.  1.
         11    1    6    6    0    0 -0.31777890616E+02 -0.43803327141E+02  0.19640618262E+03  0.20372519327E+03  0.00000000000E+00 0. -1.
        -12    1    6    6    0    0 -0.67225301731E+02  0.24484639078E+02  0.39822749104E+03  0.40460335312E+03  0.00000000000E+00 0.  1.
</event>
<event>
12    1  0.1683022E-002  0.2628652E+03  0.7818608E-02  0.1105518E+00
         21   -1    0    0  501  502  0.00000000000E+00  0.00000000000E+00  0.65820059615E+02  0.65820059615E+02  0.00000000000E+00 0. -1.
         21   -1    0    0  502  503 -0.00000000000E+00 -0.00000000000E+00 -0.10546316587E+04  0.10546316587E+04  0.00000000000E+00 0. -1.
          6    2    1    2  501    0 -0.36505167504E+02 -0.19538825482E+03 -0.54083694423E+03  0.60133409713E+03  0.17201423997E+03 0.  0.
         24    2    3    3    0    0 -0.90970789687E+01 -0.83584056597E+02 -0.41442275492E+03  0.43029603319E+03  0.79620380693E+02 0.  0.
         -6    2    1    2    0  503  0.36505167504E+02  0.19538825482E+03 -0.44797465489E+03  0.51911762122E+03  0.17115085703E+03 0.  0.
        -24    2    5    5    0    0  0.44973149112E+02  0.20712048430E+03 -0.45012185803E+03  0.50375362427E+03  0.78971816049E+02 0.  0.
          5    1    3    3  501    0 -0.27408088535E+02 -0.11180419822E+03 -0.12641418931E+03  0.17103806394E+03  0.47000000000E+01 0. -1.
        -13    1    4    4    0    0 -0.26144330315E+02 -0.17884021902E+02 -0.47138783464E+02  0.56792861818E+02  0.00000000000E+00 0.  1.
         14    1    4    4    0    0  0.17047251346E+02 -0.65700034696E+02 -0.36728397145E+03  0.37350317137E+03  0.00000000000E+00 0. -1.
         -5    1    5    5    0  503 -0.84679816082E+01 -0.11732229479E+02  0.21472031389E+01  0.15363996953E+02  0.47000000000E+01 0.  1.
         11    1    6    6    0    0  0.28405297472E+02  0.16072081547E+02 -0.90371979463E+02  0.96084688696E+02  0.00000000000E+00 0. -1.
        -12    1    6    6    0    0  0.16567851640E+02  0.19104840275E+03 -0.35974987857E+03  0.40766893557E+03  0.00000000000E+00 0.  1.
</event>
<event>
12    1  0.1683022E-002  0.2275370E+03  0.7818608E-02  0.1128482E+00
         21   -1    0    0  503  502  0.00000000000E+00  0.00000000000E+00  0.10891164740E+03  0.10891164740E+03  0.00000000000E+00 0.  1.
         21   -1    0    0  501  503 -0.00000000000E+00 -0.00000000000E+00 -0.47554494089E+03  0.47554494089E+03  0.00000000000E+00 0. -1.
          6    2    1    2  501    0  0.50174552511E+02  0.13931431135E+03 -0.19883814890E+03  0.30217491860E+03  0.17276315842E+03 0.  0.
         24    2    3    3    0    0  0.47539402185E+02  0.48829664572E+02 -0.24841616293E+02  0.10598292417E+03  0.77271879831E+02 0.  0.
         -6    2    1    2    0  502 -0.50174552511E+02 -0.13931431135E+03 -0.16779514459E+03  0.28228166969E+03  0.17205164174E+03 0.  0.
        -24    2    5    5    0    0  0.11609678104E+02 -0.14362680755E+03 -0.12830714794E+03  0.20867949135E+03  0.79504474250E+02 0.  0.
          5    1    3    3  501    0  0.26351503266E+01  0.90484646781E+02 -0.17399653261E+03  0.19619199444E+03  0.47000000000E+01 0. -1.
        -13    1    4    4    0    0  0.37232356954E+02  0.33591193332E+02 -0.52605510082E+02  0.72677069044E+02  0.00000000000E+00 0.  1.
         14    1    4    4    0    0  0.10307045231E+02  0.15238471239E+02  0.27763893789E+02  0.33305855123E+02  0.00000000000E+00 0. -1.
         -5    1    5    5    0  502 -0.61784230615E+02  0.43124961962E+01 -0.39487996657E+02  0.73602178338E+02  0.47000000000E+01 0.  1.
         13    1    6    6    0    0 -0.12064959329E+02 -0.81486386284E+02 -0.11402200400E+03  0.14066489181E+03  0.00000000000E+00 0. -1.
        -14    1    6    6    0    0  0.23674637432E+02 -0.62140421265E+02 -0.14285143937E+02  0.68014599534E+02  0.00000000000E+00 0.  1.
</event>
<event>
12    1  0.1683022E-002  0.1934099E+03  0.7818608E-02  0.1157967E+00
         21   -1    0    0  501  502  0.00000000000E+00  0.00000000000E+00  0.32674549839E+02  0.32674549839E+02  0.00000000000E+00 0.  1.
         21   -1    0    0  502  503 -0.00000000000E+00 -0.00000000000E+00 -0.11120155185E+04  0.11120155185E+04  0.00000000000E+00 0.  1.
          6    2    1    2  501    0 -0.51075501440E+02  0.70784961259E+02 -0.65299968515E+03  0.68104036648E+03  0.17259250964E+03 0.  0.
         24    2    3    3    0    0 -0.53252178570E+02  0.73795743916E+02 -0.22851607638E+03  0.25651448170E+03  0.72790629990E+02 0.  0.
         -6    2    1    2    0  503  0.51075501440E+02 -0.70784961259E+02 -0.42634128346E+03  0.46364970181E+03  0.15995292563E+03 0.  0.
        -24    2    5    5    0    0  0.68685435705E+01  0.46422167923E+01 -0.11876359910E+03  0.14385346007E+03  0.80748364909E+02 0.  0.
          5    1    3    3  501    0  0.21766771305E+01 -0.30107826573E+01 -0.42448360877E+03  0.42452588478E+03  0.47000000000E+01 0. -1.
        -13    1    4    4    0    0  0.14738725363E+02  0.27573186299E+02 -0.91844930882E+02  0.97020626450E+02  0.00000000000E+00 0.  1.
         14    1    4    4    0    0 -0.67990903934E+02  0.46222557617E+02 -0.13667114550E+03  0.15949385525E+03  0.00000000000E+00 0. -1.
         -5    1    5    5    0  503  0.44206957869E+02 -0.75427178051E+02 -0.30757768436E+03  0.31979624174E+03  0.47000000000E+01 0.  1.
         13    1    6    6    0    0 -0.13573240966E+02  0.13074673302E+02 -0.12022434376E+03  0.12169253381E+03  0.00000000000E+00 0. -1.
        -14    1    6    6    0    0  0.20441784536E+02 -0.84324565096E+01  0.14607446604E+01  0.22160926262E+02  0.00000000000E+00 0.  1.
</event>
<event>
12    1  0.1683022E-002  0.3316610E+03  0.7818608E-02  0.1070659E+00
         21   -1    0    0  503  502  0.00000000000E+00  0.00000000000E+00  0.32356352116E+03  0.32356352116E+03  0.00000000000E+00 0. -1.
         21   -1    0    0  501  503 -0.00000000000E+00 -0.00000000000E+00 -0.48239836007E+03  0.48239836007E+03  0.00000000000E+00 0.  1.
          6    2    1    2  501    0  0.21326984975E+03 -0.18656798454E+03 -0.30000725472E+03  0.44550568388E+03  0.16786697059E+03 0.  0.
         24    2    3    3    0    0  0.91573222522E+02 -0.99489189969E+02 -0.23409637835E+03  0.28192353581E+03  0.79975069137E+02 0.  0.
         -6    2    1    2    0  502 -0.21326984975E+03  0.18656798454E+03  0.14117241582E+03  0.36045619735E+03  0.17235828251E+03 0.  0.
        -24    2    5    5    0    0 -0.13242575703E+03  0.10421332182E+03  0.16147564137E+02  0.19024644047E+03  0.86809945935E+02 0.  0.
          5    1    3    3  501    0  0.12169662723E+03 -0.87078794574E+02 -0.65910876374E+02  0.16358214807E+03  0.47000000000E+01 0. -1.
        -11    1    4    4    0    0  0.10477926878E+03 -0.87893976974E+02 -0.18714956280E+03  0.23179517944E+03  0.00000000000E+00 0.  1.
         12    1    4    4    0    0 -0.13206046260E+02 -0.11595212994E+02 -0.46946815552E+02  0.50128356373E+02  0.00000000000E+00 0. -1.
         -5    1    5    5    0  502 -0.80844092722E+02  0.82354662721E+02  0.12502485168E+03  0.17020975688E+03  0.47000000000E+01 0.  1.
         13    1    6    6    0    0 -0.97031871148E+02  0.11664532868E+03  0.17328562890E+02  0.15271409828E+03  0.00000000000E+00 0. -1.
        -14    1    6    6    0    0 -0.35393885877E+02 -0.12432006857E+02 -0.11809987538E+01  0.37532342187E+02  0.00000000000E+00 0.  1.
</event>
<event>
12    1  0.1683022E-002  0.2561782E+03  0.7818608E-02  0.1109701E+00
         21   -1    0    0  503  502  0.00000000000E+00  0.00000000000E+00  0.62826696508E+03  0.62826696508E+03  0.00000000000E+00 0.  1.
         21   -1    0    0  501  503 -0.00000000000E+00 -0.00000000000E+00 -0.10520632398E+03  0.10520632398E+03  0.00000000000E+00 0.  1.
          6    2    1    2  501    0  0.41085612128E+02 -0.18565441463E+03  0.30437523400E+03  0.39783356216E+03  0.17167315139E+03 0.  0.
         24    2    3    3    0    0 -0.37585051415E+02 -0.94817942647E+02  0.69326633100E+02  0.13380653185E+03  0.51912691819E+02 0.  0.
         -6    2    1    2    0  502 -0.41085612128E+02  0.18565441463E+03  0.21868540710E+03  0.33563972690E+03  0.16933732548E+03 0.  0.
        -24    2    5    5    0    0 -0.49205339909E+02  0.79954486699E+02  0.42652826971E+02  0.13009663164E+03  0.79322030331E+02 0.  0.
          5    1    3    3  501    0  0.78670663542E+02 -0.90836471982E+02  0.23504860090E+03  0.26402703030E+03  0.47000000000E+01 0. -1.
        -11    1    4    4    0    0  0.11554267658E+02 -0.32838877571E+02  0.27293868301E+02  0.44236277285E+02  0.00000000000E+00 0.  1.
         12    1    4    4    0    0 -0.49139319073E+02 -0.61979065076E+02  0.42032764799E+02  0.89570254567E+02  0.00000000000E+00 0. -1.
         -5    1    5    5    0  502  0.81197277814E+01  0.10569992793E+03  0.17603258013E+03  0.20554309527E+03  0.47000000000E+01 0.  1.
         11    1    6    6    0    0 -0.10596680159E+02  0.69512310465E+02 -0.17491065187E+01  0.70337119006E+02  0.00000000000E+00 0. -1.
        -12    1    6    6    0    0 -0.38608659751E+02  0.10442176234E+02  0.44401933489E+02  0.59759512631E+02  0.00000000000E+00 0.  1.
</event>
<event>
12    1  0.1683022E-002  0.2128662E+03  0.7818608E-02  0.1139658E+00
         21   -1    0    0  503  502  0.00000000000E+00  0.00000000000E+00  0.49743733118E+03  0.49743733118E+03  0.00000000000E+00 0. -1.
         21   -1    0    0  501  503 -0.00000000000E+00 -0.00000000000E+00 -0.10577265536E+03  0.10577265536E+03  0.00000000000E+00 0. -1.
          6    2    1    2  501    0  0.48942952504E+02  0.11385519766E+03  0.79949900640E+02  0.22574722141E+03  0.17091343636E+03 0.  0.
         24    2    3    3    0    0  0.17491687111E+02  0.17032719293E+02  0.90183296286E+02  0.12332365577E+03  0.80496114813E+02 0.  0.
         -6    2    1    2    0  502 -0.48942952504E+02 -0.11385519766E+03  0.31171477518E+03  0.37746276512E+03  0.17307113958E+03 0.  0.
        -24    2    5    5    0    0  0.24471400575E+02 -0.73779781908E+02  0.92177362878E+02  0.14248516707E+03  0.75914761046E+02 0.  0.
          5    1    3    3  501    0  0.31451265394E+02  0.96822478366E+02 -0.10233395645E+02  0.10242356564E+03  0.47000000000E+01 0. -1.
        -13    1    4    4    0    0  0.17443988223E+02  0.32330794423E+02  0.99048986253E+02  0.10564220118E+03  0.00000000000E+00 0.  1.
         14    1    4    4    0    0  0.47698887445E-01 -0.15298075129E+02 -0.88656899674E+01  0.17681454591E+02  0.00000000000E+00 0. -1.
         -5    1    5    5    0  502 -0.73414353080E+02 -0.40075415751E+02  0.21953741230E+03  0.23497759805E+03  0.47000000000E+01 0.  1.
         11    1    6    6    0    0 -0.25754067840E+02 -0.18020734917E+02  0.14968237306E+02  0.34814752984E+02  0.00000000000E+00 0. -1.
        -12    1    6    6    0    0  0.50225468415E+02 -0.55759046991E+02  0.77209125573E+02  0.10767041409E+03  0.00000000000E+00 0.  1.
</event>
<event>
12    1  0.1683022E-002  0.2669083E+03  0.7818608E-02  0.1104162E+00
         21   -1    0    0  501  502  0.00000000000E+00  0.00000000000E+00  0.25838704759E+03  0.25838704759E+03  0.00000000000E+00 0. -1.
         21   -1    0    0  502  503 -0.00000000000E+00 -0.00000000000E+00 -0.38999904083E+03  0.38999904083E+03  0.00000000000E+00 0.  1.
          6    2    1    2  501    0  0.60692888551E+02 -0.19538712851E+03  0.11610308099E+03  0.28423943112E+03  0.15953799572E+03 0.  0.
         24    2    3    3    0    0  0.51746950210E+02 -0.51337173581E+02  0.13602936812E+02  0.10715530172E+03  0.77356102215E+02 0.  0.
         -6    2    1    2    0  503 -0.60692888551E+02  0.19538712851E+03 -0.24771507424E+03  0.36414665729E+03  0.17140674814E+03 0.  0.
        -24    2    5    5    0    0  0.87430141726E+01  0.16674642662E+03 -0.20934583480E+03  0.27967226516E+03  0.80685105586E+02 0.  0.
          5    1    3    3  501    0  0.89459383413E+01 -0.14404995493E+03  0.10250014418E+03  0.17708412940E+03  0.47000000000E+01 0. -1.
        -11    1    4    4    0    0 -0.17628564864E+02 -0.31272332785E+01  0.13911149536E+02  0.22673022925E+02  0.00000000000E+00 0.  1.
         12    1    4    4    0    0  0.69375515073E+02 -0.48209940303E+02 -0.30821272429E+00  0.84482278797E+02  0.00000000000E+00 0. -1.
         -5    1    5    5    0  503 -0.69435902724E+02  0.28640701885E+02 -0.38369239439E+02  0.84474392135E+02  0.47000000000E+01 0.  1.
         11    1    6    6    0    0  0.94864404394E+01  0.64385506638E+01  0.45798367474E+01  0.12345946359E+02  0.00000000000E+00 0. -1.
        -12    1    6    6    0    0 -0.74342626677E+00  0.16030787596E+03 -0.21392567154E+03  0.26732631880E+03  0.00000000000E+00 0.  1.
</event>
<event>
12    1  0.1683022E-002  0.3710730E+03  0.7818608E-02  0.1054567E+00
         21   -1    0    0  503  502  0.00000000000E+00  0.00000000000E+00  0.42577327848E+03  0.42577327848E+03  0.00000000000E+00 0. -1.
         21   -1    0    0  501  503 -0.00000000000E+00 -0.00000000000E+00 -0.39148863087E+03  0.39148863087E+03  0.00000000000E+00 0.  1.
          6    2    1    2  501    0  0.27659629557E+03 -0.17285589989E+03  0.19069758156E+03  0.41457071089E+03  0.17064182917E+03 0.  0.
         24    2    3    3    0    0  0.84104819113E+02 -0.94616527036E+02  0.12973376225E+03  0.19797651605E+03  0.79611205567E+02 0.  0.
         -6    2    1    2    0  502 -0.27659629557E+03  0.17285589989E+03 -0.15641293395E+03  0.40269119846E+03  0.17694779613E+03 0.  0.
        -24    2    5    5    0    0 -0.21048803779E+03  0.18431244329E+03 -0.79382132887E+02  0.30042982526E+03  0.75367539974E+02 0.  0.
          5    1    3    3  501    0  0.19249147646E+03 -0.78239372852E+02  0.60963819309E+02  0.21659419484E+03  0.47000000000E+01 0. -1.
        -13    1    4    4    0    0  0.92011099086E+02 -0.10290799252E+03  0.12105003075E+03  0.18360067327E+03  0.00000000000E+00 0.  1.
         14    1    4    4    0    0 -0.79062799727E+01  0.82914654832E+01  0.86837315012E+01  0.14375842781E+02  0.00000000000E+00 0. -1.
         -5    1    5    5    0  502 -0.66108257788E+02 -0.11456543405E+02 -0.77030801065E+02  0.10226137319E+03  0.47000000000E+01 0. -1.
         11    1    6    6    0    0 -0.65592903713E+02  0.10510953259E+03 -0.44578320513E+02  0.13167258453E+03  0.00000000000E+00 0. -1.
        -12    1    6    6    0    0 -0.14489513407E+03  0.79202910706E+02 -0.34803812373E+02  0.16875724073E+03  0.00000000000E+00 0.  1.
</event>
<event>
12    1  0.1683022E-002  0.2601895E+03  0.7818608E-02  0.1107085E+00
         21   -1    0    0  501  502  0.00000000000E+00  0.00000000000E+00  0.26594978546E+03  0.26594978546E+03  0.00000000000E+00 0. -1.
         21   -1    0    0  502  503 -0.00000000000E+00 -0.00000000000E+00 -0.27443519295E+03  0.27443519295E+03  0.00000000000E+00 0. -1.
          6    2    1    2  501    0 -0.19506252450E+03  0.21940911148E+02 -0.77622070960E+02  0.27116674946E+03  0.17022170268E+03 0.  0.
         24    2    3    3    0    0 -0.15373513815E+03  0.92628850438E+01  0.11043560991E+02  0.17241266348E+03  0.76706404859E+02 0.  0.
         -6    2    1    2    0  503  0.19506252450E+03 -0.21940911148E+02  0.69136663462E+02  0.26921822895E+03  0.17078578547E+03 0.  0.
        -24    2    5    5    0    0  0.16278525673E+03  0.35466529621E+02  0.84302877231E+02  0.20147208286E+03  0.75677675248E+02 0.  0.
          5    1    3    3  501    0 -0.41327386349E+02  0.12678026104E+02 -0.88665631951E+02  0.98754085979E+02  0.47000000000E+01 0. -1.
        -13    1    4    4    0    0 -0.11715588594E+03 -0.26521776298E+02  0.15169791902E+02  0.12107447631E+03  0.00000000000E+00 0.  1.
         14    1    4    4    0    0 -0.36579252211E+02  0.35784661342E+02 -0.41262309108E+01  0.51338187163E+02  0.00000000000E+00 0. -1.
         -5    1    5    5    0  503  0.32277267768E+02 -0.57407440769E+02 -0.15166213768E+02  0.67746146091E+02  0.47000000000E+01 0.  1.
         11    1    6    6    0    0  0.53370157294E+02  0.11181381837E+02  0.69625948832E+02  0.88437377506E+02  0.00000000000E+00 0. -1.
        -12    1    6    6    0    0  0.10941509944E+03  0.24285147784E+02  0.14676928399E+02  0.11303470536E+03  0.00000000000E+00 0.  1.
</event>
<event>
12    1  0.1683022E-002  0.1781790E+03  0.7818608E-02  0.1170443E+00
         21   -1    0    0  501  502  0.00000000000E+00  0.00000000000E+00  0.98770760950E+03  0.98770760950E+03  0.00000000000E+00 0. -1.
         21   -1    0    0  502  503 -0.00000000000E+00 -0.00000000000E+00 -0.38491973244E+02  0.38491973244E+02  0.00000000000E+00 0. -1.
          6    2    1    2  501    0  0.34022891954E+02 -0.14197188858E+02  0.69688750745E+03  0.71930519100E+03  0.17432338455E+03 0.  0.
         24    2    3    3    0    0 -0.21909194369E+02  0.47033398436E+02  0.38347035658E+03  0.39506764912E+03  0.79603892108E+02 0.  0.
         -6    2    1    2    0  503 -0.34022891954E+02  0.14197188858E+02  0.25232812881E+03  0.30689439175E+03  0.17075000953E+03 0.  0.
        -24    2    5    5    0    0 -0.12996117318E+02 -0.33800865616E+02  0.23653342536E+03  0.25196260549E+03  0.78903077703E+02 0.  0.
          5    1    3    3  501    0  0.55932086323E+02 -0.61230587294E+02  0.31341715088E+03  0.32423754188E+03  0.47000000000E+01 0. -1.
        -13    1    4    4    0    0 -0.15585428536E+02  0.31188259397E+02  0.37386863676E+03  0.37549083965E+03  0.00000000000E+00 0.  1.
         14    1    4    4    0    0 -0.63237658330E+01  0.15845139039E+02  0.96017198153E+01  0.19576809467E+02  0.00000000000E+00 0. -1.
         -5    1    5    5    0  503 -0.21026774636E+02  0.47998054474E+02  0.15794703445E+02  0.54931786261E+02  0.47000000000E+01 0.  1.
         11    1    6    6    0    0 -0.22954898892E+02 -0.14242869738E+02  0.18302408078E+02  0.32630734944E+02  0.00000000000E+00 0. -1.
        -12    1    6    6    0    0  0.99587815743E+01 -0.19557995878E+02  0.21823101728E+03  0.21933187055E+03  0.00000000000E+00 0.  1.
</event>
<event>
12    1  0.1683022E-002  0.2574066E+03  0.7818608E-02  0.1108729E+00
         21   -1    0    0  501  502  0.00000000000E+00  0.00000000000E+00  0.10211936867E+04  0.10211936867E+04  0.00000000000E+00 0.  1.
         21   -1    0    0  502  503 -0.00000000000E+00 -0.00000000000E+00 -0.98859705395E+02  0.98859705395E+02  0.00000000000E+00 0.  1.
          6    2    1    2  501    0 -0.63472947512E+02  0.18065599501E+03  0.78968672604E+03  0.83058009440E+03  0.17202547581E+03 0.  0.
         24    2    3    3    0    0 -0.80940239823E+02  0.19377786456E+03  0.76172319126E+03  0.79478429802E+03  0.85782731679E+02 0.  0.
         -6    2    1    2    0  503  0.63472947512E+02 -0.18065599501E+03  0.13264725529E+03  0.28947329773E+03  0.17185485783E+03 0.  0.
        -24    2    5    5    0    0 -0.17654156880E+01 -0.50017925357E+02  0.10559973007E+03  0.14089332634E+03  0.78706523663E+02 0.  0.
          5    1    3    3  501    0  0.17467292311E+02 -0.13121869550E+02  0.27963534779E+02  0.35795796380E+02  0.47000000000E+01 0. -1.
        -13    1    4    4    0    0 -0.12731161343E+02  0.21557124966E+02  0.23712380145E+03  0.23844179441E+03  0.00000000000E+00 0.  1.
         14    1    4    4    0    0 -0.68209078481E+02  0.17222073960E+03  0.52459938981E+03  0.55634250361E+03  0.00000000000E+00 0. -1.
         -5    1    5    5    0  503  0.65238363200E+02 -0.13063806965E+03  0.27047525226E+02  0.14857997139E+03  0.47000000000E+01 0.  1.
         11    1    6    6    0    0  0.13056728629E+02  0.15554384108E+02  0.48897366843E+02  0.52946855541E+02  0.00000000000E+00 0. -1.
        -12    1    6    6    0    0 -0.14822144317E+02 -0.65572309465E+02  0.56702363225E+02  0.87946470800E+02  0.00000000000E+00 0.  1.
</event>
<event>
12    1  0.1683022E-002  0.2724158E+03  0.7818608E-02  0.1099937E+00
         21   -1    0    0  501  502  0.00000000000E+00  0.00000000000E+00  0.98391839631E+02  0.98391839631E+02  0.00000000000E+00 0. -1.
         21   -1    0    0  502  503 -0.00000000000E+00 -0.00000000000E+00 -0.75412953783E+03  0.75412953783E+03  0.00000000000E+00 0.  1.
          6    2    1    2  501    0  0.18662260122E+03  0.96360436090E+02 -0.33934773511E+03  0.43516350930E+03  0.17348505863E+03 0.  0.
         24    2    3    3    0    0  0.14258692849E+03 -0.33113408883E+00 -0.17816241016E+03  0.24205421590E+03  0.80729531247E+02 0.  0.
         -6    2    1    2    0  503 -0.18662260122E+03 -0.96360436090E+02 -0.31638996309E+03  0.41735786817E+03  0.17312322908E+03 0.  0.
        -24    2    5    5    0    0 -0.24583184251E+02 -0.49072487918E+01 -0.12620652193E+03  0.15125208205E+03  0.79502780489E+02 0.  0.
          5    1    3    3  501    0  0.44035672735E+02  0.96691570179E+02 -0.16118532495E+03  0.19310929340E+03  0.47000000000E+01 0. -1.
        -11    1    4    4    0    0  0.19412749802E+02 -0.27409854912E+02 -0.62393070618E+02  0.70859369616E+02  0.00000000000E+00 0.  1.
         12    1    4    4    0    0  0.12317417868E+03  0.27078720823E+02 -0.11576933954E+03  0.17119484628E+03  0.00000000000E+00 0. -1.
         -5    1    5    5    0  503 -0.16203941697E+03 -0.91453187298E+02 -0.19018344115E+03  0.26610578612E+03  0.47000000000E+01 0.  1.
         13    1    6    6    0    0 -0.40618315216E+02 -0.15247287230E+02 -0.28987712248E+02  0.52178681090E+02  0.00000000000E+00 0. -1.
        -14    1    6    6    0    0  0.16035130965E+02  0.10340038438E+02 -0.97218809687E+02  0.99073400955E+02  0.00000000000E+00 0.  1.
</event>
<event>
12    1  0.1683022E-002  0.1960446E+03  0.7818608E-02  0.1153688E+00
         21   -1    0    0  503  502  0.00000000000E+00  0.00000000000E+00  0.17510725364E+03  0.17510725364E+03  0.00000000000E+00 0.  1.
         21   -1    0    0  501  503 -0.00000000000E+00 -0.00000000000E+00 -0.23339424342E+03  0.23339424342E+03  0.00000000000E+00 0.  1.
          6    2    1    2  501    0  0.67575595583E+02  0.61444313926E+02  0.25498501620E+02  0.19769583182E+03  0.17346931573E+03 0.  0.
         24    2    3    3    0    0  0.10588379839E+03  0.70380511747E+02  0.39354814226E+02  0.15572606374E+03  0.80851779999E+02 0.  0.
         -6    2    1    2    0  502 -0.67575595583E+02 -0.61444313926E+02 -0.83785491400E+02  0.21080566524E+03  0.17052024834E+03 0.  0.
        -24    2    5    5    0    0 -0.36130783510E+02 -0.22465454907E+02  0.22063499106E+02  0.93612549196E+02  0.80413812202E+02 0.  0.
          5    1    3    3  501    0 -0.38308202806E+02 -0.89361978209E+01 -0.13856312606E+02  0.41969768081E+02  0.47000000000E+01 0. -1.
        -13    1    4    4    0    0  0.16572343345E+02  0.12887915689E+02  0.44690245998E+02  0.49375692624E+02  0.00000000000E+00 0.  1.
         14    1    4    4    0    0  0.89311455044E+02  0.57492596059E+02 -0.53354317720E+01  0.10635037111E+03  0.00000000000E+00 0. -1.
         -5    1    5    5    0  502 -0.31444812073E+02 -0.38978859019E+02 -0.10584899051E+03  0.11719311604E+03  0.47000000000E+01 0.  1.
         13    1    6    6    0    0 -0.51122755693E+02 -0.17180171749E+02 -0.12682025764E+02  0.55403323262E+02  0.00000000000E+00 0. -1.
        -14    1    6    6    0    0  0.14991972183E+02 -0.52852831576E+01  0.34745524870E+02  0.38209225934E+02  0.00000000000E+00 0.  1.
</event>
<event>
12    1  0.1683022E-002  0.1897533E+03  0.7818608E-02  0.1158785E+00
         21   -1    0    0  501  502  0.00000000000E+00  0.00000000000E+00  0.11188007361E+03  0.11188007361E+03  0.00000000000E+00 0.  1.
         21   -1    0    0  502  503 -0.00000000000E+00 -0.00000000000E+00 -0.32127458117E+03  0.32127458117E+03  0.00000000000E+00 0.  1.
          6    2    1    2  501    0 -0.16180955566E+02  0.76167824811E+02 -0.10996223610E+03  0.21892793917E+03  0.17255256684E+03 0.  0.
         24    2    3    3    0    0  0.89840025060E+01 -0.23309545288E+02 -0.67470753817E+02  0.10776752201E+03  0.80233963992E+02 0.  0.
         -6    2    1    2    0  503  0.16180955566E+02 -0.76167824811E+02 -0.99432271466E+02  0.21422671560E+03  0.17304030805E+03 0.  0.
        -24    2    5    5    0    0  0.20027849558E+02  0.25478514825E+02 -0.37892377081E+02  0.95247618465E+02  0.81154218048E+02 0.  0.
          5    1    3    3  501    0 -0.25164958072E+02  0.99477370098E+02 -0.42491482279E+02  0.11116041716E+03  0.47000000000E+01 0. -1.
        -13    1    4    4    0    0  0.34097157066E+02 -0.14426713976E+02 -0.71796745741E+02  0.80780683923E+02  0.00000000000E+00 0.  1.
         14    1    4    4    0    0 -0.25113154560E+02 -0.88828313112E+01  0.43259919234E+01  0.26986838091E+02  0.00000000000E+00 0. -1.
         -5    1    5    5    0  503 -0.38468939921E+01 -0.10164633964E+03 -0.61539894385E+02  0.11897909714E+03  0.47000000000E+01 0.  1.
         13    1    6    6    0    0  0.33164938845E+02 -0.15772956220E+02 -0.36728436262E+02  0.51939169677E+02  0.00000000000E+00 0. -1.
        -14    1    6    6    0    0 -0.13137089287E+02  0.41251471044E+02 -0.11639408187E+01  0.43308448789E+02  0.00000000000E+00 0.  1.
</event>
<event>
12    1  0.1683022E-002  0.2341746E+03  0.7818608E-02  0.1123877E+00
         21   -1    0    0  501  502  0.00000000000E+00  0.00000000000E+00  0.84874061793E+03  0.84874061793E+03  0.00000000000E+00 0. -1.
         21   -1    0    0  502  503 -0.00000000000E+00 -0.00000000000E+00 -0.90060842708E+02  0.90060842708E+02  0.00000000000E+00 0.  1.
          6    2    1    2  501    0  0.39422087062E+02 -0.15431522867E+03  0.63044964281E+03  0.67253585388E+03  0.17166954271E+03 0.  0.
         24    2    3    3    0    0  0.64844950375E+02 -0.65455547249E+02  0.48485554441E+03  0.50001890848E+03  0.80278973855E+02 0.  0.
         -6    2    1    2    0  503 -0.39422087062E+02  0.15431522867E+03  0.12823013241E+03  0.26626560675E+03  0.17054945246E+03 0.  0.
        -24    2    5    5    0    0 -0.62310888045E+02  0.28473053035E+02  0.60379927871E+02  0.12140052941E+03  0.79993695582E+02 0.  0.
          5    1    3    3  501    0 -0.25422863313E+02 -0.88859681417E+02  0.14559409840E+03  0.17251694540E+03  0.47000000000E+01 0. -1.
        -11    1    4    4    0    0  0.15023689248E+02  0.11116544039E+02  0.20004436052E+03  0.20091549210E+03  0.00000000000E+00 0.  1.
         12    1    4    4    0    0  0.49821261127E+02 -0.76572091288E+02  0.28481118388E+03  0.29910341638E+03  0.00000000000E+00 0. -1.
         -5    1    5    5    0  503  0.22888800983E+02  0.12584217563E+03  0.67850204539E+02  0.14486507734E+03  0.47000000000E+01 0.  1.
         13    1    6    6    0    0  0.66701075990E+01 -0.16599984015E+02  0.27230383861E+02  0.32581338369E+02  0.00000000000E+00 0. -1.
        -14    1    6    6    0    0 -0.68980995644E+02  0.45073037050E+02  0.33149544010E+02  0.88819191040E+02  0.00000000000E+00 0.  1.
</event>
<event>
12    1  0.1683022E-002  0.1834165E+03  0.7818608E-02  0.1165167E+00
         21   -1    0    0  501  502  0.00000000000E+00  0.00000000000E+00  0.58533120867E+03  0.58533120867E+03  0.00000000000E+00 0.  1.
         21   -1    0    0  502  503 -0.00000000000E+00 -0.00000000000E+00 -0.56682353410E+02  0.56682353410E+02  0.00000000000E+00 0.  1.
          6    2    1    2  501    0  0.55519629804E+02  0.14384059062E+01  0.25439231730E+03  0.31207681965E+03  0.17202323085E+03 0.  0.
         24    2    3    3    0    0 -0.37020687452E+02 -0.17151458807E+02  0.74758694328E+02  0.10909991975E+03  0.68185235012E+02 0.  0.
         -6    2    1    2    0  503 -0.55519629804E+02 -0.14384059062E+01  0.27425653796E+03  0.32993674243E+03  0.17480591263E+03 0.  0.
        -24    2    5    5    0    0 -0.34218973230E+02  0.55405043323E+02  0.91174122880E+02  0.13699593182E+03  0.78832148881E+02 0.  0.
          5    1    3    3  501    0  0.92540317256E+02  0.18589864713E+02  0.17963362297E+03  0.20297689989E+03  0.47000000000E+01 0. -1.
        -11    1    4    4    0    0  0.40907044809E+00 -0.34696295144E+02  0.18606040068E+02  0.39372388324E+02  0.00000000000E+00 0.  1.
         12    1    4    4    0    0 -0.37429757900E+02  0.17544836337E+02  0.56152654261E+02  0.69727531428E+02  0.00000000000E+00 0. -1.
         -5    1    5    5    0  503 -0.21300656574E+02 -0.56843449229E+02  0.18308241508E+03  0.19294081062E+03  0.47000000000E+01 0.  1.
         13    1    6    6    0    0 -0.51566599484E+02  0.56512850386E+02  0.91926868660E+02  0.11959667898E+03  0.00000000000E+00 0. -1.
        -14    1    6    6    0    0  0.17347626254E+02 -0.11078070632E+01 -0.75274578018E+00  0.17399252839E+02  0.00000000000E+00 0.  1.
</event>
<event>
12    1  0.1683022E-002  0.2579537E+03  0.7818608E-02  0.1108454E+00
         21   -1    0    0  501  502  0.00000000000E+00  0.00000000000E+00  0.37030708882E+03  0.37030708882E+03  0.00000000000E+00 0. -1.
         21   -1    0    0  502  503 -0.00000000000E+00 -0.00000000000E+00 -0.18593445315E+03  0.18593445315E+03  0.00000000000E+00 0.  1.
          6    2    1    2  501    0 -0.18981240046E+03  0.30149457543E+02  0.14445675658E+03  0.29521785311E+03  0.17131283989E+03 0.  0.
         24    2    3    3    0    0 -0.75341111039E+02  0.77400398898E+02  0.75223663485E+02  0.15326138534E+03  0.78506992852E+02 0.  0.
         -6    2    1    2    0  503  0.18981240046E+03 -0.30149457543E+02  0.39915879086E+02  0.26102368887E+03  0.17205333937E+03 0.  0.
        -24    2    5    5    0    0  0.62968173992E+02  0.10523193515E+02  0.71088223602E+02  0.12413860058E+03  0.79253568255E+02 0.  0.
          5    1    3    3  501    0 -0.11447128942E+03 -0.47250941355E+02  0.69233093098E+02  0.14195646777E+03  0.47000000000E+01 0. -1.
        -13    1    4    4    0    0 -0.83944220241E+02  0.45807389958E+02  0.36033432192E+02  0.10219274594E+03  0.00000000000E+00 0.  1.
         14    1    4    4    0    0  0.86031092022E+01  0.31593008939E+02  0.39190231294E+02  0.51068639405E+02  0.00000000000E+00 0. -1.
         -5    1    5    5    0  503  0.12684422647E+03 -0.40672651058E+02 -0.31172344516E+02  0.13688508829E+03  0.47000000000E+01 0.  1.
         11    1    6    6    0    0  0.36738022439E+02 -0.27195275057E+02  0.62451296075E+02  0.77391405593E+02  0.00000000000E+00 0. -1.
        -12    1    6    6    0    0  0.26230151553E+02  0.37718468572E+02  0.86369275263E+01  0.46747194986E+02  0.00000000000E+00 0.  1.
</event>
<event>
12    1  0.1683022E-002  0.2269837E+03  0.7818608E-02  0.1129106E+00
         21   -1    0    0  503  502  0.00000000000E+00  0.00000000000E+00  0.60980104128E+02  0.60980104128E+02  0.00000000000E+00 0. -1.
         21   -1    0    0  501  503 -0.00000000000E+00 -0.00000000000E+00 -0.96635152333E+03  0.96635152333E+03  0.00000000000E+00 0. -1.
          6    2    1    2  501    0 -0.69029790350E+01 -0.14651645128E+03 -0.26403552801E+03  0.34701309147E+03  0.17084672659E+03 0.  0.
         24    2    3    3    0    0  0.50670244729E+02 -0.44278547049E+02 -0.73624189890E+02  0.12330383185E+03  0.72493104377E+02 0.  0.
         -6    2    1    2    0  502  0.69029790350E+01  0.14651645128E+03 -0.64133589119E+03  0.68031853599E+03  0.17322489274E+03 0.  0.
        -24    2    5    5    0    0  0.70750979937E+02  0.82920279217E+02 -0.32169501510E+03  0.34818389463E+03  0.76569366420E+02 0.  0.
          5    1    3    3  501    0 -0.57573223764E+02 -0.10223790423E+03 -0.19041133812E+03  0.22370925962E+03  0.47000000000E+01 0. -1.
        -11    1    4    4    0    0  0.45792623061E+01  0.19397243994E+02 -0.19366920257E+02  0.27790291795E+02  0.00000000000E+00 0.  1.
         12    1    4    4    0    0  0.46090982422E+02 -0.63675791043E+02 -0.54257269633E+02  0.95513540054E+02  0.00000000000E+00 0. -1.
         -5    1    5    5    0  502 -0.63848000902E+02  0.63596172060E+02 -0.31964087610E+03  0.33213464136E+03  0.47000000000E+01 0.  1.
         13    1    6    6    0    0  0.16555183897E+02  0.23957437872E+02 -0.20249801374E+03  0.20458122718E+03  0.00000000000E+00 0. -1.
        -14    1    6    6    0    0  0.54195796041E+02  0.58962841344E+02 -0.11919700135E+03  0.14360266745E+03  0.00000000000E+00 0.  1.
</event>
<event>
12    1  0.1683022E-002  0.1994834E+03  0.7818608E-02  0.1150564E+00
         21   -1    0    0  503  502  0.00000000000E+00  0.00000000000E+00  0.27347001130E+03  0.27347001130E+03  0.00000000000E+00 0.  1.
         21   -1    0    0  501  503 -0.00000000000E+00 -0.00000000000E+00 -0.20482313990E+03  0.20482313990E+03  0.00000000000E+00 0.  1.
          6    2    1    2  501    0  0.27785575176E+02 -0.92474893901E+02 -0.95685171248E+02  0.22124483654E+03  0.17455652812E+03 0.  0.
         24    2    3    3    0    0 -0.36997267682E+02 -0.24860614565E+02 -0.88392027690E+02  0.12720342310E+03  0.79879361020E+02 0.  0.
         -6    2    1    2    0  502 -0.27785575176E+02  0.92474893901E+02  0.16433204265E+03  0.25704831466E+03  0.17246788581E+03 0.  0.
        -24    2    5    5    0    0  0.47422520165E+02  0.26868242149E+02  0.66242456060E+02  0.11703350345E+03  0.79611431912E+02 0.  0.
          5    1    3    3  501    0  0.64782842858E+02 -0.67614279336E+02 -0.72931435583E+01  0.94041413440E+02  0.47000000000E+01 0. -1.
        -11    1    4    4    0    0  0.16010040754E+02  0.12208299159E+02 -0.45043191483E+02  0.49338150272E+02  0.00000000000E+00 0.  1.
         12    1    4    4    0    0 -0.53007308436E+02 -0.37068913724E+02 -0.43348836207E+02  0.77865272829E+02  0.00000000000E+00 0. -1.
         -5    1    5    5    0  502 -0.75208095341E+02  0.65606651752E+02  0.98089586592E+02  0.14001481120E+03  0.47000000000E+01 0.  1.
         11    1    6    6    0    0  0.21466833524E+02  0.19588512359E+02 -0.14091563852E+02  0.32297165971E+02  0.00000000000E+00 0. -1.
        -12    1    6    6    0    0  0.25955686640E+02  0.72797297899E+01  0.80334019912E+02  0.84736337483E+02  0.00000000000E+00 0.  1.
</event>
<event>
12    1  0.1683022E-002  0.2593813E+03  0.7818608E-02  0.1108324E+00
         21   -1    0    0  503  502  0.00000000000E+00  0.00000000000E+00  0.19111722315E+03  0.19111722315E+03  0.00000000000E+00 0.  1.
         21   -1    0    0  501  503 -0.00000000000E+00 -0.00000000000E+00 -0.35047651789E+03  0.35047651789E+03  0.00000000000E+00 0.  1.
          6    2    1    2  501    0 -0.11785566680E+03 -0.15276904137E+03 -0.11475947028E+03  0.28363428256E+03  0.17335031592E+03 0.  0.
         24    2    3    3    0    0 -0.37849420610E+02 -0.31345139990E+01 -0.28500708521E+02  0.93229043164E+02  0.80230669227E+02 0.  0.
         -6    2    1    2    0  502  0.11785566680E+03  0.15276904137E+03 -0.44599824467E+02  0.25795945847E+03  0.16530456641E+03 0.  0.
        -24    2    5    5    0    0  0.35573503717E+02  0.10723259393E+03  0.26500831560E+02  0.13997083320E+03  0.78263891458E+02 0.  0.
          5    1    3    3  501    0 -0.80006246187E+02 -0.14963452737E+03 -0.86258761758E+02  0.19040523940E+03  0.47000000000E+01 0. -1.
        -11    1    4    4    0    0 -0.62645385081E+02 -0.29229801762E+01 -0.27314762692E+02  0.68403832831E+02  0.00000000000E+00 0.  1.
         12    1    4    4    0    0  0.24795964471E+02 -0.21153382280E+00 -0.11859458295E+01  0.24825210333E+02  0.00000000000E+00 0. -1.
         -5    1    5    5    0  502  0.82282163081E+02  0.45536447443E+02 -0.71100656027E+02  0.11798862528E+03  0.47000000000E+01 0.  1.
         13    1    6    6    0    0  0.12884577960E+02  0.42310525803E+02  0.50501002954E+02  0.67130799506E+02  0.00000000000E+00 0. -1.
        -14    1    6    6    0    0  0.22688925757E+02  0.64922068124E+02 -0.24000171394E+02  0.72840033693E+02  0.00000000000E+00 0.  1.
</event>
<event>
12    1  0.1683022E-002  0.1787275E+03  0.7818608E-02  0.1169267E+00
         21   -1    0    0  503  502  0.00000000000E+00  0.00000000000E+00  0.63271412236E+03  0.63271412236E+03  0.00000000000E+00 0. -1.
         21   -1    0    0  501  503 -0.00000000000E+00 -0.00000000000E+00 -0.50225872389E+02  0.50225872389E+02  0.00000000000E+00 0. -1.
          6    2    1    2  501    0 -0.90502738711E+01  0.46252805361E+02  0.29106626290E+03  0.34107703124E+03  0.17144311703E+03 0.  0.
         24    2    3    3    0    0  0.32780059855E+02 -0.83843904906E+01  0.77386323128E+02  0.11654149585E+03  0.80302222382E+02 0.  0.
         -6    2    1    2    0  502  0.90502738711E+01 -0.46252805361E+02  0.29142198707E+03  0.34186296351E+03  0.17240151337E+03 0.  0.
        -24    2    5    5    0    0 -0.59032568671E+02 -0.44364882398E+02  0.18627156545E+03  0.21649335448E+03  0.81970662345E+02 0.  0.
          5    1    3    3  501    0 -0.41830333727E+02  0.54637195852E+02  0.21367993977E+03  0.22453553539E+03  0.47000000000E+01 0. -1.
        -11    1    4    4    0    0  0.39931771219E+02  0.26971299747E+02  0.58609238440E+02  0.75875161899E+02  0.00000000000E+00 0.  1.
         12    1    4    4    0    0 -0.71517113635E+01 -0.35355690237E+02  0.18777084688E+02  0.40666333950E+02  0.00000000000E+00 0. -1.
         -5    1    5    5    0  502  0.68082842542E+02 -0.18879229631E+01  0.10515042162E+03  0.12536960903E+03  0.47000000000E+01 0.  1.
         13    1    6    6    0    0 -0.17900283454E+02 -0.57595813888E+02  0.14366515309E+03  0.15581198329E+03  0.00000000000E+00 0. -1.
        -14    1    6    6    0    0 -0.41132285217E+02  0.13230931490E+02  0.42606412364E+02  0.60681371192E+02  0.00000000000E+00 0.  1.
</event>
<event>
12    1  0.1683022E-002  0.2217745E+03  0.7818608E-02  0.1132837E+00
         21   -1    0    0  501  502  0.00000000000E+00  0.00000000000E+00  0.27674232479E+03  0.27674232479E+03  0.00000000000E+00 0.  1.
         21   -1    0    0  502  503 -0.00000000000E+00 -0.00000000000E+00 -0.28032409840E+03  0.28032409840E+03  0.00000000000E+00 0. -1.
          6    2    1    2  501    0  0.38959529191E+02 -0.13318314127E+03  0.16766966674E+03  0.27802347663E+03  0.17299809935E+03 0.  0.
         24    2    3    3    0    0  0.63236659732E+02 -0.15053490550E+03  0.16800227711E+03  0.24781315689E+03  0.80789620044E+02 0.  0.
         -6    2    1    2    0  503 -0.38959529191E+02  0.13318314127E+03 -0.17125144035E+03  0.27904294656E+03  0.17112076487E+03 0.  0.
        -24    2    5    5    0    0 -0.33129100444E+02  0.14609967391E+03 -0.19081019266E+03  0.25443673785E+03  0.76725953449E+02 0.  0.
          5    1    3    3  501    0 -0.24277130541E+02  0.17351764226E+02 -0.33261037172E+00  0.30210319739E+02  0.47000000000E+01 0. -1.
        -11    1    4    4    0    0  0.56740631356E+02 -0.35456136706E+02  0.61112133079E+02  0.90616387515E+02  0.00000000000E+00 0.  1.
         12    1    4    4    0    0  0.64960283762E+01 -0.11507876879E+03  0.10689014403E+03  0.15719676938E+03  0.00000000000E+00 0. -1.
         -5    1    5    5    0  503 -0.58304287470E+01 -0.12916532642E+02  0.19558752312E+02  0.24606208706E+02  0.47000000000E+01 0.  1.
         13    1    6    6    0    0 -0.20094806717E+02  0.11777898276E+03 -0.91918343713E+02  0.15074704623E+03  0.00000000000E+00 0. -1.
        -14    1    6    6    0    0 -0.13034293727E+02  0.28320691155E+02 -0.98891848946E+02  0.10368969162E+03  0.00000000000E+00 0.  1.
</event>
<event>
12    1  0.1683022E-002  0.5349790E+03  0.7818608E-02  0.1005057E+00
         21   -1    0    0  501  502  0.00000000000E+00  0.00000000000E+00  0.17848435745E+03  0.17848435745E+03  0.00000000000E+00 0.  1.
         21   -1    0    0  502  503 -0.00000000000E+00 -0.00000000000E+00 -0.16335412271E+04  0.16335412271E+04  0.00000000000E+00 0. -1.
          6    2    1    2  501    0  0.37538337299E+03  0.33985047632E+03 -0.60190754320E+03  0.80501699083E+03  0.17131445350E+03 0.  0.
         24    2    3    3    0    0  0.24105025947E+03  0.28963465399E+03 -0.37884928858E+03  0.53979238949E+03  0.76521760992E+02 0.  0.
         -6    2    1    2    0  503 -0.37538337299E+03 -0.33985047632E+03 -0.85314932646E+03  0.10070085937E+04  0.17260217736E+03 0.  0.
        -24    2    5    5    0    0 -0.38878184318E+03 -0.33155887700E+03 -0.84023964651E+03  0.98610358335E+03  0.72904067187E+02 0.  0.
          5    1    3    3  501    0  0.13433311352E+03  0.50215822331E+02 -0.22305825463E+03  0.26522460134E+03  0.47000000000E+01 0. -1.
        -11    1    4    4    0    0  0.20343786133E+03  0.23903472361E+03 -0.35097112504E+03  0.47085591547E+03  0.00000000000E+00 0.  1.
         12    1    4    4    0    0  0.37612398140E+02  0.50599930377E+02 -0.27878163538E+02  0.68936474020E+02  0.00000000000E+00 0. -1.
         -5    1    5    5    0  503  0.13398470189E+02 -0.82915993185E+01 -0.12909679943E+02  0.20905010378E+02  0.47000000000E+01 0.  1.
         11    1    6    6    0    0 -0.12303401497E+03 -0.79641198488E+02 -0.29367538991E+03  0.32821536219E+03  0.00000000000E+00 0. -1.
        -12    1    6    6    0    0 -0.26574782820E+03 -0.25191767852E+03 -0.54656425660E+03  0.65788822116E+03  0.00000000000E+00 0.  1.
</event>
<event>
12    1  0.1683022E-002  0.2429992E+03  0.7818608E-02  0.1119368E+00
         21   -1    0    0  503  502  0.00000000000E+00  0.00000000000E+00  0.15015751417E+03  0.15015751417E+03  0.00000000000E+00 0.  1.
         21   -1    0    0  501  503 -0.00000000000E+00 -0.00000000000E+00 -0.37909399845E+03  0.37909399845E+03  0.00000000000E+00 0.  1.
          6    2    1    2  501    0  0.16114128439E+03 -0.27978101711E+02 -0.10480060920E+03  0.26463516516E+03  0.17972010250E+03 0.  0.
         24    2    3    3    0    0  0.75510057131E+02 -0.15246547788E+02 -0.13419648971E+03  0.17308732336E+03  0.77564796860E+02 0.  0.
         -6    2    1    2    0  502 -0.16114128439E+03  0.27978101711E+02 -0.12413587508E+03  0.26461634747E+03  0.16692156289E+03 0.  0.
        -24    2    5    5    0    0 -0.11053245769E+03  0.77389467979E+02 -0.58536806129E+02  0.16803444283E+03  0.81255537344E+02 0.  0.
          5    1    3    3  501    0  0.85631227256E+02 -0.12731553923E+02  0.29395880507E+02  0.91547841795E+02  0.47000000000E+01 0. -1.
        -11    1    4    4    0    0  0.84675996128E+02 -0.26812558916E+02 -0.89811619573E+02  0.12631335894E+03  0.00000000000E+00 0.  1.
         12    1    4    4    0    0 -0.91659389976E+01  0.11566011128E+02 -0.44384870136E+02  0.46773964426E+02  0.00000000000E+00 0. -1.
         -5    1    5    5    0  502 -0.50608826699E+02 -0.49411366269E+02 -0.65599068951E+02  0.96581904638E+02  0.47000000000E+01 0.  1.
         13    1    6    6    0    0 -0.79265461791E+02  0.62761429866E+02 -0.12033373367E+01  0.10111111973E+03  0.00000000000E+00 0. -1.
        -14    1    6    6    0    0 -0.31266995897E+02  0.14628038113E+02 -0.57333468792E+02  0.66923323103E+02  0.00000000000E+00 0.  1.
</event>
<event>
12    1  0.1683022E-002  0.2074666E+03  0.7818608E-02  0.1147299E+00
         21   -1    0    0  501  502  0.00000000000E+00  0.00000000000E+00  0.82693764531E+02  0.82693764531E+02  0.00000000000E+00 0. -1.
         21   -1    0    0  502  503 -0.00000000000E+00 -0.00000000000E+00 -0.49350807535E+03  0.49350807535E+03  0.00000000000E+00 0. -1.
          6    2    1    2  501    0 -0.22762738356E+02  0.79022465485E+02 -0.26638456359E+03  0.33764348415E+03  0.19047229289E+03 0.  0.
         24    2    3    3    0    0  0.40914098029E+02  0.71388132823E+02 -0.81041072977E+02  0.14146162453E+03  0.81691534330E+02 0.  0.
         -6    2    1    2    0  503  0.22762738356E+02 -0.79022465485E+02 -0.14442974723E+03  0.23855835574E+03  0.17113574991E+03 0.  0.
        -24    2    5    5    0    0  0.61193617154E+02 -0.96389968471E+02 -0.79782984715E+02  0.16122882381E+03  0.81201749819E+02 0.  0.
          5    1    3    3  501    0 -0.63676836385E+02  0.76343326622E+01 -0.18534349062E+03  0.19618185961E+03  0.47000000000E+01 0. -1.
        -11    1    4    4    0    0 -0.96933716609E+01  0.19072703459E+02  0.11049075923E+02  0.24079276363E+02  0.00000000000E+00 0.  1.
         12    1    4    4    0    0  0.50607469690E+02  0.52315429364E+02 -0.92090148900E+02  0.11738234817E+03  0.00000000000E+00 0. -1.
         -5    1    5    5    0  503 -0.38430878798E+02  0.17367502986E+02 -0.64646762512E+02  0.77329531930E+02  0.47000000000E+01 0.  1.
         11    1    6    6    0    0  0.65375312262E+01 -0.37611170777E+02  0.11314318949E+02  0.39816495264E+02  0.00000000000E+00 0. -1.
        -12    1    6    6    0    0  0.54656085928E+02 -0.58778797694E+02 -0.91097303665E+02  0.12141232854E+03  0.00000000000E+00 0.  1.
</event>
<event>
12    1  0.1683022E-002  0.4300617E+03  0.7818608E-02  0.1033883E+00
         21   -1    0    0  503  502  0.00000000000E+00  0.00000000000E+00  0.46914263429E+03  0.46914263429E+03  0.00000000000E+00 0.  1.
         21   -1    0    0  501  503 -0.00000000000E+00 -0.00000000000E+00 -0.39391014520E+03  0.39391014520E+03  0.00000000000E+00 0. -1.
          6    2    1    2  501    0 -0.11510108818E+03  0.37628733367E+03  0.28623865768E+02  0.43047283134E+03  0.17218337564E+03 0.  0.
         24    2    3    3    0    0 -0.85030156093E+02  0.15549948225E+03  0.64345577980E+02  0.20475250214E+03  0.79831179997E+02 0.  0.
         -6    2    1    2    0  502  0.11510108818E+03 -0.37628733367E+03  0.46608623319E+02  0.43257994815E+03  0.17352991037E+03 0.  0.
        -24    2    5    5    0    0  0.31748736665E+02 -0.70947476335E+02 -0.36471517107E+01  0.11206820748E+03  0.80650199843E+02 0.  0.
          5    1    3    3  501    0 -0.30070932087E+02  0.22078785142E+03 -0.35721712211E+02  0.22572032920E+03  0.47000000000E+01 0. -1.
        -11    1    4    4    0    0  0.14314667287E+02  0.22925272065E+02  0.18854044847E+02  0.32953798050E+02  0.00000000000E+00 0.  1.
         12    1    4    4    0    0 -0.99344823380E+02  0.13257421019E+03  0.45491533132E+02  0.17179870409E+03  0.00000000000E+00 0. -1.
         -5    1    5    5    0  502  0.83352351514E+02 -0.30533985734E+03  0.50255775030E+02  0.32051174067E+03  0.47000000000E+01 0.  1.
         11    1    6    6    0    0  0.12083894651E+02 -0.59509761904E+02 -0.37434767619E+02  0.71335784137E+02  0.00000000000E+00 0. -1.
        -12    1    6    6    0    0  0.19664842014E+02 -0.11437714431E+02  0.33787615908E+02  0.40732423346E+02  0.00000000000E+00 0.  1.
</event>
<event>
12    1  0.1683022E-002  0.1743467E+03  0.7818608E-02  0.1173592E+00
         21   -1    0    0  501  502  0.00000000000E+00  0.00000000000E+00  0.58876512994E+02  0.58876512994E+02  0.00000000000E+00 0.  1.
         21   -1    0    0  502  503 -0.00000000000E+00 -0.00000000000E+00 -0.54202538172E+03  0.54202538172E+03  0.00000000000E+00 0.  1.
          6    2    1    2  501    0 -0.14632969881E+02  0.15526736886E+02 -0.31053028184E+03  0.35612615306E+03  0.17303634760E+03 0.  0.
         24    2    3    3    0    0  0.56659022940E+02  0.22542817390E+02 -0.21053683050E+03  0.23303044259E+03  0.79113884241E+02 0.  0.
         -6    2    1    2    0  503  0.14632969881E+02 -0.15526736886E+02 -0.17261858689E+03  0.24477574166E+03  0.17222887040E+03 0.  0.
        -24    2    5    5    0    0 -0.21496640987E+02 -0.56456198371E+02 -0.16007409801E+03  0.18856165268E+03  0.79261416193E+02 0.  0.
          5    1    3    3  501    0 -0.71291992821E+02 -0.70160805039E+01 -0.99993451332E+02  0.12309571047E+03  0.47000000000E+01 0. -1.
        -13    1    4    4    0    0  0.30786346734E+02 -0.27880099262E+02 -0.11061242380E+03  0.11815332149E+03  0.00000000000E+00 0.  1.
         14    1    4    4    0    0  0.25872676206E+02  0.50422916652E+02 -0.99924406706E+02  0.11487712110E+03  0.00000000000E+00 0. -1.
         -5    1    5    5    0  503  0.36129610868E+02  0.40929461485E+02 -0.12544488880E+02  0.56214088983E+02  0.47000000000E+01 0.  1.
         13    1    6    6    0    0 -0.10645812799E+02 -0.45712950765E+02 -0.16575299184E+03  0.17227031521E+03  0.00000000000E+00 0. -1.
        -14    1    6    6    0    0 -0.10850828187E+02 -0.10743247606E+02  0.56788938254E+01  0.16291337470E+02  0.00000000000E+00 0.  1.
</event>
<event>
12    1  0.1683022E-002  0.3045596E+03  0.7818608E-02  0.1083799E+00
         21   -1    0    0  503  502  0.00000000000E+00  0.00000000000E+00  0.63617863529E+02  0.63617863529E+02  0.00000000000E+00 0. -1.
         21   -1    0    0  501  503 -0.00000000000E+00 -0.00000000000E+00 -0.15302916713E+04  0.15302916713E+04  0.00000000000E+00 0.  1.
          6    2    1    2  501    0  0.20676979319E+03 -0.13232851207E+03 -0.94813625076E+03  0.99585083889E+03  0.18025526575E+03 0.  0.
         24    2    3    3    0    0  0.19410837596E+03 -0.87818571628E+02 -0.54923329649E+03  0.59424518255E+03  0.77974097383E+02 0.  0.
         -6    2    1    2    0  502 -0.20676979319E+03  0.13232851207E+03 -0.51853755700E+03  0.59805869593E+03  0.16890359165E+03 0.  0.
        -24    2    5    5    0    0 -0.15314765017E+03  0.30484222250E+02 -0.36987170369E+03  0.40998631749E+03  0.83067519394E+02 0.  0.
          5    1    3    3  501    0  0.12661417229E+02 -0.44509940446E+02 -0.39890295426E+03  0.40160565634E+03  0.47000000000E+01 0. -1.
        -11    1    4    4    0    0  0.12032731176E+03 -0.91988436894E+02 -0.40004077477E+03  0.42775361595E+03  0.00000000000E+00 0.  1.
         12    1    4    4    0    0  0.73781064195E+02  0.41698652654E+01 -0.14919252172E+03  0.16649156660E+03  0.00000000000E+00 0. -1.
         -5    1    5    5    0  502 -0.53622143013E+02  0.10184428982E+03 -0.14866585331E+03  0.18807237844E+03  0.47000000000E+01 0.  1.
         13    1    6    6    0    0 -0.15356825612E+03  0.22197293458E+02 -0.28322510984E+03  0.32294332625E+03  0.00000000000E+00 0. -1.
        -14    1    6    6    0    0  0.42060594878E+00  0.82869287925E+01 -0.86646593852E+02  0.87042991242E+02  0.00000000000E+00 0.  1.
</event>
<event>
12    1  0.1683022E-002  0.3151179E+03  0.7818608E-02  0.1078005E+00
         21   -1    0    0  503  502  0.00000000000E+00  0.00000000000E+00  0.16230147078E+04  0.16230147078E+04  0.00000000000E+00 0. -1.
         21   -1    0    0  501  503 -0.00000000000E+00 -0.00000000000E+00 -0.61796017310E+02  0.61796017310E+02  0.00000000000E+00 0. -1.
          6    2    1    2  501    0 -0.10753750292E+02  0.26305432356E+03  0.68646829502E+03  0.75503248459E+03  0.17182000009E+03 0.  0.
         24    2    3    3    0    0 -0.45463259045E+02  0.11235531855E+03  0.22106354047E+03  0.26458512180E+03  0.80284321160E+02 0.  0.
         -6    2    1    2    0  502  0.10753750292E+02 -0.26305432356E+03  0.87475039545E+03  0.92977824050E+03  0.17316495570E+03 0.  0.
        -24    2    5    5    0    0  0.25893189407E+02 -0.60818571681E+02  0.20581117687E+03  0.23075730368E+03  0.80754794039E+02 0.  0.
          5    1    3    3  501    0  0.34709508753E+02  0.15069900501E+03  0.46540475455E+03  0.49044736279E+03  0.47000000000E+01 0. -1.
        -13    1    4    4    0    0 -0.10446542207E+01  0.30243549887E+02  0.70150974715E+01  0.31064050038E+02  0.00000000000E+00 0.  1.
         14    1    4    4    0    0 -0.44418604824E+02  0.82111768662E+02  0.21404844300E+03  0.23352107176E+03  0.00000000000E+00 0. -1.
         -5    1    5    5    0  502 -0.15139439115E+02 -0.20223575187E+03  0.66893921858E+03  0.69902093682E+03  0.47000000000E+01 0.  1.
         13    1    6    6    0    0 -0.18038709257E+02 -0.41561500886E+02  0.15229047018E+03  0.15888719487E+03  0.00000000000E+00 0. -1.
        -14    1    6    6    0    0  0.43931898664E+02 -0.19257070795E+02  0.53520706693E+02  0.71870108813E+02  0.00000000000E+00 0.  1.
</event>
<event>
12    1  0.1683022E-002  0.1785551E+03  0.7818608E-02  0.1169230E+00
         21   -1    0    0  501  502  0.00000000000E+00  0.00000000000E+00  0.12588705929E+04  0.12588705929E+04  0.00000000000E+00 0.  1.
         21   -1    0    0  502  503 -0.00000000000E+00 -0.00000000000E+00 -0.62029786452E+02  0.62029786452E+02  0.00000000000E+00 0.  1.
          6    2    1    2  501    0  0.47794287886E+02 -0.79886081483E+01  0.11066029498E+04  0.11209156985E+04  0.17185401639E+03 0.  0.
         24    2    3    3    0    0  0.26879960840E+02  0.59295583492E+02  0.78145363971E+03  0.78818647626E+03  0.79558983274E+02 0.  0.
         -6    2    1    2    0  503 -0.47794287886E+02  0.79886081483E+01  0.90237856620E+02  0.19998468077E+03  0.17176405316E+03 0.  0.
        -24    2    5    5    0    0  0.18356277115E+02  0.30541799750E+02 -0.10154273313E+02  0.77570574334E+02  0.68149323508E+02 0.  0.
          5    1    3    3  501    0  0.20914327047E+02 -0.67284191641E+02  0.32514931007E+03  0.33272922228E+03  0.47000000000E+01 0. -1.
        -13    1    4    4    0    0  0.11575383356E+02  0.33780662934E+02  0.10178808348E+03  0.10786999873E+03  0.00000000000E+00 0.  1.
         14    1    4    4    0    0  0.15304577484E+02  0.25514920558E+02  0.67966555624E+03  0.68031647753E+03  0.00000000000E+00 0. -1.
         -5    1    5    5    0  503 -0.66150565001E+02 -0.22553191601E+02  0.10039212993E+03  0.12241410643E+03  0.47000000000E+01 0.  1.
         13    1    6    6    0    0 -0.11779397157E+02  0.24744501509E+00  0.21415678038E+02  0.24442722685E+02  0.00000000000E+00 0. -1.
        -14    1    6    6    0    0  0.30135674272E+02  0.30294354734E+02 -0.31569951350E+02  0.53127851649E+02  0.00000000000E+00 0.  1.
</event>
<event>
12    1  0.1683022E-002  0.2120320E+03  0.7818608E-02  0.1140034E+00
         21   -1    0    0  503  502  0.00000000000E+00  0.00000000000E+00  0.26694169918E+03  0.26694169918E+03  0.00000000000E+00 0.  1.
         21   -1    0    0  501  503 -0.00000000000E+00 -0.00000000000E+00 -0.16841657361E+03  0.16841657361E+03  0.00000000000E+00 0.  1.
          6    2    1    2  501    0  0.27202838189E+02  0.11943700943E+03  0.40565375162E+02  0.21587755237E+03  0.17306754268E+03 0.  0.
         24    2    3    3    0    0 -0.24512305714E+02  0.20268718897E+01  0.11592339951E+02  0.84267813842E+02  0.79760395956E+02 0.  0.
         -6    2    1    2    0  502 -0.27202838189E+02 -0.11943700943E+03  0.57959750407E+02  0.21948072042E+03  0.17264779275E+03 0.  0.
        -24    2    5    5    0    0 -0.47086333570E+02 -0.42205171615E+01  0.65505203838E+02  0.10222366372E+03  0.62640323434E+02 0.  0.
          5    1    3    3  501    0  0.51715143903E+02  0.11741013754E+03  0.28973035211E+02  0.13160973853E+03  0.47000000000E+01 0. -1.
        -11    1    4    4    0    0 -0.48613456370E+02  0.18149915600E+02 -0.26567429918E+01  0.51959078705E+02  0.00000000000E+00 0.  1.
         12    1    4    4    0    0  0.24101150656E+02 -0.16123043710E+02  0.14249082943E+02  0.32308735137E+02  0.00000000000E+00 0. -1.
         -5    1    5    5    0  502  0.19883495381E+02 -0.11521649227E+03 -0.75454534310E+01  0.11725705670E+03  0.47000000000E+01 0.  1.
         13    1    6    6    0    0 -0.37653539328E+02 -0.14311729471E+01  0.17576934722E+01  0.37721701529E+02  0.00000000000E+00 0. -1.
        -14    1    6    6    0    0 -0.94327942428E+01 -0.27893442144E+01  0.63747510366E+02  0.64501962189E+02  0.00000000000E+00 0.  1.
</event>
<event>
12    1  0.1683022E-002  0.3644174E+03  0.7818608E-02  0.1056857E+00
         21   -1    0    0  501  502  0.00000000000E+00  0.00000000000E+00  0.71036919501E+02  0.71036919501E+02  0.00000000000E+00 0. -1.
         21   -1    0    0  502  503 -0.00000000000E+00 -0.00000000000E+00 -0.19529577519E+04  0.19529577519E+04  0.00000000000E+00 0.  1.
          6    2    1    2  501    0  0.21212105549E+03  0.24103726711E+03 -0.11509102446E+04  0.12072259324E+04  0.17235357357E+03 0.  0.
         24    2    3    3    0    0  0.34816089722E+02  0.10786867099E+03 -0.35844300551E+03  0.38430592355E+03  0.79761170930E+02 0.  0.
         -6    2    1    2    0  503 -0.21212105549E+03 -0.24103726711E+03 -0.73101058778E+03  0.81676873902E+03  0.17216383847E+03 0.  0.
        -24    2    5    5    0    0 -0.19477052555E+03 -0.23726410666E+03 -0.55048362550E+03  0.63530978570E+03  0.79727585770E+02 0.  0.
          5    1    3    3  501    0  0.17730496577E+03  0.13316859612E+03 -0.79246723909E+03  0.82292000881E+03  0.47000000000E+01 0. -1.
        -11    1    4    4    0    0  0.44545561390E+02  0.33341581179E+02 -0.21831390531E+03  0.22529298553E+03  0.00000000000E+00 0.  1.
         12    1    4    4    0    0 -0.97294716688E+01  0.74527089815E+02 -0.14012910020E+03  0.15901293802E+03  0.00000000000E+00 0. -1.
         -5    1    5    5    0  503 -0.17350529936E+02 -0.37731604488E+01 -0.18052696228E+03  0.18145895332E+03  0.47000000000E+01 0.  1.
         13    1    6    6    0    0 -0.14269375257E+03 -0.12073203838E+03 -0.36612529833E+03  0.41107841855E+03  0.00000000000E+00 0. -1.
        -14    1    6    6    0    0 -0.52076772979E+02 -0.11653206828E+03 -0.18435832717E+03  0.22423136716E+03  0.00000000000E+00 0.  1.
</event>
<event>
12    1  0.1683022E-002  0.2017399E+03  0.7818608E-02  0.1148384E+00
         21   -1    0    0  503  502  0.00000000000E+00  0.00000000000E+00  0.91585133657E+03  0.91585133657E+03  0.00000000000E+00 0. -1.
         21   -1    0    0  501  503 -0.00000000000E+00 -0.00000000000E+00 -0.46407032107E+02  0.46407032107E+02  0.00000000000E+00 0.  1.
          6    2    1    2  501    0  0.83800609442E+02 -0.63974787783E+02  0.33236582729E+03  0.38854042189E+03  0.17140974498E+03 0.  0.
         24    2    3    3    0    0 -0.97244324389E+01 -0.36226339630E+02  0.10342658874E+03  0.13963848380E+03  0.85993805768E+02 0.  0.
         -6    2    1    2    0  502 -0.83800609442E+02  0.63974787783E+02  0.53707847718E+03  0.57371794679E+03  0.17199905876E+03 0.  0.
        -24    2    5    5    0    0 -0.52192835345E+02 -0.15818558055E+02  0.40320232966E+03  0.41462381650E+03  0.79790173068E+02 0.  0.
          5    1    3    3  501    0  0.93525041881E+02 -0.27748448153E+02  0.22893923855E+03  0.24890193808E+03  0.47000000000E+01 0. -1.
        -11    1    4    4    0    0  0.20659240777E+02  0.13844196849E+02  0.54005780160E+01  0.25448619978E+02  0.00000000000E+00 0.  1.
         12    1    4    4    0    0 -0.30383673216E+02 -0.50070536479E+02  0.98026010726E+02  0.11418986382E+03  0.00000000000E+00 0. -1.
         -5    1    5    5    0  502 -0.31607774098E+02  0.79793345838E+02  0.13387614751E+03  0.15909413030E+03  0.47000000000E+01 0.  1.
         11    1    6    6    0    0  0.19861360276E+01  0.26600245695E+02  0.85897357253E+02  0.89943725687E+02  0.00000000000E+00 0. -1.
        -12    1    6    6    0    0 -0.54178971372E+02 -0.42418803750E+02  0.31730497241E+03  0.32468009081E+03  0.00000000000E+00 0.  1.
</event>
<event>
12    1  0.1683022E-002  0.1742890E+03  0.7818608E-02  0.1174701E+00
         21   -1    0    0  501  502  0.00000000000E+00  0.00000000000E+00  0.14062828426E+04  0.14062828426E+04  0.00000000000E+00 0. -1.
         21   -1    0    0  502  503 -0.00000000000E+00 -0.00000000000E+00 -0.31248392745E+02  0.31248392745E+02  0.00000000000E+00 0. -1.
          6    2    1    2  501    0  0.54877811499E+01  0.22399974540E+02  0.11057146856E+04  0.11193666203E+04  0.17275644736E+03 0.  0.
         24    2    3    3    0    0  0.19435656920E+02  0.61253777474E+02  0.28781822882E+03  0.30041554408E+03  0.57274743722E+02 0.  0.
         -6    2    1    2    0  503 -0.54877811499E+01 -0.22399974540E+02  0.26931976432E+03  0.31816461510E+03  0.16782047625E+03 0.  0.
        -24    2    5    5    0    0  0.28102632540E+02 -0.58101080977E+02  0.10787492389E+03  0.14937654860E+03  0.80689903338E+02 0.  0.
          5    1    3    3  501    0 -0.13947875770E+02 -0.38853802934E+02  0.81789645676E+03  0.81895107621E+03  0.47000000000E+01 0. -1.
        -13    1    4    4    0    0  0.39522078799E+02  0.42586731362E+02  0.17886634689E+03  0.18806593113E+03  0.00000000000E+00 0.  1.
         14    1    4    4    0    0 -0.20086421879E+02  0.18667046112E+02  0.10895188193E+03  0.11234961295E+03  0.00000000000E+00 0. -1.
         -5    1    5    5    0  503 -0.33590413690E+02  0.35701106437E+02  0.16144484043E+03  0.16878806650E+03  0.47000000000E+01 0.  1.
         13    1    6    6    0    0  0.55945356593E+02 -0.40524718320E+02  0.61423753610E+02  0.92439240731E+02  0.00000000000E+00 0. -1.
        -14    1    6    6    0    0 -0.27842724053E+02 -0.17576362657E+02  0.46451170275E+02  0.56937307865E+02  0.00000000000E+00 0.  1.
</event>
<event>
12    1  0.1683022E-002  0.1956754E+03  0.7818608E-02  0.1153535E+00
         21   -1    0    0  501  502  0.00000000000E+00  0.00000000000E+00  0.26331647294E+03  0.26331647294E+03  0.00000000000E+00 0.  1.
         21   -1    0    0  502  503 -0.00000000000E+00 -0.00000000000E+00 -0.17004702520E+03  0.17004702520E+03  0.00000000000E+00 0. -1.
          6    2    1    2  501    0 -0.60884090868E+02  0.69406065831E+02  0.12961066884E+03  0.23434198662E+03  0.17202664537E+03 0.  0.
         24    2    3    3    0    0 -0.50482970524E+01  0.38274450296E+02 -0.43101513548E+01  0.85870812850E+02  0.76581983823E+02 0.  0.
         -6    2    1    2    0  503  0.60884090868E+02 -0.69406065831E+02 -0.36341221107E+02  0.19902151153E+03  0.17252479012E+03 0.  0.
        -24    2    5    5    0    0  0.21933043960E+02 -0.10730245809E+03 -0.46662078792E+02  0.14350637211E+03  0.80136466795E+02 0.  0.
          5    1    3    3  501    0 -0.55835793815E+02  0.31131615536E+02  0.13392082020E+03  0.14847117377E+03  0.47000000000E+01 0. -1.
        -11    1    4    4    0    0 -0.34548372372E+02  0.43638119108E+02 -0.49683477571E+01  0.55879870726E+02  0.00000000000E+00 0.  1.
         12    1    4    4    0    0  0.29500075320E+02 -0.53636688126E+01  0.65819640231E+00  0.29990942124E+02  0.00000000000E+00 0. -1.
         -5    1    5    5    0  503  0.38951046907E+02  0.37896392257E+02  0.10320857685E+02  0.55515139418E+02  0.47000000000E+01 0.  1.
         13    1    6    6    0    0  0.20197867261E+02  0.22319916429E+01 -0.24339103027E+02  0.31706900901E+02  0.00000000000E+00 0. -1.
        -14    1    6    6    0    0  0.17351766991E+01 -0.10953444973E+03 -0.22322975765E+02  0.11179947121E+03  0.00000000000E+00 0.  1.
</event>
<event>
12    1  0.1683022E-002  0.1997404E+03  0.7818608E-02  0.1150666E+00
         21   -1    0    0  503  502  0.00000000000E+00  0.00000000000E+00  0.10741673078E+03  0.10741673078E+03  0.00000000000E+00 0. -1.
         21   -1    0    0  501  503 -0.00000000000E+00 -0.00000000000E+00 -0.36532026304E+03  0.36532026304E+03  0.00000000000E+00 0. -1.
          6    2    1    2  501    0 -0.93125142333E+02  0.42884964396E+02 -0.13286175692E+03  0.23989259506E+03  0.17141994751E+03 0.  0.
         24    2    3    3    0    0 -0.11479034752E+03  0.58293456303E+02 -0.14578943249E+03  0.20995904308E+03  0.79077747888E+02 0.  0.
         -6    2    1    2    0  502  0.93125142333E+02 -0.42884964396E+02 -0.12504177533E+03  0.23284439876E+03  0.16754001358E+03 0.  0.
        -24    2    5    5    0    0  0.39441847997E+02 -0.73283652485E+02 -0.29339844399E+02  0.11888420434E+03  0.79664763081E+02 0.  0.
          5    1    3    3  501    0  0.21665205189E+02 -0.15408491908E+02  0.12927675568E+02  0.29933551983E+02  0.47000000000E+01 0. -1.
        -11    1    4    4    0    0 -0.58910710205E+02  0.27419805529E+02 -0.18507244530E+02  0.67563567195E+02  0.00000000000E+00 0.  1.
         12    1    4    4    0    0 -0.55879637318E+02  0.30873650774E+02 -0.12728218796E+03  0.14239547588E+03  0.00000000000E+00 0. -1.
         -5    1    5    5    0  502  0.53683294336E+02  0.30398688089E+02 -0.95701930932E+02  0.11396019442E+03  0.47000000000E+01 0.  1.
         13    1    6    6    0    0 -0.86790213432E+00 -0.31666207734E+01  0.22552351830E+02  0.22790114399E+02  0.00000000000E+00 0. -1.
        -14    1    6    6    0    0  0.40309750132E+02 -0.70117031712E+02 -0.51892196229E+02  0.96094089939E+02  0.00000000000E+00 0.  1.
</event>
<event>
12    1  0.1683022E-002  0.1997511E+03  0.7818608E-02  0.1150135E+00
         21   -1    0    0  501  502  0.00000000000E+00  0.00000000000E+00  0.11751927779E+03  0.11751927779E+03  0.00000000000E+00 0.  1.
         21   -1    0    0  502  503 -0.00000000000E+00 -0.00000000000E+00 -0.34559386009E+03  0.34559386009E+03  0.00000000000E+00 0.  1.
          6    2    1    2  501    0 -0.29422488085E+02 -0.96034986138E+02 -0.80040705755E+02  0.21519066970E+03  0.17266183244E+03 0.  0.
         24    2    3    3    0    0 -0.56360650750E+02 -0.11486447894E+03 -0.27340426054E+02  0.15290404282E+03  0.79131384040E+02 0.  0.
         -6    2    1    2    0  503  0.29422488085E+02  0.96034986138E+02 -0.14803387655E+03  0.24792246819E+03  0.17164824572E+03 0.  0.
        -24    2    5    5    0    0 -0.30265846299E+01 -0.18504558564E+02 -0.53401015917E+02  0.95772154574E+02  0.77259680226E+02 0.  0.
          5    1    3    3  501    0  0.26938162666E+02  0.18829492800E+02 -0.52700279702E+02  0.62286626876E+02  0.47000000000E+01 0. -1.
        -11    1    4    4    0    0  0.97130357102E+01 -0.14426554511E+02  0.17423448243E+02  0.24617982989E+02  0.00000000000E+00 0.  1.
         12    1    4    4    0    0 -0.66073686461E+02 -0.10043792443E+03 -0.44763874296E+02  0.12828605983E+03  0.00000000000E+00 0. -1.
         -5    1    5    5    0  503  0.32449072714E+02  0.11453954470E+03 -0.94632860632E+02  0.15215031361E+03  0.47000000000E+01 0.  1.
         13    1    6    6    0    0 -0.10447827698E+02  0.25541438025E+02 -0.19894928932E+01  0.27667313602E+02  0.00000000000E+00 0. -1.
        -14    1    6    6    0    0  0.74212430678E+01 -0.44045996589E+02 -0.51411523024E+02  0.68104840972E+02  0.00000000000E+00 0.  1.
</event>
<event>
12    1  0.1683022E-002  0.1779221E+03  0.7818608E-02  0.1170753E+00
         21   -1    0    0  503  502  0.00000000000E+00  0.00000000000E+00  0.25502583676E+03  0.25502583676E+03  0.00000000000E+00 0.  1.
         21   -1    0    0  501  503 -0.00000000000E+00 -0.00000000000E+00 -0.12331973427E+03  0.12331973427E+03  0.00000000000E+00 0.  1.
          6    2    1    2  501    0 -0.37603569005E+02 -0.12956252680E+02  0.43866968157E+02  0.18325006551E+03  0.17341967227E+03 0.  0.
         24    2    3    3    0    0 -0.46585970727E+02 -0.38185773795E+01 -0.38149460077E+02  0.10010582247E+03  0.79880912531E+02 0.  0.
         -6    2    1    2    0  502  0.37603569005E+02  0.12956252680E+02  0.87839134337E+02  0.19509550552E+03  0.16960144418E+03 0.  0.
        -24    2    5    5    0    0  0.68283857440E+02 -0.18179915376E+02  0.10376138578E+02  0.10602616864E+03  0.78362552760E+02 0.  0.
          5    1    3    3  501    0  0.89824017221E+01 -0.91376753004E+01  0.82016428234E+02  0.83144243041E+02  0.47000000000E+01 0. -1.
        -13    1    4    4    0    0  0.14970571998E+02 -0.20321195747E+02 -0.23988541431E+02  0.34821245563E+02  0.00000000000E+00 0.  1.
         14    1    4    4    0    0 -0.61556542726E+02  0.16502618367E+02 -0.14160918646E+02  0.65284576909E+02  0.00000000000E+00 0. -1.
         -5    1    5    5    0  502 -0.30680288435E+02  0.31136168056E+02  0.77462995760E+02  0.89069336877E+02  0.47000000000E+01 0.  1.
         13    1    6    6    0    0 -0.12495928583E+02  0.17229572949E+01 -0.14473312861E+02  0.19198791581E+02  0.00000000000E+00 0. -1.
        -14    1    6    6    0    0  0.80779786023E+02 -0.19902872671E+02  0.24849451438E+02  0.86827377061E+02  0.00000000000E+00 0.  1.
</event>
<event>
12    1  0.1683022E-002  0.1903218E+03  0.7818608E-02  0.1158436E+00
         21   -1    0    0  503  502  0.00000000000E+00  0.00000000000E+00  0.10184582571E+04  0.10184582571E+04  0.00000000000E+00 0.  1.
         21   -1    0    0  501  503 -0.00000000000E+00 -0.00000000000E+00 -0.61295573926E+02  0.61295573926E+02  0.00000000000E+00 0.  1.
          6    2    1    2  501    0  0.42486977982E+02 -0.70463620573E+02  0.12816833264E+03  0.22945477423E+03  0.17161616125E+03 0.  0.
         24    2    3    3    0    0  0.74821713700E+02  0.36445942477E+01  0.84262113440E+02  0.13732764075E+03  0.78404114970E+02 0.  0.
         -6    2    1    2    0  502 -0.42486977982E+02  0.70463620573E+02  0.82899435052E+03  0.85029905679E+03  0.17031320460E+03 0.  0.
        -24    2    5    5    0    0 -0.26330157838E+01 -0.37071040050E+02  0.20003715482E+03  0.21095463822E+03  0.55729716435E+02 0.  0.
          5    1    3    3  501    0 -0.32334735719E+02 -0.74108214821E+02  0.43906219204E+02  0.92127133477E+02  0.47000000000E+01 0. -1.
        -13    1    4    4    0    0  0.79121416965E+02 -0.12897046140E+02  0.39409184961E+02  0.89328697970E+02  0.00000000000E+00 0.  1.
         14    1    4    4    0    0 -0.42997032649E+01  0.16541640387E+02  0.44852928479E+02  0.47998942780E+02  0.00000000000E+00 0. -1.
         -5    1    5    5    0  502 -0.39853962198E+02  0.10753466062E+03  0.62895719570E+03  0.63934441857E+03  0.47000000000E+01 0.  1.
         11    1    6    6    0    0  0.88594931073E+01 -0.34108938759E+02  0.54288972380E+02  0.64724051507E+02  0.00000000000E+00 0. -1.
        -12    1    6    6    0    0 -0.11492508891E+02 -0.29621012908E+01  0.14574818244E+03  0.14623058671E+03  0.00000000000E+00 0.  1.
</event>
<event>
12    1  0.1683022E-002  0.1811378E+03  0.7818608E-02  0.1166922E+00
         21   -1    0    0  501  502  0.00000000000E+00  0.00000000000E+00  0.72225345911E+03  0.72225345911E+03  0.00000000000E+00 0. -1.
         21   -1    0    0  502  503 -0.00000000000E+00 -0.00000000000E+00 -0.70746987774E+02  0.70746987774E+02  0.00000000000E+00 0. -1.
          6    2    1    2  501    0 -0.23969418178E+02  0.46207918860E+02  0.88024910338E+02  0.20139338333E+03  0.17349698913E+03 0.  0.
         24    2    3    3    0    0 -0.52429177451E+02  0.18586236293E+02  0.11706776434E+03  0.15201228761E+03  0.79426741790E+02 0.  0.
         -6    2    1    2    0  503  0.23969418178E+02 -0.46207918860E+02  0.56348156100E+03  0.59160706356E+03  0.17256228815E+03 0.  0.
        -24    2    5    5    0    0  0.24544018522E+02 -0.86683843888E+02  0.50711140653E+03  0.52204906627E+03  0.85186567701E+02 0.  0.
          5    1    3    3  501    0  0.28459759273E+02  0.27621682567E+02 -0.29042853998E+02  0.49381095716E+02  0.47000000000E+01 0. -1.
        -11    1    4    4    0    0 -0.11028395218E+02 -0.30640758245E+02  0.36438902775E+02  0.48869982631E+02  0.00000000000E+00 0.  1.
         12    1    4    4    0    0 -0.41400782234E+02  0.49226994537E+02  0.80628861561E+02  0.10314230498E+03  0.00000000000E+00 0. -1.
         -5    1    5    5    0  503 -0.57460034385E+00  0.40475925029E+02  0.56370154468E+02  0.69557997292E+02  0.47000000000E+01 0.  1.
         11    1    6    6    0    0 -0.18012275662E+02  0.23702241811E+01  0.16462160396E+03  0.16562105098E+03  0.00000000000E+00 0. -1.
        -12    1    6    6    0    0  0.42556294184E+02 -0.89054068069E+02  0.34248980257E+03  0.35642801528E+03  0.00000000000E+00 0.  1.
</event>
<event>
12    1  0.1683022E-002  0.2005651E+03  0.7818608E-02  0.1149316E+00
         21   -1    0    0  501  502  0.00000000000E+00  0.00000000000E+00  0.36950842879E+03  0.36950842879E+03  0.00000000000E+00 0.  1.
         21   -1    0    0  502  503 -0.00000000000E+00 -0.00000000000E+00 -0.11284465134E+03  0.11284465134E+03  0.00000000000E+00 0. -1.
          6    2    1    2  501    0 -0.10027144501E+03  0.20326543437E+02  0.17447519363E+03  0.26583444441E+03  0.17250747111E+03 0.  0.
         24    2    3    3    0    0 -0.94016536455E+02  0.43827624963E+01  0.34738535605E+02  0.12497369179E+03  0.74520735709E+02 0.  0.
         -6    2    1    2    0  503  0.10027144501E+03 -0.20326543437E+02  0.82188583823E+02  0.21651863572E+03  0.17221447457E+03 0.  0.
        -24    2    5    5    0    0  0.40756115670E+02  0.22288999846E+02  0.10199783699E+03  0.14054064241E+03  0.84795359191E+02 0.  0.
          5    1    3    3  501    0 -0.62549085552E+01  0.15943780941E+02  0.13973665802E+03  0.14086075262E+03  0.47000000000E+01 0. -1.
        -13    1    4    4    0    0 -0.84813934510E+02  0.29869764132E+02  0.38119093707E+02  0.97666123100E+02  0.00000000000E+00 0.  1.
         14    1    4    4    0    0 -0.92026019454E+01 -0.25487001635E+02 -0.33805581024E+01  0.27307568694E+02  0.00000000000E+00 0. -1.
         -5    1    5    5    0  503  0.59515329341E+02 -0.42615543283E+02 -0.19809253169E+02  0.75977993307E+02  0.47000000000E+01 0.  1.
         13    1    6    6    0    0  0.30485883444E+02 -0.23797180848E+02  0.14856738327E+02  0.41429670279E+02  0.00000000000E+00 0. -1.
        -14    1    6    6    0    0  0.10270232226E+02  0.46086180694E+02  0.87141098665E+02  0.99110972135E+02  0.00000000000E+00 0.  1.
</event>
<event>
12    1  0.1683022E-002  0.1934982E+03  0.7818608E-02  0.1155440E+00
         21   -1    0    0  503  502  0.00000000000E+00  0.00000000000E+00  0.24692429029E+03  0.24692429029E+03  0.00000000000E+00 0.  1.
         21   -1    0    0  501  503 -0.00000000000E+00 -0.00000000000E+00 -0.22327093199E+03  0.22327093199E+03  0.00000000000E+00 0. -1.
          6    2    1    2  501    0 -0.56406883199E+02  0.67729239059E+02 -0.12167005918E+03  0.22820252384E+03  0.17176670890E+03 0.  0.
         24    2    3    3    0    0 -0.86561075358E+02  0.31570462139E+02 -0.33657737242E+02  0.12827759568E+03  0.82660658300E+02 0.  0.
         -6    2    1    2    0  502  0.56406883199E+02 -0.67729239059E+02  0.14532341749E+03  0.24199269845E+03  0.17225731955E+03 0.  0.
        -24    2    5    5    0    0  0.60031744982E+02 -0.98776506654E+02  0.15494760723E+03  0.20895049095E+03  0.79315433622E+02 0.  0.
          5    1    3    3  501    0  0.30154192160E+02  0.36158776920E+02 -0.88012321941E+02  0.99924928154E+02  0.47000000000E+01 0. -1.
        -13    1    4    4    0    0 -0.73428860398E+02  0.23676323530E+02 -0.60045324937E+02  0.97764036752E+02  0.00000000000E+00 0.  1.
         14    1    4    4    0    0 -0.13132214960E+02  0.78941386095E+01  0.26387587695E+02  0.30513558929E+02  0.00000000000E+00 0. -1.
         -5    1    5    5    0  502 -0.36248617834E+01  0.31047267595E+02 -0.96241897452E+01  0.33042207498E+02  0.47000000000E+01 0.  1.
         13    1    6    6    0    0  0.13737664412E+02  0.99428133636E+01  0.43121055680E+01  0.17497920320E+02  0.00000000000E+00 0. -1.
        -14    1    6    6    0    0  0.46294080570E+02 -0.10871932002E+03  0.15063550166E+03  0.19145257063E+03  0.00000000000E+00 0.  1.
</event>
<event>
12    1  0.1683022E-002  0.2121157E+03  0.7818608E-02  0.1141431E+00
         21   -1    0    0  501  502  0.00000000000E+00  0.00000000000E+00  0.45315071285E+03  0.45315071285E+03  0.00000000000E+00 0. -1.
         21   -1    0    0  502  503 -0.00000000000E+00 -0.00000000000E+00 -0.96182020061E+02  0.96182020061E+02  0.00000000000E+00 0. -1.
          6    2    1    2  501    0  0.53069275533E+02 -0.10763696996E+03  0.15639410407E+03  0.25740251015E+03  0.16551396055E+03 0.  0.
         24    2    3    3    0    0  0.43736001801E+02 -0.44136551029E+02  0.16415802769E+03  0.19258135841E+03  0.79239185764E+02 0.  0.
         -6    2    1    2    0  503 -0.53069275533E+02  0.10763696996E+03  0.20057458871E+03  0.29193022276E+03  0.17490289881E+03 0.  0.
        -24    2    5    5    0    0  0.35335381370E+02  0.82080399260E+02  0.10534876561E+03  0.15942147190E+03  0.79567971994E+02 0.  0.
          5    1    3    3  501    0  0.93332737323E+01 -0.63500418932E+02 -0.77639236213E+01  0.64821151741E+02  0.47000000000E+01 0. -1.
        -13    1    4    4    0    0  0.53807361213E+02 -0.60561224920E+02  0.12527698331E+03  0.14918852714E+03  0.00000000000E+00 0.  1.
         14    1    4    4    0    0 -0.10071359412E+02  0.16424673891E+02  0.38881044386E+02  0.43392831267E+02  0.00000000000E+00 0. -1.
         -5    1    5    5    0  503 -0.88404656904E+02  0.25556570702E+02  0.95225823107E+02  0.13250875086E+03  0.47000000000E+01 0.  1.
         13    1    6    6    0    0  0.79750884834E+01  0.86344051215E+02  0.57201232429E+02  0.10387915194E+03  0.00000000000E+00 0. -1.
        -14    1    6    6    0    0  0.27360292887E+02 -0.42636519551E+01  0.48147533179E+02  0.55542319955E+02  0.00000000000E+00 0.  1.
</event>
<event>
12    1  0.1683022E-002  0.1832629E+03  0.7818608E-02  0.1164726E+00
         21   -1    0    0  503  502  0.00000000000E+00  0.00000000000E+00  0.59897902683E+03  0.59897902683E+03  0.00000000000E+00 0.  1.
         21   -1    0    0  501  503 -0.00000000000E+00 -0.00000000000E+00 -0.58136964501E+02  0.58136964501E+02  0.00000000000E+00 0.  1.
          6    2    1    2  501    0 -0.61832085445E+02  0.17419885034E+02  0.20777297214E+03  0.27704671214E+03  0.17163511753E+03 0.  0.
         24    2    3    3    0    0  0.18993877143E+02 -0.13732417991E+02  0.15238761991E+03  0.17412475406E+03  0.80920310202E+02 0.  0.
         -6    2    1    2    0  502  0.61832085445E+02 -0.17419885034E+02  0.33306909019E+03  0.38006927920E+03  0.17143797410E+03 0.  0.
        -24    2    5    5    0    0 -0.10084853287E+02 -0.57440902998E+02  0.18830336388E+03  0.21347716212E+03  0.81933999644E+02 0.  0.
          5    1    3    3  501    0 -0.80825962589E+02  0.31152303025E+02  0.55385352234E+02  0.10292195808E+03  0.47000000000E+01 0. -1.
        -13    1    4    4    0    0 -0.30558402684E+02 -0.16089176889E+02  0.58346396131E+02  0.67801028967E+02  0.00000000000E+00 0.  1.
         14    1    4    4    0    0  0.49552279827E+02  0.23567588982E+01  0.94041223778E+02  0.10632372510E+03  0.00000000000E+00 0. -1.
         -5    1    5    5    0  502  0.71916938733E+02  0.40021017964E+02  0.14476572632E+03  0.16659211707E+03  0.47000000000E+01 0.  1.
         11    1    6    6    0    0  0.20748528009E+02 -0.61780658276E+02  0.15359086214E+03  0.16684574937E+03  0.00000000000E+00 0. -1.
        -12    1    6    6    0    0 -0.30833381297E+02  0.43397552782E+01  0.34712501737E+02  0.46631412748E+02  0.00000000000E+00 0.  1.
</event>
<event>
12    1  0.1683022E-002  0.1830359E+03  0.7818608E-02  0.1165940E+00
         21   -1    0    0  503  502  0.00000000000E+00  0.00000000000E+00  0.89747535690E+02  0.89747535690E+02  0.00000000000E+00 0. -1.
         21   -1    0    0  501  503 -0.00000000000E+00 -0.00000000000E+00 -0.64143635574E+03  0.64143635574E+03  0.00000000000E+00 0. -1.
          6    2    1    2  501    0  0.47572724041E+02  0.25167710080E+01 -0.51418070179E+03  0.54434441371E+03  0.17221947750E+03 0.  0.
         24    2    3    3    0    0  0.88915868654E+02 -0.15553288952E+02 -0.27190591063E+03  0.29785922732E+03  0.81482259247E+02 0.  0.
         -6    2    1    2    0  502 -0.47572724041E+02 -0.25167710080E+01 -0.37508118264E+02  0.18683947773E+03  0.17672756800E+03 0.  0.
        -24    2    5    5    0    0  0.32924171542E+02  0.35923193268E+02 -0.24366865083E+02  0.96550145094E+02  0.79710159437E+02 0.  0.
          5    1    3    3  501    0 -0.41343144614E+02  0.18070059960E+02 -0.24227479116E+03  0.24648518638E+03  0.47000000000E+01 0. -1.
        -11    1    4    4    0    0  0.30605472400E+02  0.18814980676E+02 -0.30445818186E+02  0.47091891910E+02  0.00000000000E+00 0.  1.
         12    1    4    4    0    0  0.58310396254E+02 -0.34368269629E+02 -0.24146009244E+03  0.25076733541E+03  0.00000000000E+00 0. -1.
         -5    1    5    5    0  502 -0.80496895582E+02 -0.38439964276E+02 -0.13141253181E+02  0.90289332632E+02  0.47000000000E+01 0.  1.
         13    1    6    6    0    0 -0.15238638348E+02  0.32910301307E+02  0.96257302321E+01  0.37522775927E+02  0.00000000000E+00 0. -1.
        -14    1    6    6    0    0  0.48162809890E+02  0.30128919614E+01 -0.33992595315E+02  0.59027369166E+02  0.00000000000E+00 0.  1.
</event>
<event>
12    1  0.1683022E-002  0.2113114E+03  0.7818608E-02  0.1140681E+00
         21   -1    0    0  503  502  0.00000000000E+00  0.00000000000E+00  0.13466942996E+03  0.13466942996E+03  0.00000000000E+00 0. -1.
         21   -1    0    0  501  503 -0.00000000000E+00 -0.00000000000E+00 -0.37028372750E+03  0.37028372750E+03  0.00000000000E+00 0. -1.
          6    2    1    2  501    0 -0.12394896610E+03 -0.17289891890E+01 -0.20087191299E+03  0.29155106395E+03  0.17113200128E+03 0.  0.
         24    2    3    3    0    0 -0.68935171531E+02  0.38254540098E+02 -0.29320312553E+02  0.10695084234E+03  0.66055539029E+02 0.  0.
         -6    2    1    2    0  502  0.12394896610E+03  0.17289891890E+01 -0.34742384545E+02  0.21340209351E+03  0.17019719337E+03 0.  0.
        -24    2    5    5    0    0  0.32119426991E+02  0.55976228283E+02 -0.82184357026E+01  0.10339737968E+03  0.80364667091E+02 0.  0.
          5    1    3    3  501    0 -0.55013794567E+02 -0.39983529287E+02 -0.17155160044E+03  0.18460022162E+03  0.47000000000E+01 0. -1.
        -11    1    4    4    0    0 -0.37921840645E+02  0.54029858212E+02 -0.29139594493E+02  0.72155440152E+02  0.00000000000E+00 0.  1.
         12    1    4    4    0    0 -0.31013330886E+02 -0.15775318114E+02 -0.18071806079E+00  0.34795402186E+02  0.00000000000E+00 0. -1.
         -5    1    5    5    0  502  0.91829539107E+02 -0.54247239094E+02 -0.26523948842E+02  0.11000471383E+03  0.47000000000E+01 0.  1.
         13    1    6    6    0    0  0.68253043189E+01  0.28181801558E+02  0.35440807789E+02  0.45791370091E+02  0.00000000000E+00 0. -1.
        -14    1    6    6    0    0  0.25294122672E+02  0.27794426725E+02 -0.43659243491E+02  0.57606009590E+02  0.00000000000E+00 0.  1.
</event>
<event>
12    1  0.1683022E-002  0.2626305E+03  0.7818608E-02  0.1105701E+00
         21   -1    0    0  501  502  0.00000000000E+00  0.00000000000E+00  0.16628770299E+03  0.16628770299E+03  0.00000000000E+00 0. -1.
         21   -1    0    0  502  503 -0.00000000000E+00 -0.00000000000E+00 -0.43602019905E+03  0.43602019905E+03  0.00000000000E+00 0. -1.
          6    2    1    2  501    0 -0.14304054215E+03  0.13526022297E+03 -0.66535712429E+02  0.27092765858E+03  0.17383575737E+03 0.  0.
         24    2    3    3    0    0 -0.78648836285E+02  0.10506173348E+02 -0.66511282133E+02  0.13045718026E+03  0.79368168078E+02 0.  0.
         -6    2    1    2    0  503  0.14304054215E+03 -0.13526022297E+03 -0.20319678363E+03  0.33138024346E+03  0.17253407856E+03 0.  0.
        -24    2    5    5    0    0  0.75873375781E+02 -0.11279680437E+03 -0.20590088765E+03  0.26034901377E+03  0.83105626819E+02 0.  0.
          5    1    3    3  501    0 -0.64391705863E+02  0.12475404962E+03 -0.24430296154E-01  0.14047047832E+03  0.47000000000E+01 0. -1.
        -11    1    4    4    0    0 -0.35747686168E+01  0.32043927327E+02 -0.30756626240E+02  0.44559648864E+02  0.00000000000E+00 0.  1.
         12    1    4    4    0    0 -0.75074067668E+02 -0.21537753979E+02 -0.35754655893E+02  0.85897531400E+02  0.00000000000E+00 0. -1.
         -5    1    5    5    0  503  0.67167166366E+02 -0.22463418607E+02  0.27041040199E+01  0.71031229693E+02  0.47000000000E+01 0.  1.
         13    1    6    6    0    0  0.54363623677E+02 -0.10619266043E+03 -0.11146270752E+03  0.16326732642E+03  0.00000000000E+00 0. -1.
        -14    1    6    6    0    0  0.21509752104E+02 -0.66041439349E+01 -0.94438180128E+02  0.97081687349E+02  0.00000000000E+00 0.  1.
</event>
<event>
12    1  0.1683022E-002  0.2372672E+03  0.7818608E-02  0.1121701E+00
         21   -1    0    0  503  502  0.00000000000E+00  0.00000000000E+00  0.37277302535E+03  0.37277302535E+03  0.00000000000E+00 0. -1.
         21   -1    0    0  501  503 -0.00000000000E+00 -0.00000000000E+00 -0.27274307585E+03  0.27274307585E+03  0.00000000000E+00 0. -1.
          6    2    1    2  501    0  0.12908203727E+03 -0.98292155849E+02 -0.16587688028E+03  0.28914249044E+03  0.17252454932E+03 0.  0.
         24    2    3    3    0    0  0.45210693220E+02 -0.11359585144E+03 -0.76438637965E+02  0.16549017692E+03  0.81216433283E+02 0.  0.
         -6    2    1    2    0  502 -0.12908203727E+03  0.98292155849E+02  0.26590682979E+03  0.35637361075E+03  0.17312477600E+03 0.  0.
        -24    2    5    5    0    0 -0.13176255057E+03  0.95560664234E+02  0.28417269192E+03  0.33712840571E+03  0.80051438583E+02 0.  0.
          5    1    3    3  501    0  0.83871344051E+02  0.15303695592E+02 -0.89438242319E+02  0.12365231353E+03  0.47000000000E+01 0. -1.
        -13    1    4    4    0    0  0.52264523454E+02 -0.38371894819E+02 -0.11471385598E+02  0.65845086464E+02  0.00000000000E+00 0.  1.
         14    1    4    4    0    0 -0.70538302339E+01 -0.75223956622E+02 -0.64967252367E+02  0.99645090451E+02  0.00000000000E+00 0. -1.
         -5    1    5    5    0  502  0.26805132976E+01  0.27314916148E+01 -0.18265862130E+02  0.19245205048E+02  0.47000000000E+01 0.  1.
         13    1    6    6    0    0 -0.13251351971E+03  0.64697314189E+02  0.20829421036E+03  0.25520982238E+03  0.00000000000E+00 0. -1.
        -14    1    6    6    0    0  0.75096913761E+00  0.30863350045E+02  0.75878481562E+02  0.81918583330E+02  0.00000000000E+00 0.  1.
</event>
<event>
12    1  0.1683022E-002  0.2046722E+03  0.7818608E-02  0.1146446E+00
         21   -1    0    0  503  502  0.00000000000E+00  0.00000000000E+00  0.91447560243E+02  0.91447560243E+02  0.00000000000E+00 0. -1.
         21   -1    0    0  501  503 -0.00000000000E+00 -0.00000000000E+00 -0.52261272888E+03  0.52261272888E+03  0.00000000000E+00 0.  1.
          6    2    1    2  501    0 -0.96386677052E+02  0.42710408518E+02 -0.32736124808E+03  0.38456962181E+03  0.17208671294E+03 0.  0.
         24    2    3    3    0    0 -0.73916731515E+02  0.77761570016E+02 -0.14173247813E+03  0.19427087613E+03  0.78374313312E+02 0.  0.
         -6    2    1    2    0  502  0.96386677052E+02 -0.42710408518E+02 -0.10380392055E+03  0.22949066731E+03  0.17543130265E+03 0.  0.
        -24    2    5    5    0    0  0.12455656207E+03 -0.24571605667E+02 -0.12069084794E+03  0.19167774746E+03  0.77820158924E+02 0.  0.
          5    1    3    3  501    0 -0.22469945536E+02 -0.35051161498E+02 -0.18562876995E+03  0.19029874568E+03  0.47000000000E+01 0. -1.
        -13    1    4    4    0    0 -0.21814377196E+02  0.30483233746E+02 -0.11161292857E+03  0.11773929003E+03  0.00000000000E+00 0.  1.
         14    1    4    4    0    0 -0.52102354320E+02  0.47278336270E+02 -0.30119549559E+02  0.76531586105E+02  0.00000000000E+00 0. -1.
         -5    1    5    5    0  502 -0.28169885020E+02 -0.18138802851E+02  0.16886927384E+02  0.37812919847E+02  0.47000000000E+01 0.  1.
         11    1    6    6    0    0  0.39720879500E+02 -0.15929909048E+02  0.13249443847E+01  0.42816652697E+02  0.00000000000E+00 0. -1.
        -12    1    6    6    0    0  0.84835682572E+02 -0.86416966196E+01 -0.12201579232E+03  0.14886109476E+03  0.00000000000E+00 0.  1.
</event>
<event>
12    1  0.1683022E-002  0.2015193E+03  0.7818608E-02  0.1148642E+00
         21   -1    0    0  501  502  0.00000000000E+00  0.00000000000E+00  0.50111935116E+02  0.50111935116E+02  0.00000000000E+00 0. -1.
         21   -1    0    0  502  503 -0.00000000000E+00 -0.00000000000E+00 -0.96602082901E+03  0.96602082901E+03  0.00000000000E+00 0. -1.
          6    2    1    2  501    0  0.23331468841E+02 -0.10124384132E+03 -0.25260173978E+03  0.32313722290E+03  0.17267122817E+03 0.  0.
         24    2    3    3    0    0 -0.46692569598E+01 -0.39621395361E+01 -0.44598844009E+02  0.91760766018E+02  0.79959244513E+02 0.  0.
         -6    2    1    2    0  503 -0.23331468841E+02  0.10124384132E+03 -0.66330715411E+03  0.69299554123E+03  0.17167343016E+03 0.  0.
        -24    2    5    5    0    0  0.45670392901E+01  0.78831456088E+02 -0.20641256338E+03  0.23467753067E+03  0.78943908956E+02 0.  0.
          5    1    3    3  501    0  0.28000725800E+02 -0.97281701785E+02 -0.20800289577E+03  0.23137645688E+03  0.47000000000E+01 0. -1.
        -11    1    4    4    0    0  0.30001807704E+02  0.14923415292E+02 -0.39740559150E+02  0.51982004877E+02  0.00000000000E+00 0.  1.
         12    1    4    4    0    0 -0.34671064664E+02 -0.18885554828E+02 -0.48582848593E+01  0.39778761141E+02  0.00000000000E+00 0. -1.
         -5    1    5    5    0  503 -0.27898508131E+02  0.22412385233E+02 -0.45689459073E+03  0.45831801056E+03  0.47000000000E+01 0.  1.
         11    1    6    6    0    0 -0.12419197524E+02  0.83568507638E+02 -0.12171503981E+03  0.14816370288E+03  0.00000000000E+00 0. -1.
        -12    1    6    6    0    0  0.16986236815E+02 -0.47370515504E+01 -0.84697523576E+02  0.86513827787E+02  0.00000000000E+00 0.  1.
</event>
<event>
12    1  0.1683022E-002  0.1839018E+03  0.7818608E-02  0.1164240E+00
         21   -1    0    0  501  502  0.00000000000E+00  0.00000000000E+00  0.61872992165E+02  0.61872992165E+02  0.00000000000E+00 0.  1.
         21   -1    0    0  502  503 -0.00000000000E+00 -0.00000000000E+00 -0.54602697275E+03  0.54602697275E+03  0.00000000000E+00 0.  1.
          6    2    1    2  501    0 -0.27469351060E+02  0.58708906336E+02 -0.22598145306E+03  0.29092534169E+03  0.17137279942E+03 0.  0.
         24    2    3    3    0    0 -0.26057108857E+02  0.64575029100E+02 -0.57438017572E+02  0.12220846206E+03  0.82382492268E+02 0.  0.
         -6    2    1    2    0  503  0.27469351060E+02 -0.58708906336E+02 -0.25817252752E+03  0.31697462322E+03  0.17210042670E+03 0.  0.
        -24    2    5    5    0    0 -0.26533667654E+02 -0.60642008408E+02 -0.77643191860E+02  0.12847264990E+03  0.78072196242E+02 0.  0.
          5    1    3    3  501    0 -0.14122422023E+01 -0.58661227640E+01 -0.16854343549E+03  0.16871687963E+03  0.47000000000E+01 0. -1.
        -13    1    4    4    0    0  0.24955149343E+02 -0.95807650275E-01 -0.18706371795E+02  0.31188090733E+02  0.00000000000E+00 0.  1.
         14    1    4    4    0    0 -0.51012258201E+02  0.64670836750E+02 -0.38731645778E+02  0.91020371332E+02  0.00000000000E+00 0. -1.
         -5    1    5    5    0  503  0.54003018713E+02  0.19331020715E+01 -0.18052933566E+03  0.18850197332E+03  0.47000000000E+01 0.  1.
         13    1    6    6    0    0  0.16101532229E+02 -0.40998723728E+02 -0.84372212856E+01  0.44847980896E+02  0.00000000000E+00 0. -1.
        -14    1    6    6    0    0 -0.42635199883E+02 -0.19643284680E+02 -0.69205970575E+02  0.83624668999E+02  0.00000000000E+00 0.  1.
</event>
<event>
12    1  0.1683022E-002  0.1761201E+03  0.7818608E-02  0.1171960E+00
         21   -1    0    0  501  502  0.00000000000E+00  0.00000000000E+00  0.12699720296E+03  0.12699720296E+03  0.00000000000E+00 0.  1.
         21   -1    0    0  502  503 -0.00000000000E+00 -0.00000000000E+00 -0.37218109492E+03  0.37218109492E+03  0.00000000000E+00 0.  1.
          6    2    1    2  501    0 -0.19189157003E+02 -0.64418564962E+00 -0.26970841085E+03  0.32135888848E+03  0.17366712297E+03 0.  0.
         24    2    3    3    0    0 -0.22435690986E+02  0.65980710694E+02 -0.14133214909E+03  0.17661093037E+03  0.79748541959E+02 0.  0.
         -6    2    1    2    0  503  0.19189157003E+02  0.64418564962E+00  0.24524518886E+02  0.17781940940E+03  0.17507041900E+03 0.  0.
        -24    2    5    5    0    0  0.51564349016E+02  0.57142224342E+02  0.13338318370E+02  0.11158193876E+03  0.79677490102E+02 0.  0.
          5    1    3    3  501    0  0.32465339826E+01 -0.66624896344E+02 -0.12837626176E+03  0.14474795812E+03  0.47000000000E+01 0. -1.
        -11    1    4    4    0    0 -0.15328894595E+02  0.45928977924E+02 -0.14685545451E+03  0.15463172554E+03  0.00000000000E+00 0.  1.
         12    1    4    4    0    0 -0.71067963907E+01  0.20051732770E+02  0.55233054235E+01  0.21979204827E+02  0.00000000000E+00 0. -1.
         -5    1    5    5    0  503 -0.32375192013E+02 -0.56498038692E+02  0.11186200516E+02  0.66237470633E+02  0.47000000000E+01 0.  1.
         11    1    6    6    0    0 -0.63383052865E+00 -0.17756697302E+02 -0.50143800567E+01  0.18462016346E+02  0.00000000000E+00 0. -1.
        -12    1    6    6    0    0  0.52198179545E+02  0.74898921644E+02  0.18352698426E+02  0.93119922416E+02  0.00000000000E+00 0.  1.
</event>
<event>
12    1  0.1683022E-002  0.2403215E+03  0.7818608E-02  0.1119637E+00
         21   -1    0    0  501  502  0.00000000000E+00  0.00000000000E+00  0.11243091341E+04  0.11243091341E+04  0.00000000000E+00 0. -1.
         21   -1    0    0  502  503 -0.00000000000E+00 -0.00000000000E+00 -0.95120743212E+02  0.95120743212E+02  0.00000000000E+00 0.  1.
          6    2    1    2  501    0 -0.16734989556E+03 -0.13723392650E+02  0.92865642366E+03  0.95924822267E+03  0.17193045236E+03 0.  0.
         24    2    3    3    0    0 -0.59938883364E+00  0.14493615201E+01  0.14647851971E+03  0.15933553532E+03  0.62684895815E+02 0.  0.
         -6    2    1    2    0  503  0.16734989556E+03  0.13723392650E+02  0.10053196725E+03  0.26018165465E+03  0.17144532052E+03 0.  0.
        -24    2    5    5    0    0  0.14346488505E+03  0.38851913487E+02  0.17025548009E+02  0.16964244580E+03  0.79981533537E+02 0.  0.
          5    1    3    3  501    0 -0.16675050673E+03 -0.15172754170E+02  0.78217790395E+03  0.79991268735E+03  0.47000000000E+01 0. -1.
        -13    1    4    4    0    0 -0.20574061971E+02 -0.12038936459E+02  0.21650928567E+02  0.32202340363E+02  0.00000000000E+00 0.  1.
         14    1    4    4    0    0  0.19974673137E+02  0.13488297979E+02  0.12482759114E+03  0.12713319495E+03  0.00000000000E+00 0. -1.
         -5    1    5    5    0  503  0.23885010512E+02 -0.25128520837E+02  0.83506419236E+02  0.90539208856E+02  0.47000000000E+01 0.  1.
         13    1    6    6    0    0  0.60091573367E+02 -0.26067294927E+01 -0.27846972605E+02  0.66281566906E+02  0.00000000000E+00 0. -1.
        -14    1    6    6    0    0  0.83373311686E+02  0.41458642979E+02  0.44872520614E+02  0.10336087889E+03  0.00000000000E+00 0.  1.
</event>
<event>
12    1  0.1683022E-002  0.1817257E+03  0.7818608E-02  0.1166675E+00
         21   -1    0    0  501  502  0.00000000000E+00  0.00000000000E+00  0.19743692430E+03  0.19743692430E+03  0.00000000000E+00 0. -1.
         21   -1    0    0  502  503 -0.00000000000E+00 -0.00000000000E+00 -0.17733958963E+03  0.17733958963E+03  0.00000000000E+00 0. -1.
          6    2    1    2  501    0 -0.23100326097E+02 -0.56629580448E+02  0.59063467653E+02  0.19108304758E+03  0.17112481823E+03 0.  0.
         24    2    3    3    0    0 -0.57518316498E+02 -0.46462922420E+02 -0.14576122989E+02  0.10902917315E+03  0.78789195605E+02 0.  0.
         -6    2    1    2    0  503  0.23100326097E+02  0.56629580448E+02 -0.38966132975E+02  0.18369346635E+03  0.16877320763E+03 0.  0.
        -24    2    5    5    0    0  0.67452136837E+02  0.54451673074E+02 -0.61969482572E+02  0.13346329127E+03  0.80358309345E+02 0.  0.
          5    1    3    3  501    0  0.34417990401E+02 -0.10166658028E+02  0.73639590643E+02  0.82053874428E+02  0.47000000000E+01 0. -1.
        -11    1    4    4    0    0 -0.96529735275E+01  0.32643459413E+01  0.26720240417E+02  0.28597326803E+02  0.00000000000E+00 0.  1.
         12    1    4    4    0    0 -0.47865342971E+02 -0.49727268361E+02 -0.41296363406E+02  0.80431846348E+02  0.00000000000E+00 0. -1.
         -5    1    5    5    0  503 -0.44351810740E+02  0.21779073741E+01  0.23003349597E+02  0.50230175086E+02  0.47000000000E+01 0.  1.
         13    1    6    6    0    0  0.47123308577E+02  0.69522807766E+02 -0.23143988093E+02  0.87118718974E+02  0.00000000000E+00 0. -1.
        -14    1    6    6    0    0  0.20328828260E+02 -0.15071134692E+02 -0.38825494479E+02  0.46344572292E+02  0.00000000000E+00 0.  1.
</event>
<event>
12    1  0.1683022E-002  0.2058262E+03  0.7818608E-02  0.1146063E+00
         21   -1    0    0  503  502  0.00000000000E+00  0.00000000000E+00  0.32352249488E+03  0.32352249488E+03  0.00000000000E+00 0.  1.
         21   -1    0    0  501  503 -0.00000000000E+00 -0.00000000000E+00 -0.12989047552E+03  0.12989047552E+03  0.00000000000E+00 0.  1.
          6    2    1    2  501    0 -0.72227218806E+02 -0.74049790619E+02  0.64296810528E+02  0.21032445484E+03  0.17147056259E+03 0.  0.
         24    2    3    3    0    0  0.12545168784E+02 -0.35169141873E+01  0.56047395133E+02  0.99638470141E+02  0.81343495657E+02 0.  0.
         -6    2    1    2    0  502  0.72227218806E+02  0.74049790619E+02  0.12933520884E+03  0.24308851555E+03  0.17794461925E+03 0.  0.
        -24    2    5    5    0    0  0.37537540571E+02 -0.27405838774E+02  0.64535638741E+02  0.11771829263E+03  0.86790557092E+02 0.  0.
          5    1    3    3  501    0 -0.84772387590E+02 -0.70532876431E+02  0.82494153951E+01  0.11068598470E+03  0.47000000000E+01 0. -1.
        -11    1    4    4    0    0  0.11670829105E+02 -0.74750155796E+01 -0.19532472334E+02  0.23949980906E+02  0.00000000000E+00 0.  1.
         12    1    4    4    0    0  0.87433967962E+00  0.39581013922E+01  0.75579867467E+02  0.75688489236E+02  0.00000000000E+00 0. -1.
         -5    1    5    5    0  502  0.34689678235E+02  0.10145562939E+03  0.64799570100E+02  0.12537022293E+03  0.47000000000E+01 0.  1.
         11    1    6    6    0    0  0.50915745978E+01 -0.26556729254E+02  0.78018930938E+02  0.82572014540E+02  0.00000000000E+00 0. -1.
        -12    1    6    6    0    0  0.32445965973E+02 -0.84910951983E+00 -0.13483292197E+02  0.35146278087E+02  0.00000000000E+00 0.  1.
</event>
<event>
12    1  0.1683022E-002  0.1863957E+03  0.7818608E-02  0.1162302E+00
         21   -1    0    0  501  502  0.00000000000E+00  0.00000000000E+00  0.11796124948E+04  0.11796124948E+04  0.00000000000E+00 0. -1.
         21   -1    0    0  502  503 -0.00000000000E+00 -0.00000000000E+00 -0.54296401590E+02  0.54296401590E+02  0.00000000000E+00 0. -1.
          6    2    1    2  501    0  0.17636804287E+02 -0.62908166924E+02  0.98116562428E+03  0.99827628591E+03  0.17204960453E+03 0.  0.
         24    2    3    3    0    0  0.72830171854E+02 -0.12681186236E+02  0.62064971395E+03  0.63008765354E+03  0.79619955371E+02 0.  0.
         -6    2    1    2    0  503 -0.17636804287E+02  0.62908166924E+02  0.14415046889E+03  0.23563261044E+03  0.17457054473E+03 0.  0.
        -24    2    5    5    0    0 -0.29306733650E+02  0.95357174701E+02  0.53703107443E+02  0.13872058564E+03  0.80046872066E+02 0.  0.
          5    1    3    3  501    0 -0.55193367567E+02 -0.50226980688E+02  0.36051591033E+03  0.36818863238E+03  0.47000000000E+01 0. -1.
        -13    1    4    4    0    0  0.57150130408E+02  0.27490180571E+02  0.42782246137E+03  0.43249729003E+03  0.00000000000E+00 0.  1.
         14    1    4    4    0    0  0.15680041447E+02 -0.40171366807E+02  0.19282725259E+03  0.19759036351E+03  0.00000000000E+00 0. -1.
         -5    1    5    5    0  503  0.11669929363E+02 -0.32449007777E+02  0.90447361452E+02  0.96912024799E+02  0.47000000000E+01 0.  1.
         13    1    6    6    0    0  0.16319810445E+02  0.57801954568E+02  0.18315333405E+01  0.60089572134E+02  0.00000000000E+00 0. -1.
        -14    1    6    6    0    0 -0.45626544096E+02  0.37555220132E+02  0.51871574102E+02  0.78631013507E+02  0.00000000000E+00 0.  1.
</event>
<event>
12    1  0.1683022E-002  0.1970606E+03  0.7818608E-02  0.1152363E+00
         21   -1    0    0  501  502  0.00000000000E+00  0.00000000000E+00  0.47013269479E+02  0.47013269479E+02  0.00000000000E+00 0.  1.
         21   -1    0    0  502  503 -0.00000000000E+00 -0.00000000000E+00 -0.82446246574E+03  0.82446246574E+03  0.00000000000E+00 0.  1.
          6    2    1    2  501    0 -0.92716461336E+02 -0.24140863573E+02 -0.40283547967E+03  0.44845211237E+03  0.17220264202E+03 0.  0.
         24    2    3    3    0    0  0.12695129971E+02 -0.29886991826E+02 -0.13035065813E+03  0.15619419625E+03  0.79692749109E+02 0.  0.
         -6    2    1    2    0  503  0.92716461336E+02  0.24140863573E+02 -0.37461371660E+03  0.42302362285E+03  0.17156463892E+03 0.  0.
        -24    2    5    5    0    0  0.12933572048E+03  0.19581901318E+02 -0.26290582906E+03  0.30528451968E+03  0.83474448485E+02 0.  0.
          5    1    3    3  501    0 -0.10541159131E+03  0.57461282528E+01 -0.27248482153E+03  0.29225791613E+03  0.47000000000E+01 0. -1.
        -11    1    4    4    0    0 -0.10322101768E+02 -0.45091929709E+02 -0.38166186918E+02  0.59970707297E+02  0.00000000000E+00 0.  1.
         12    1    4    4    0    0  0.23017231739E+02  0.15204937883E+02 -0.92184471212E+02  0.96223488949E+02  0.00000000000E+00 0. -1.
         -5    1    5    5    0  503 -0.36619259144E+02  0.45589622553E+01 -0.11170788754E+03  0.11773910317E+03  0.47000000000E+01 0.  1.
         13    1    6    6    0    0  0.92546457825E+02 -0.26237832405E+02 -0.15524491570E+03  0.18263147198E+03  0.00000000000E+00 0. -1.
        -14    1    6    6    0    0  0.36789262655E+02  0.45819733723E+02 -0.10766091336E+03  0.12265304770E+03  0.00000000000E+00 0.  1.
</event>
<event>
12    1  0.1683022E-002  0.2217283E+03  0.7818608E-02  0.1133804E+00
         21   -1    0    0  503  502  0.00000000000E+00  0.00000000000E+00  0.17480792074E+03  0.17480792074E+03  0.00000000000E+00 0. -1.
         21   -1    0    0  501  503 -0.00000000000E+00 -0.00000000000E+00 -0.29079706868E+03  0.29079706868E+03  0.00000000000E+00 0.  1.
          6    2    1    2  501    0 -0.32000458221E+02 -0.12938420880E+03  0.13271128036E+00  0.21530969105E+03  0.16909743532E+03 0.  0.
         24    2    3    3    0    0 -0.48698430324E+02 -0.74946077663E+02  0.58182256083E+02  0.13385926413E+03  0.80899171789E+02 0.  0.
         -6    2    1    2    0  502  0.32000458221E+02  0.12938420880E+03 -0.11612185922E+03  0.25029529837E+03  0.17719804566E+03 0.  0.
        -24    2    5    5    0    0 -0.36149811931E+02  0.73350451729E+02 -0.13112768265E+02  0.11458529848E+03  0.79188056322E+02 0.  0.
          5    1    3    3  501    0  0.16697972103E+02 -0.54438131134E+02 -0.58049544802E+02  0.81450426920E+02  0.47000000000E+01 0. -1.
        -13    1    4    4    0    0 -0.49453431161E+02 -0.89195254886E+02  0.61652607325E+02  0.11917415549E+03  0.00000000000E+00 0.  1.
         14    1    4    4    0    0  0.75500083658E+00  0.14249177223E+02 -0.34703512421E+01  0.14685108632E+02  0.00000000000E+00 0. -1.
         -5    1    5    5    0  502  0.68150270152E+02  0.56033757069E+02 -0.10300909095E+03  0.13570999990E+03  0.47000000000E+01 0.  1.
         13    1    6    6    0    0  0.83787109086E+01  0.64785852742E+02  0.55273107663E+01  0.65558833702E+02  0.00000000000E+00 0. -1.
        -14    1    6    6    0    0 -0.44528522840E+02  0.85645989872E+01 -0.18640079031E+02  0.49026464776E+02  0.00000000000E+00 0.  1.
</event>
<event>
12    1  0.1683022E-002  0.2652746E+03  0.7818608E-02  0.1104205E+00
         21   -1    0    0  501  502  0.00000000000E+00  0.00000000000E+00  0.73277748560E+02  0.73277748560E+02  0.00000000000E+00 0. -1.
         21   -1    0    0  502  503 -0.00000000000E+00 -0.00000000000E+00 -0.12230491683E+04  0.12230491683E+04  0.00000000000E+00 0. -1.
          6    2    1    2  501    0  0.18779720572E+03  0.70697693296E+02 -0.27071867076E+03  0.37811977203E+03  0.17152261948E+03 0.  0.
         24    2    3    3    0    0  0.19790587831E+03  0.46167918646E+02 -0.27494415211E+03  0.35084634543E+03  0.78744256531E+02 0.  0.
         -6    2    1    2    0  503 -0.18779720572E+03 -0.70697693296E+02 -0.87905274899E+03  0.91820714483E+03  0.17350697681E+03 0.  0.
        -24    2    5    5    0    0 -0.90142749440E+02 -0.10477527505E+01 -0.63382765546E+03  0.64517794576E+03  0.79939175684E+02 0.  0.
          5    1    3    3  501    0 -0.10108672596E+02  0.24529774650E+02  0.42254813582E+01  0.27273426604E+02  0.47000000000E+01 0. -1.
        -11    1    4    4    0    0  0.13073890500E+03  0.67550917401E+02 -0.19430578555E+03  0.24374274558E+03  0.00000000000E+00 0.  1.
         12    1    4    4    0    0  0.67166973306E+02 -0.21382998755E+02 -0.80638366565E+02  0.10710359985E+03  0.00000000000E+00 0. -1.
         -5    1    5    5    0  503 -0.97654456275E+02 -0.69649940545E+02 -0.24522509353E+03  0.27302919907E+03  0.47000000000E+01 0.  1.
         13    1    6    6    0    0 -0.10512703403E+03 -0.40065342976E+01 -0.55068216132E+03  0.56064122967E+03  0.00000000000E+00 0. -1.
        -14    1    6    6    0    0  0.14984284593E+02  0.29587815471E+01 -0.83145494136E+02  0.84536716095E+02  0.00000000000E+00 0.  1.
</event>
<event>
12    1  0.1683022E-002  0.2154624E+03  0.7818608E-02  0.1137347E+00
         21   -1    0    0  503  502  0.00000000000E+00  0.00000000000E+00  0.19159764168E+03  0.19159764168E+03  0.00000000000E+00 0. -1.
         21   -1    0    0  501  503 -0.00000000000E+00 -0.00000000000E+00 -0.26841823887E+03  0.26841823887E+03  0.00000000000E+00 0.  1.
          6    2    1    2  501    0 -0.84406300254E+02 -0.99250968164E+02 -0.11042230229E+03  0.24194913833E+03  0.17138005278E+03 0.  0.
         24    2    3    3    0    0  0.12778955275E+02 -0.53004750831E+02 -0.82369331627E+02  0.13062642873E+03  0.85473690580E+02 0.  0.
         -6    2    1    2    0  502  0.84406300254E+02  0.99250968164E+02  0.33601705102E+02  0.21806674221E+03  0.17160667606E+03 0.  0.
        -24    2    5    5    0    0  0.99422721609E+02  0.12289946035E+03  0.50643511518E+02  0.18494186849E+03  0.81544923431E+02 0.  0.
          5    1    3    3  501    0 -0.97185255529E+02 -0.46246217333E+02 -0.28052970661E+02  0.11132270960E+03  0.47000000000E+01 0. -1.
        -11    1    4    4    0    0  0.19087335812E+02 -0.70390338179E+02 -0.84938754890E+02  0.11195408961E+03  0.00000000000E+00 0.  1.
         12    1    4    4    0    0 -0.63083805368E+01  0.17385587348E+02  0.25694232625E+01  0.18672339123E+02  0.00000000000E+00 0. -1.
         -5    1    5    5    0  502 -0.15016421355E+02 -0.23648492185E+02 -0.17041806416E+02  0.33124873718E+02  0.47000000000E+01 0.  1.
         13    1    6    6    0    0  0.20215428892E+02  0.87861904040E+02  0.36110499163E+02  0.97120265118E+02  0.00000000000E+00 0. -1.
        -14    1    6    6    0    0  0.79207292716E+02  0.35037556309E+02  0.14533012356E+02  0.87821603377E+02  0.00000000000E+00 0.  1.
</event>
<event>
12    1  0.1683022E-002  0.2489833E+03  0.7818608E-02  0.1115054E+00
         21   -1    0    0  501  502  0.00000000000E+00  0.00000000000E+00  0.54444119763E+03  0.54444119763E+03  0.00000000000E+00 0.  1.
         21   -1    0    0  502  503 -0.00000000000E+00 -0.00000000000E+00 -0.11993919390E+03  0.11993919390E+03  0.00000000000E+00 0.  1.
          6    2    1    2  501    0  0.16845681591E+03 -0.34336968521E+02  0.30690926093E+03  0.39520370318E+03  0.18009982323E+03 0.  0.
         24    2    3    3    0    0  0.19599452523E+03 -0.11186355109E+02  0.25116056146E+03  0.32868841300E+03  0.80096546381E+02 0.  0.
         -6    2    1    2    0  503 -0.16845681591E+03  0.34336968521E+02  0.11759274280E+03  0.26917668835E+03  0.17050310894E+03 0.  0.
        -24    2    5    5    0    0 -0.17103509130E+03  0.41581903062E+01  0.13764130108E+03  0.23255100273E+03  0.76580337589E+02 0.  0.
          5    1    3    3  501    0 -0.27537709321E+02 -0.23150613412E+02  0.55748699471E+02  0.66515290187E+02  0.47000000000E+01 0. -1.
        -11    1    4    4    0    0  0.18364606986E+03  0.11851247348E+02  0.23276734977E+03  0.29672709711E+03  0.00000000000E+00 0.  1.
         12    1    4    4    0    0  0.12348455374E+02 -0.23037602457E+02  0.18393211694E+02  0.31961315891E+02  0.00000000000E+00 0. -1.
         -5    1    5    5    0  503  0.25782753827E+01  0.30178778215E+02 -0.20048558282E+02  0.36625685627E+02  0.47000000000E+01 0.  1.
         11    1    6    6    0    0 -0.12033406533E+03 -0.11507391554E+02  0.13231169289E+03  0.17921799969E+03  0.00000000000E+00 0. -1.
        -12    1    6    6    0    0 -0.50701025970E+02  0.15665581860E+02  0.53296081917E+01  0.53333003037E+02  0.00000000000E+00 0.  1.
</event>
<event>
12    1  0.1683022E-002  0.1837371E+03  0.7818608E-02  0.1164847E+00
         21   -1    0    0  503  502  0.00000000000E+00  0.00000000000E+00  0.54909029674E+03  0.54909029674E+03  0.00000000000E+00 0.  1.
         21   -1    0    0  501  503 -0.00000000000E+00 -0.00000000000E+00 -0.73925003563E+02  0.73925003563E+02  0.00000000000E+00 0.  1.
          6    2    1    2  501    0  0.51555737717E+02  0.23714246370E+02  0.36834842911E+03  0.41048489158E+03  0.17203755814E+03 0.  0.
         24    2    3    3    0    0  0.74258999847E+02  0.34695115830E+01  0.12644138975E+03  0.16662757041E+03  0.79062542382E+02 0.  0.
         -6    2    1    2    0  502 -0.51555737717E+02 -0.23714246370E+02  0.10681686407E+03  0.21253040873E+03  0.17475403461E+03 0.  0.
        -24    2    5    5    0    0  0.34066030060E+01 -0.22737595724E+02  0.12870373782E+03  0.15317606612E+03  0.79810098985E+02 0.  0.
          5    1    3    3  501    0 -0.22703262130E+02  0.20244734787E+02  0.24190703936E+03  0.24385732117E+03  0.47000000000E+01 0. -1.
        -11    1    4    4    0    0  0.70926069009E+01  0.30571884861E+02  0.62825718076E+02  0.70228313865E+02  0.00000000000E+00 0.  1.
         12    1    4    4    0    0  0.67166392946E+02 -0.27102373278E+02  0.63615671677E+02  0.96399256541E+02  0.00000000000E+00 0. -1.
         -5    1    5    5    0  502 -0.54962340723E+02 -0.97665064644E+00 -0.21886873749E+02  0.59354342610E+02  0.47000000000E+01 0.  1.
         11    1    6    6    0    0 -0.23833667508E+02  0.12299945510E+02  0.91229031131E+02  0.95089791710E+02  0.00000000000E+00 0. -1.
        -12    1    6    6    0    0  0.27240270514E+02 -0.35037541234E+02  0.37474706688E+02  0.58086274410E+02  0.00000000000E+00 0.  1.
</event>
<event>
12    1  0.1683022E-002  0.1826171E+03  0.7818608E-02  0.1165607E+00
         21   -1    0    0  501  502  0.00000000000E+00  0.00000000000E+00  0.11355238262E+03  0.11355238262E+03  0.00000000000E+00 0.  1.
         21   -1    0    0  502  503 -0.00000000000E+00 -0.00000000000E+00 -0.30063396944E+03  0.30063396944E+03  0.00000000000E+00 0. -1.
          6    2    1    2  501    0  0.56250684642E+02 -0.62978541252E+00 -0.12915268904E+03  0.22260148456E+03  0.17235564304E+03 0.  0.
         24    2    3    3    0    0  0.57204846378E+02  0.62113087428E+02 -0.99088645931E+02  0.15286257716E+03  0.80112281607E+02 0.  0.
         -6    2    1    2    0  503 -0.56250684642E+02  0.62978541252E+00 -0.57928897786E+02  0.19158486750E+03  0.17373677821E+03 0.  0.
        -24    2    5    5    0    0 -0.74886373371E+02 -0.41406129557E+02  0.15132872483E+02  0.10513014342E+03  0.59168460716E+02 0.  0.
          5    1    3    3  501    0 -0.95416173589E+00 -0.62742872841E+02 -0.30064043108E+02  0.69738907397E+02  0.47000000000E+01 0. -1.
        -11    1    4    4    0    0 -0.83583616482E+01  0.88267365168E+01  0.93931928953E+01  0.15362472449E+02  0.00000000000E+00 0.  1.
         12    1    4    4    0    0  0.65563208026E+02  0.53286350911E+02 -0.10848183883E+03  0.13750010471E+03  0.00000000000E+00 0. -1.
         -5    1    5    5    0  503  0.18635688729E+02  0.42035914970E+02 -0.73061770269E+02  0.86454724085E+02  0.47000000000E+01 0.  1.
         11    1    6    6    0    0 -0.15048463544E+02 -0.23322410868E+02 -0.19258989590E+02  0.33783128685E+02  0.00000000000E+00 0. -1.
        -12    1    6    6    0    0 -0.59837909828E+02 -0.18083718689E+02  0.34391862073E+02  0.71347014731E+02  0.00000000000E+00 0.  1.
</event>
<event>
12    1  0.1683022E-002  0.3335173E+03  0.7818608E-02  0.1069786E+00
         21   -1    0    0  501  502  0.00000000000E+00  0.00000000000E+00  0.11768257815E+04  0.11768257815E+04  0.00000000000E+00 0.  1.
         21   -1    0    0  502  503 -0.00000000000E+00 -0.00000000000E+00 -0.94703859802E+02  0.94703859802E+02  0.00000000000E+00 0. -1.
          6    2    1    2  501    0  0.10408949056E+03 -0.26382979296E+03  0.59382394437E+03  0.68020172521E+03  0.17206605816E+03 0.  0.
         24    2    3    3    0    0  0.73611353545E+02 -0.14871429416E+03  0.48517375621E+03  0.51893347573E+03  0.79773465933E+02 0.  0.
         -6    2    1    2    0  503 -0.10408949056E+03  0.26382979296E+03  0.48829797737E+03  0.59132791614E+03  0.17547936630E+03 0.  0.
        -24    2    5    5    0    0 -0.29836923440E+02  0.15416437868E+03  0.38345768774E+03  0.42235003846E+03  0.81748755616E+02 0.  0.
          5    1    3    3  501    0  0.30478137013E+02 -0.11511549881E+03  0.10865018816E+03  0.16126824947E+03  0.47000000000E+01 0. -1.
        -13    1    4    4    0    0  0.79867292171E+02 -0.15554523754E+03  0.46107713744E+03  0.49311786821E+03  0.00000000000E+00 0.  1.
         14    1    4    4    0    0 -0.62559386255E+01  0.68309433860E+01  0.24096618769E+02  0.25815607522E+02  0.00000000000E+00 0. -1.
         -5    1    5    5    0  503 -0.74252567118E+02  0.10966541429E+03  0.10484028963E+03  0.16897787768E+03  0.47000000000E+01 0.  1.
         11    1    6    6    0    0 -0.51339779827E+02  0.13209725896E+03  0.34565743205E+03  0.37358334966E+03  0.00000000000E+00 0. -1.
        -12    1    6    6    0    0  0.21502856387E+02  0.22067119716E+02  0.37800255699E+02  0.48766688797E+02  0.00000000000E+00 0.  1.
</event>
<event>
12    1  0.1683022E-002  0.2314334E+03  0.7818608E-02  0.1125799E+00
         21   -1    0    0  503  502  0.00000000000E+00  0.00000000000E+00  0.23723760493E+03  0.23723760493E+03  0.00000000000E+00 0. -1.
         21   -1    0    0  501  503 -0.00000000000E+00 -0.00000000000E+00 -0.34494947063E+03  0.34494947063E+03  0.00000000000E+00 0.  1.
          6    2    1    2  501    0 -0.10068559275E+03 -0.11688510514E+03  0.11782890994E+03  0.25970192379E+03  0.17251585669E+03 0.  0.
         24    2    3    3    0    0  0.97730061806E+01 -0.45267061280E+02  0.83197451764E+02  0.12349739310E+03  0.78645862170E+02 0.  0.
         -6    2    1    2    0  502  0.10068559275E+03  0.11688510514E+03 -0.22554077564E+03  0.32248515178E+03  0.17125511744E+03 0.  0.
        -24    2    5    5    0    0 -0.22235162390E+01  0.71120011769E+02 -0.46502120799E+02  0.11091563977E+03  0.71251889858E+02 0.  0.
          5    1    3    3  501    0 -0.11045859893E+03 -0.71618043859E+02  0.34631458172E+02  0.13620453068E+03  0.47000000000E+01 0. -1.
        -13    1    4    4    0    0  0.31761929681E+01 -0.43175819142E+02  0.34276470403E+01  0.43427967079E+02  0.00000000000E+00 0.  1.
         14    1    4    4    0    0  0.65968132125E+01 -0.20912421380E+01  0.79769804723E+02  0.80069426024E+02  0.00000000000E+00 0. -1.
         -5    1    5    5    0  502  0.10290910899E+03  0.45765093371E+02 -0.17903865484E+03  0.21156951201E+03  0.47000000000E+01 0.  1.
         13    1    6    6    0    0 -0.11253162798E+02  0.25162922916E+01  0.14599560223E+02  0.18604100585E+02  0.00000000000E+00 0. -1.
        -14    1    6    6    0    0  0.90296465592E+01  0.68603719477E+02 -0.61101681022E+02  0.92311539185E+02  0.00000000000E+00 0.  1.
</event>
<event>
12    1  0.1683022E-002  0.1817767E+03  0.7818608E-02  0.1167258E+00
         21   -1    0    0  503  502  0.00000000000E+00  0.00000000000E+00  0.54709478574E+02  0.54709478574E+02  0.00000000000E+00 0. -1.
         21   -1    0    0  501  503 -0.00000000000E+00 -0.00000000000E+00 -0.58819104457E+03  0.58819104457E+03  0.00000000000E+00 0. -1.
          6    2    1    2  501    0 -0.22451170449E+01 -0.49820377660E+02 -0.27372792330E+03  0.32858750886E+03  0.17480178604E+03 0.  0.
         24    2    3    3    0    0  0.53915645737E+02 -0.71772074121E+02 -0.19857061802E+03  0.23211669052E+03  0.79935850525E+02 0.  0.
         -6    2    1    2    0  502  0.22451170449E+01  0.49820377660E+02 -0.25975364270E+03  0.31431301429E+03  0.16980460970E+03 0.  0.
        -24    2    5    5    0    0 -0.34932227231E+02  0.73554253999E+02 -0.11409072279E+03  0.16204605119E+03  0.81312612182E+02 0.  0.
          5    1    3    3  501    0 -0.56160762782E+02  0.21951696461E+02 -0.75157305280E+02  0.96470818338E+02  0.47000000000E+01 0. -1.
        -13    1    4    4    0    0 -0.16322513534E+02 -0.11828309114E+02 -0.10798313597E+02  0.22867814087E+02  0.00000000000E+00 0.  1.
         14    1    4    4    0    0  0.70238159272E+02 -0.59943765007E+02 -0.18777230442E+03  0.20924887643E+03  0.00000000000E+00 0. -1.
         -5    1    5    5    0  502  0.37177344276E+02 -0.23733876339E+02 -0.14566291991E+03  0.15226696309E+03  0.47000000000E+01 0.  1.
         13    1    6    6    0    0 -0.56875174852E+02  0.31180224100E+02 -0.81952685165E+02  0.10451427891E+03  0.00000000000E+00 0. -1.
        -14    1    6    6    0    0  0.21942947621E+02  0.42374029899E+02 -0.32138037628E+02  0.57531772289E+02  0.00000000000E+00 0.  1.
</event>
<event>
12    1  0.1683022E-002  0.1770868E+03  0.7818608E-02  0.1172631E+00
         21   -1    0    0  501  502  0.00000000000E+00  0.00000000000E+00  0.31315236853E+03  0.31315236853E+03  0.00000000000E+00 0.  1.
         21   -1    0    0  502  503 -0.00000000000E+00 -0.00000000000E+00 -0.10133820791E+03  0.10133820791E+03  0.00000000000E+00 0.  1.
          6    2    1    2  501    0 -0.31301378487E+02 -0.35586566499E+02  0.55092164909E+02  0.17801327158E+03  0.16250353293E+03 0.  0.
         24    2    3    3    0    0  0.21200019779E+02 -0.24297691829E+02  0.81028099388E+02  0.11819188571E+03  0.79774371132E+02 0.  0.
         -6    2    1    2    0  503  0.31301378487E+02  0.35586566499E+02  0.15672199571E+03  0.23647730485E+03  0.17062693737E+03 0.  0.
        -24    2    5    5    0    0  0.41780009928E+02  0.84400641845E+02  0.96116031139E+02  0.15781480673E+03  0.82451101915E+02 0.  0.
          5    1    3    3  501    0 -0.52501398266E+02 -0.11288874670E+02 -0.25935934479E+02  0.59821385878E+02  0.47000000000E+01 0. -1.
        -11    1    4    4    0    0  0.83185757540E+00 -0.39183809845E+02  0.67799410427E+01  0.39774747536E+02  0.00000000000E+00 0.  1.
         12    1    4    4    0    0  0.20368162203E+02  0.14886118016E+02  0.74248158345E+02  0.78417138170E+02  0.00000000000E+00 0. -1.
         -5    1    5    5    0  503 -0.10478631441E+02 -0.48814075346E+02  0.60605964574E+02  0.78662498121E+02  0.47000000000E+01 0.  1.
         11    1    6    6    0    0  0.31285408756E+02  0.35244605951E+02 -0.24307216743E+01  0.47189696518E+02  0.00000000000E+00 0. -1.
        -12    1    6    6    0    0  0.10494601172E+02  0.49156035895E+02  0.98546752813E+02  0.11062511021E+03  0.00000000000E+00 0.  1.
</event>
<event>
12    1  0.1683022E-002  0.2358735E+03  0.7818608E-02  0.1122619E+00
         21   -1    0    0  501  502  0.00000000000E+00  0.00000000000E+00  0.31055374410E+03  0.31055374410E+03  0.00000000000E+00 0. -1.
         21   -1    0    0  502  503 -0.00000000000E+00 -0.00000000000E+00 -0.18380610388E+03  0.18380610388E+03  0.00000000000E+00 0.  1.
          6    2    1    2  501    0 -0.16059179833E+03 -0.15345004024E+02  0.10361100886E+03  0.25762675787E+03  0.17207879118E+03 0.  0.
         24    2    3    3    0    0 -0.24597603639E+02 -0.26367806587E+02 -0.16262788212E+01  0.85252456172E+02  0.77233627207E+02 0.  0.
         -6    2    1    2    0  503  0.16059179833E+03  0.15345004024E+02  0.23136631357E+02  0.23673309012E+03  0.17170339953E+03 0.  0.
        -24    2    5    5    0    0  0.19268282475E+02  0.28789679551E+02 -0.15760779777E+02  0.89463969033E+02  0.80964728232E+02 0.  0.
          5    1    3    3  501    0 -0.13599419469E+03  0.11022802563E+02  0.10523728768E+03  0.17237430169E+03  0.47000000000E+01 0. -1.
        -11    1    4    4    0    0  0.16537008392E+02  0.33133900860E+01  0.23276289436E+02  0.28744335970E+02  0.00000000000E+00 0.  1.
         12    1    4    4    0    0 -0.41134612032E+02 -0.29681196673E+02 -0.24902568257E+02  0.56508120202E+02  0.00000000000E+00 0. -1.
         -5    1    5    5    0  503  0.14132351585E+03 -0.13444675528E+02  0.38897411134E+02  0.14726912109E+03  0.47000000000E+01 0.  1.
         11    1    6    6    0    0  0.25442723907E+02  0.27417544039E+02  0.27067993333E+02  0.46170663673E+02  0.00000000000E+00 0. -1.
        -12    1    6    6    0    0 -0.61744414318E+01  0.13721355119E+01 -0.42828773110E+02  0.43293305359E+02  0.00000000000E+00 0.  1.
</event>
<event>
12    1  0.1683022E-002  0.1747374E+03  0.7818608E-02  0.1173239E+00
         21   -1    0    0  503  502  0.00000000000E+00  0.00000000000E+00  0.62481585976E+02  0.62481585976E+02  0.00000000000E+00 0.  1.
         21   -1    0    0  501  503 -0.00000000000E+00 -0.00000000000E+00 -0.63814561674E+03  0.63814561674E+03  0.00000000000E+00 0.  1.
          6    2    1    2  501    0 -0.12617171217E+01 -0.28086343660E+02 -0.45950446169E+03  0.49160706391E+03  0.17246077916E+03 0.  0.
         24    2    3    3    0    0  0.90320892804E+01 -0.82830384497E+02 -0.35061799348E+03  0.36920924769E+03  0.80249859789E+02 0.  0.
         -6    2    1    2    0  502  0.12617171217E+01  0.28086343660E+02 -0.11615956908E+03  0.20902013881E+03  0.17148159757E+03 0.  0.
        -24    2    5    5    0    0 -0.34457949770E+02  0.74022674418E+02 -0.73407738475E+02  0.13666096450E+03  0.81368400003E+02 0.  0.
          5    1    3    3  501    0 -0.10293806402E+02  0.54744040837E+02 -0.10888646820E+03  0.12239781622E+03  0.47000000000E+01 0. -1.
        -13    1    4    4    0    0 -0.12670188316E+02 -0.84533618119E+02 -0.32257755444E+03  0.33371057055E+03  0.00000000000E+00 0.  1.
         14    1    4    4    0    0  0.21702277597E+02  0.17032336224E+01 -0.28040439041E+02  0.35498677148E+02  0.00000000000E+00 0. -1.
         -5    1    5    5    0  502  0.35719666892E+02 -0.45936330758E+02 -0.42751830607E+02  0.72359174308E+02  0.47000000000E+01 0.  1.
         11    1    6    6    0    0 -0.14845966790E+02  0.72653481602E+02 -0.85813210196E+02  0.11341445306E+03  0.00000000000E+00 0. -1.
        -12    1    6    6    0    0 -0.19611982980E+02  0.13691928155E+01  0.12405471721E+02  0.23246511437E+02  0.00000000000E+00 0.  1.
</event>
<event>
12    1  0.1683022E-002  0.1737543E+03  0.7818608E-02  0.1174019E+00
         21   -1    0    0  501  502  0.00000000000E+00  0.00000000000E+00  0.31143583481E+03  0.31143583481E+03  0.00000000000E+00 0. -1.
         21   -1    0    0  502  503 -0.00000000000E+00 -0.00000000000E+00 -0.16840239556E+03  0.16840239556E+03  0.00000000000E+00 0. -1.
          6    2    1    2  501    0  0.18741585823E+02 -0.13634716900E+02  0.22786642084E+03  0.28648052050E+03  0.17207797748E+03 0.  0.
         24    2    3    3    0    0  0.61128570311E+02  0.97849386089E+01  0.21353381275E+03  0.23575921952E+03  0.78442802541E+02 0.  0.
         -6    2    1    2    0  503 -0.18741585823E+02  0.13634716900E+02 -0.84832981590E+02  0.19335770986E+03  0.17220167436E+03 0.  0.
        -24    2    5    5    0    0 -0.11093455837E+02  0.75383116328E+02 -0.47870701913E+02  0.12083420441E+03  0.80645036200E+02 0.  0.
          5    1    3    3  501    0 -0.42386984488E+02 -0.23419655509E+02  0.14332608092E+02  0.50721300978E+02  0.47000000000E+01 0. -1.
        -13    1    4    4    0    0  0.61255238513E+01  0.37688719056E+02  0.77423663735E+02  0.86327199032E+02  0.00000000000E+00 0.  1.
         14    1    4    4    0    0  0.55003046460E+02 -0.27903780447E+02  0.13611014902E+03  0.14943202049E+03  0.00000000000E+00 0. -1.
         -5    1    5    5    0  503 -0.76481299863E+01 -0.61748399429E+02 -0.36962279677E+02  0.72523505453E+02  0.47000000000E+01 0.  1.
         11    1    6    6    0    0 -0.35959713098E+02  0.62972485021E+02 -0.56285402763E+02  0.91796957466E+02  0.00000000000E+00 0. -1.
        -12    1    6    6    0    0  0.24866257262E+02  0.12410631307E+02  0.84147008494E+01  0.29037246943E+02  0.00000000000E+00 0.  1.
</event>
<event>
12    1  0.1683022E-002  0.2213222E+03  0.7818608E-02  0.1134478E+00
         21   -1    0    0  503  502  0.00000000000E+00  0.00000000000E+00  0.80674302625E+03  0.80674302625E+03  0.00000000000E+00 0.  1.
         21   -1    0    0  501  503 -0.00000000000E+00 -0.00000000000E+00 -0.73501310869E+02  0.73501310869E+02  0.00000000000E+00 0.  1.
          6    2    1    2  501    0 -0.17564605289E+02 -0.13562767100E+03  0.16185865355E+03  0.26749469768E+03  0.16325381789E+03 0.  0.
         24    2    3    3    0    0 -0.55175421009E+02 -0.14444362287E+03  0.13345134852E+03  0.21931420946E+03  0.79882243187E+02 0.  0.
         -6    2    1    2    0  502  0.17564605289E+02  0.13562767100E+03  0.57138306183E+03  0.61274963944E+03  0.17401188691E+03 0.  0.
        -24    2    5    5    0    0  0.27824872812E+02  0.66926401830E+01  0.16548500358E+03  0.18671579225E+03  0.81599544635E+02 0.  0.
          5    1    3    3  501    0  0.37610815720E+02  0.88159518658E+01  0.28407305026E+02  0.48180488221E+02  0.47000000000E+01 0. -1.
        -13    1    4    4    0    0 -0.32700619385E+02 -0.76792238186E+02  0.12092860552E+03  0.14693572060E+03  0.00000000000E+00 0.  1.
         14    1    4    4    0    0 -0.22474801624E+02 -0.67651384682E+02  0.12522743001E+02  0.72378488861E+02  0.00000000000E+00 0. -1.
         -5    1    5    5    0  502 -0.10260267523E+02  0.12893503082E+03  0.40589805825E+03  0.42603384719E+03  0.47000000000E+01 0.  1.
         13    1    6    6    0    0  0.32623318437E+02  0.32010307348E+02  0.47377161696E+02  0.65829599214E+02  0.00000000000E+00 0. -1.
        -14    1    6    6    0    0 -0.47984456247E+01 -0.25317667165E+02  0.11810784189E+03  0.12088619303E+03  0.00000000000E+00 0.  1.
</event>
<event>
12    1  0.1683022E-002  0.2792606E+03  0.7818608E-02  0.1096173E+00
         21   -1    0    0  503  502  0.00000000000E+00  0.00000000000E+00  0.57179240550E+03  0.57179240550E+03  0.00000000000E+00 0. -1.
         21   -1    0    0  501  503 -0.00000000000E+00 -0.00000000000E+00 -0.14424441377E+03  0.14424441377E+03  0.00000000000E+00 0.  1.
          6    2    1    2  501    0 -0.12637789011E+03 -0.17938936879E+03  0.12851780731E+03  0.30688458579E+03  0.17178301853E+03 0.  0.
         24    2    3    3    0    0 -0.53442073770E+02 -0.18086084356E+03  0.88541361341E+02  0.22356589176E+03  0.81089057877E+02 0.  0.
         -6    2    1    2    0  502  0.12637789011E+03  0.17938936879E+03  0.29903018442E+03  0.40915223348E+03  0.17272690070E+03 0.  0.
        -24    2    5    5    0    0  0.12720671571E+03  0.15899096836E+03  0.31458227845E+03  0.38306125188E+03  0.79462168605E+02 0.  0.
          5    1    3    3  501    0 -0.72935816335E+02  0.14714747665E+01  0.39976445970E+02  0.83318694030E+02  0.47000000000E+01 0. -1.
        -11    1    4    4    0    0 -0.18474524025E+02 -0.64117926319E+02 -0.91831780076E+01  0.67355380422E+02  0.00000000000E+00 0.  1.
         12    1    4    4    0    0 -0.34967549744E+02 -0.11674291724E+03  0.97724539349E+02  0.15621051134E+03  0.00000000000E+00 0. -1.
         -5    1    5    5    0  502 -0.82882560101E+00  0.20398400435E+02 -0.15552094028E+02  0.26090981600E+02  0.47000000000E+01 0.  1.
         11    1    6    6    0    0  0.64036870207E+02  0.76088873451E+02  0.84607702807E+02  0.13057067352E+03  0.00000000000E+00 0. -1.
        -12    1    6    6    0    0  0.63169845499E+02  0.82902094907E+02  0.22997457564E+03  0.25249057836E+03  0.00000000000E+00 0.  1.
</event>
<event>
12    1  0.1683022E-002  0.2343460E+03  0.7818608E-02  0.1123656E+00
         21   -1    0    0  501  502  0.00000000000E+00  0.00000000000E+00  0.70022372275E+02  0.70022372275E+02  0.00000000000E+00 0. -1.
         21   -1    0    0  502  503 -0.00000000000E+00 -0.00000000000E+00 -0.10773314099E+04  0.10773314099E+04  0.00000000000E+00 0. -1.
          6    2    1    2  501    0  0.12829386888E+03  0.94080894725E+02 -0.20425417349E+03  0.31086623020E+03  0.17206834150E+03 0.  0.
         24    2    3    3    0    0  0.14761811393E+03  0.11163945347E+03 -0.15286694785E+03  0.25303486855E+03  0.80024157750E+02 0.  0.
         -6    2    1    2    0  503 -0.12829386888E+03 -0.94080894725E+02 -0.80305486417E+03  0.83648755201E+03  0.17176663894E+03 0.  0.
        -24    2    5    5    0    0 -0.93189271312E+02 -0.10601027529E+03 -0.40185696119E+03  0.43355270586E+03  0.80972296125E+02 0.  0.
          5    1    3    3  501    0 -0.19324245052E+02 -0.17558558741E+02 -0.51387225645E+02  0.57831361659E+02  0.47000000000E+01 0. -1.
        -11    1    4    4    0    0  0.94046511430E+02  0.26195609238E+02 -0.97550442249E+02  0.13801103231E+03  0.00000000000E+00 0.  1.
         12    1    4    4    0    0  0.53571602505E+02  0.85443844227E+02 -0.55316505599E+02  0.11502383624E+03  0.00000000000E+00 0. -1.
         -5    1    5    5    0  503 -0.35104597569E+02  0.11929380566E+02 -0.40119790298E+03  0.40293484616E+03  0.47000000000E+01 0.  1.
         11    1    6    6    0    0 -0.17899490550E+02 -0.62521742378E+02 -0.98902832314E+02  0.11836862030E+03  0.00000000000E+00 0. -1.
        -12    1    6    6    0    0 -0.75289780762E+02 -0.43488532912E+02 -0.30295412888E+03  0.31518408556E+03  0.00000000000E+00 0.  1.
</event>
<event>
12    1  0.1683022E-002  0.1793907E+03  0.7818608E-02  0.1168552E+00
         21   -1    0    0  503  502  0.00000000000E+00  0.00000000000E+00  0.10121993882E+04  0.10121993882E+04  0.00000000000E+00 0.  1.
         21   -1    0    0  501  503 -0.00000000000E+00 -0.00000000000E+00 -0.39229867077E+02  0.39229867077E+02  0.00000000000E+00 0.  1.
          6    2    1    2  501    0 -0.73351218739E+01  0.50976295438E+02  0.71642390904E+03  0.73838505888E+03  0.17116334603E+03 0.  0.
         24    2    3    3    0    0  0.44456322699E+02  0.31544986534E+02  0.24095231103E+03  0.25968341901E+03  0.80037560663E+02 0.  0.
         -6    2    1    2    0  502  0.73351218739E+01 -0.50976295438E+02  0.25654561209E+03  0.31304419640E+03  0.17183896854E+03 0.  0.
        -24    2    5    5    0    0  0.45225351702E+02  0.19789436262E+02  0.10130800933E+03  0.13821782079E+03  0.80024365070E+02 0.  0.
          5    1    3    3  501    0 -0.51791444573E+02  0.19431308904E+02  0.47547159802E+03  0.47870163987E+03  0.47000000000E+01 0. -1.
        -11    1    4    4    0    0 -0.13200625401E+02  0.25558400995E+02  0.14299633625E+03  0.14586103165E+03  0.00000000000E+00 0.  1.
         12    1    4    4    0    0  0.57656948101E+02  0.59865855393E+01  0.97955974776E+02  0.11382238736E+03  0.00000000000E+00 0. -1.
         -5    1    5    5    0  502 -0.37890229828E+02 -0.70765731700E+02  0.15523760276E+03  0.17482637561E+03  0.47000000000E+01 0.  1.
         11    1    6    6    0    0  0.36413001532E+02 -0.14205659716E+02  0.94745705895E+02  0.10249124955E+03  0.00000000000E+00 0. -1.
        -12    1    6    6    0    0  0.88123501701E+01  0.33995095978E+02  0.65623034325E+01  0.35726571238E+02  0.00000000000E+00 0.  1.
</event>
<event>
12    1  0.1683022E-002  0.1837217E+03  0.7818608E-02  0.1164849E+00
         21   -1    0    0  503  502  0.00000000000E+00  0.00000000000E+00  0.18147198068E+03  0.18147198068E+03  0.00000000000E+00 0. -1.
         21   -1    0    0  501  503 -0.00000000000E+00 -0.00000000000E+00 -0.22881747348E+03  0.22881747348E+03  0.00000000000E+00 0. -1.
          6    2    1    2  501    0  0.36431884315E+02  0.52574156501E+02 -0.11514899600E+03  0.21682473571E+03  0.17222761279E+03 0.  0.
         24    2    3    3    0    0 -0.35439052912E+01 -0.33616987514E+02 -0.54341047457E+02  0.10392356801E+03  0.81880995564E+02 0.  0.
         -6    2    1    2    0  502 -0.36431884315E+02 -0.52574156501E+02  0.67803503196E+02  0.19346471846E+03  0.16952863509E+03 0.  0.
        -24    2    5    5    0    0 -0.64202864837E+02 -0.78947069408E+02  0.82687143265E+02  0.15210809098E+03  0.77104215574E+02 0.  0.
          5    1    3    3  501    0  0.39975789606E+02  0.86191144015E+02 -0.60807948546E+02  0.11290116770E+03  0.47000000000E+01 0. -1.
        -11    1    4    4    0    0 -0.19579511718E+02  0.77301385834E+01  0.11920234315E+02  0.24190996419E+02  0.00000000000E+00 0.  1.
         12    1    4    4    0    0  0.16035606427E+02 -0.41347126097E+02 -0.66261281773E+02  0.79732571588E+02  0.00000000000E+00 0. -1.
         -5    1    5    5    0  502  0.27770980522E+02  0.26372912907E+02 -0.14883640069E+02  0.41356627474E+02  0.47000000000E+01 0.  1.
         11    1    6    6    0    0  0.17072911979E+02 -0.17122855589E+02  0.25186158983E+02  0.34914454188E+02  0.00000000000E+00 0. -1.
        -12    1    6    6    0    0 -0.81275776816E+02 -0.61824213819E+02  0.57500984282E+02  0.11719363679E+03  0.00000000000E+00 0.  1.
</event>
<event>
12    1  0.1683022E-002  0.2161389E+03  0.7818608E-02  0.1137110E+00
         21   -1    0    0  501  502  0.00000000000E+00  0.00000000000E+00  0.27156376506E+03  0.27156376506E+03  0.00000000000E+00 0.  1.
         21   -1    0    0  502  503 -0.00000000000E+00 -0.00000000000E+00 -0.19353808375E+03  0.19353808375E+03  0.00000000000E+00 0.  1.
          6    2    1    2  501    0 -0.31997446215E+02 -0.12590036740E+03  0.11899417008E+03  0.24672988859E+03  0.17274630629E+03 0.  0.
         24    2    3    3    0    0  0.38198187568E+02 -0.11555754941E+03  0.66566202740E+02  0.15838294385E+03  0.76429371292E+02 0.  0.
         -6    2    1    2    0  503  0.31997446215E+02  0.12590036740E+03 -0.40968488772E+02  0.21837196022E+03  0.17068437791E+03 0.  0.
        -24    2    5    5    0    0  0.65178559000E+02  0.69063575654E+02  0.23405182440E+02  0.12619025549E+03  0.79738045997E+02 0.  0.
          5    1    3    3  501    0 -0.70195633783E+02 -0.10342817995E+02  0.52427967343E+02  0.88346944746E+02  0.47000000000E+01 0. -1.
        -13    1    4    4    0    0  0.51022788925E+02 -0.64711755054E+02  0.66583414920E+02  0.10594473736E+03  0.00000000000E+00 0.  1.
         14    1    4    4    0    0 -0.12824601357E+02 -0.50845794354E+02 -0.17212179818E-01  0.52438206488E+02  0.00000000000E+00 0. -1.
         -5    1    5    5    0  503 -0.33181112785E+02  0.56836791749E+02 -0.64373671212E+02  0.92181704732E+02  0.47000000000E+01 0.  1.
         13    1    6    6    0    0 -0.80356080045E+01  0.35257556485E+02  0.27521079216E+02  0.45443108241E+02  0.00000000000E+00 0. -1.
        -14    1    6    6    0    0  0.73214167005E+02  0.33806019169E+02 -0.41158967765E+01  0.80747147247E+02  0.00000000000E+00 0.  1.
</event>
<event>
12    1  0.1683022E-002  0.2355371E+03  0.7818608E-02  0.1122926E+00
         21   -1    0    0  501  502  0.00000000000E+00  0.00000000000E+00  0.13276407354E+03  0.13276407354E+03  0.00000000000E+00 0. -1.
         21   -1    0    0  502  503 -0.00000000000E+00 -0.00000000000E+00 -0.47053902447E+03  0.47053902447E+03  0.00000000000E+00 0. -1.
          6    2    1    2  501    0 -0.39948642257E+02  0.15520502743E+03 -0.66971545817E+02  0.24487327892E+03  0.17260718473E+03 0.  0.
         24    2    3    3    0    0  0.38932961927E+02  0.73440813560E+02 -0.62265287296E+02  0.13106671928E+03  0.79951174346E+02 0.  0.
         -6    2    1    2    0  503  0.39948642257E+02 -0.15520502743E+03 -0.27080340511E+03  0.35842981910E+03  0.17161863663E+03 0.  0.
        -24    2    5    5    0    0  0.79658253407E+02 -0.15576047711E+03 -0.24254095171E+03  0.30946025697E+03  0.79578727233E+02 0.  0.
          5    1    3    3  501    0 -0.78881604184E+02  0.81764213871E+02 -0.47062585211E+01  0.11380655964E+03  0.47000000000E+01 0. -1.
        -11    1    4    4    0    0 -0.16667092477E+02  0.26652560901E+02  0.52566584124E+01  0.31871357547E+02  0.00000000000E+00 0.  1.
         12    1    4    4    0    0  0.55600054404E+02  0.46788252659E+02 -0.67521945708E+02  0.99195361731E+02  0.00000000000E+00 0. -1.
         -5    1    5    5    0  503 -0.39709611150E+02  0.55544967588E+00 -0.28262453405E+02  0.48969562123E+02  0.47000000000E+01 0.  1.
         11    1    6    6    0    0  0.81186812142E+02 -0.12167788808E+03 -0.14433902702E+03  0.20550075823E+03  0.00000000000E+00 0. -1.
        -12    1    6    6    0    0 -0.15285587350E+01 -0.34082589029E+02 -0.98201924687E+02  0.10395949874E+03  0.00000000000E+00 0.  1.
</event>
<event>
12    1  0.1683022E-002  0.1921001E+03  0.7818608E-02  0.1158124E+00
         21   -1    0    0  501  502  0.00000000000E+00  0.00000000000E+00  0.29280893339E+03  0.29280893339E+03  0.00000000000E+00 0.  1.
         21   -1    0    0  502  503 -0.00000000000E+00 -0.00000000000E+00 -0.13811652531E+03  0.13811652531E+03  0.00000000000E+00 0.  1.
          6    2    1    2  501    0 -0.54738704703E+02  0.39972332689E+02  0.15061176432E+03  0.23878202623E+03  0.17244952690E+03 0.  0.
         24    2    3    3    0    0 -0.96983756293E+02  0.51972330976E+02  0.83752095531E+02  0.15865119787E+03  0.77774140363E+02 0.  0.
         -6    2    1    2    0  503  0.54738704703E+02 -0.39972332689E+02  0.40806437545E+01  0.19214343246E+03  0.17974519134E+03 0.  0.
        -24    2    5    5    0    0 -0.11686103461E+02  0.36733018701E+02  0.87137505747E+00  0.90514915415E+02  0.81892068854E+02 0.  0.
          5    1    3    3  501    0  0.42245051589E+02 -0.11999998287E+02  0.66859668793E+02  0.80130828361E+02  0.47000000000E+01 0. -1.
        -11    1    4    4    0    0 -0.97772725412E+02  0.19836211330E+02  0.76444909458E+02  0.12568534241E+03  0.00000000000E+00 0.  1.
         12    1    4    4    0    0  0.78896911917E+00  0.32136119647E+02  0.73071860725E+01  0.32965855465E+02  0.00000000000E+00 0. -1.
         -5    1    5    5    0  503  0.66424808165E+02 -0.76705351389E+02  0.32092686970E+01  0.10162851705E+03  0.47000000000E+01 0.  1.
         11    1    6    6    0    0 -0.20546891353E+02  0.28040172427E+02  0.37919677191E+02  0.51442472065E+02  0.00000000000E+00 0. -1.
        -12    1    6    6    0    0  0.88607878912E+01  0.86928462739E+01 -0.37048302133E+02  0.39072443350E+02  0.00000000000E+00 0.  1.
</event>
<event>
12    1  0.1683022E-002  0.1786174E+03  0.7818608E-02  0.1169705E+00
         21   -1    0    0  503  502  0.00000000000E+00  0.00000000000E+00  0.13181813043E+03  0.13181813043E+03  0.00000000000E+00 0.  1.
         21   -1    0    0  501  503 -0.00000000000E+00 -0.00000000000E+00 -0.33243892568E+03  0.33243892568E+03  0.00000000000E+00 0.  1.
          6    2    1    2  501    0 -0.11312096547E+02 -0.39528268397E+02 -0.22293146405E+03  0.28425162213E+03  0.17149373018E+03 0.  0.
         24    2    3    3    0    0 -0.64226166517E+02 -0.52143580918E+02 -0.11172614423E+03  0.16036555324E+03  0.79940139250E+02 0.  0.
         -6    2    1    2    0  502  0.11312096547E+02  0.39528268397E+02  0.22310668792E+02  0.18000543399E+03  0.17382100792E+03 0.  0.
        -24    2    5    5    0    0 -0.52411905347E+02 -0.79744467035E+01 -0.13775705630E+01  0.96936311909E+02  0.81142783065E+02 0.  0.
          5    1    3    3  501    0  0.52914069970E+02  0.12615312521E+02 -0.11120531981E+03  0.12388606889E+03  0.47000000000E+01 0. -1.
        -13    1    4    4    0    0 -0.56052800011E+02 -0.29411727098E+02 -0.11929656080E+03  0.13505049240E+03  0.00000000000E+00 0.  1.
         14    1    4    4    0    0 -0.81733665056E+01 -0.22731853820E+02  0.75704165642E+01  0.25315060835E+02  0.00000000000E+00 0. -1.
         -5    1    5    5    0  502  0.63724001894E+02  0.47502715100E+02  0.23688239355E+02  0.83069122080E+02  0.47000000000E+01 0.  1.
         11    1    6    6    0    0 -0.44686978098E+02 -0.12231177215E+02 -0.37592106805E+02  0.59663172910E+02  0.00000000000E+00 0. -1.
        -12    1    6    6    0    0 -0.77249272488E+01  0.42567305112E+01  0.36214536242E+02  0.37273138999E+02  0.00000000000E+00 0.  1.
</event>
<event>
12    1  0.1683022E-002  0.1736755E+03  0.7818608E-02  0.1174398E+00
         21   -1    0    0  503  502  0.00000000000E+00  0.00000000000E+00  0.10424494151E+04  0.10424494151E+04  0.00000000000E+00 0.  1.
         21   -1    0    0  501  503 -0.00000000000E+00 -0.00000000000E+00 -0.32334584548E+02  0.32334584548E+02  0.00000000000E+00 0.  1.
          6    2    1    2  501    0  0.13396997820E+02  0.15235035181E+02  0.32705384767E+03  0.37030715183E+03  0.17248646779E+03 0.  0.
         24    2    3    3    0    0 -0.20824707217E+02  0.34404630274E+02  0.78599476709E+02  0.11873159077E+03  0.79384922324E+02 0.  0.
         -6    2    1    2    0  502 -0.13396997820E+02 -0.15235035181E+02  0.68306098289E+03  0.70447684783E+03  0.17118334304E+03 0.  0.
        -24    2    5    5    0    0 -0.38577887862E+02 -0.32050174047E+02  0.21219311746E+03  0.23261302975E+03  0.81039715102E+02 0.  0.
          5    1    3    3  501    0  0.34221705037E+02 -0.19169595094E+02  0.24845437096E+03  0.25157556106E+03  0.47000000000E+01 0. -1.
        -11    1    4    4    0    0 -0.45530973115E+02  0.35974998822E+02  0.73170239459E+02  0.93387119002E+02  0.00000000000E+00 0.  1.
         12    1    4    4    0    0  0.24706265898E+02 -0.15703685474E+01  0.54292372502E+01  0.25344471766E+02  0.00000000000E+00 0. -1.
         -5    1    5    5    0  502  0.25180890042E+02  0.16815138867E+02  0.47086786544E+03  0.47186381809E+03  0.47000000000E+01 0.  1.
         11    1    6    6    0    0  0.10667783044E+02 -0.99233663046E+01  0.97276414322E+00  0.14602091082E+02  0.00000000000E+00 0. -1.
        -12    1    6    6    0    0 -0.49245670905E+02 -0.22126807743E+02  0.21122035331E+03  0.21801093867E+03  0.00000000000E+00 0.  1.
</event>
<event>
12    1  0.1683022E-002  0.1758722E+03  0.7818608E-02  0.1171900E+00
         21   -1    0    0  503  502  0.00000000000E+00  0.00000000000E+00  0.47688769107E+02  0.47688769107E+02  0.00000000000E+00 0. -1.
         21   -1    0    0  501  503 -0.00000000000E+00 -0.00000000000E+00 -0.82252533946E+03  0.82252533946E+03  0.00000000000E+00 0. -1.
          6    2    1    2  501    0  0.27108328962E+02  0.74477849937E+01 -0.58798576673E+03  0.61372492530E+03  0.17361074578E+03 0.  0.
         24    2    3    3    0    0  0.29020052625E+01 -0.56637274692E+02 -0.23147496527E+03  0.25066173171E+03  0.77681668846E+02 0.  0.
         -6    2    1    2    0  502 -0.27108328962E+02 -0.74477849937E+01 -0.18685080362E+03  0.25648918327E+03  0.17344494031E+03 0.  0.
        -24    2    5    5    0    0 -0.37799173759E+02  0.59951873699E+02 -0.11904839536E+03  0.16017581597E+03  0.80378895786E+02 0.  0.
          5    1    3    3  501    0  0.24206323700E+02  0.64085059686E+02 -0.35651080146E+03  0.36306319359E+03  0.47000000000E+01 0. -1.
        -11    1    4    4    0    0 -0.32467759099E+02 -0.64253463900E+01 -0.60062999477E+02  0.68578454075E+02  0.00000000000E+00 0.  1.
         12    1    4    4    0    0  0.35369764362E+02 -0.50211928302E+02 -0.17141196579E+03  0.18208327763E+03  0.00000000000E+00 0. -1.
         -5    1    5    5    0  502  0.10690844796E+02 -0.67399658692E+02 -0.67802408258E+02  0.96313367296E+02  0.47000000000E+01 0.  1.
         13    1    6    6    0    0 -0.29618880161E+02  0.65925383196E+02 -0.12777969223E+03  0.14680287448E+03  0.00000000000E+00 0. -1.
        -14    1    6    6    0    0 -0.81802935977E+01 -0.59735094972E+01  0.87312968666E+01  0.13372941488E+02  0.00000000000E+00 0.  1.
</event>
<event>
12    1  0.1683022E-002  0.2206182E+03  0.7818608E-02  0.1133523E+00
         21   -1    0    0  503  502  0.00000000000E+00  0.00000000000E+00  0.10764279914E+04  0.10764279914E+04  0.00000000000E+00 0. -1.
         21   -1    0    0  501  503 -0.00000000000E+00 -0.00000000000E+00 -0.45287049482E+02  0.45287049482E+02  0.00000000000E+00 0. -1.
          6    2    1    2  501    0  0.10951639748E+03  0.17068484100E+01  0.47949300964E+03  0.52758725595E+03  0.19088743201E+03 0.  0.
         24    2    3    3    0    0  0.13649304216E+03  0.16590924937E+02  0.25056492300E+03  0.29654735908E+03  0.79069249348E+02 0.  0.
         -6    2    1    2    0  502 -0.10951639748E+03 -0.17068484100E+01  0.55164793227E+03  0.59412778492E+03  0.19150882224E+03 0.  0.
        -24    2    5    5    0    0 -0.35899702936E+02  0.71694259119E+02  0.33386286334E+03  0.35275759922E+03  0.80899053290E+02 0.  0.
          5    1    3    3  501    0 -0.26976644678E+02 -0.14884076527E+02  0.22892808664E+03  0.23103989687E+03  0.47000000000E+01 0. -1.
        -13    1    4    4    0    0  0.63608380409E+01  0.25054274019E+02  0.24779200787E+02  0.35807620681E+02  0.00000000000E+00 0.  1.
         14    1    4    4    0    0  0.13013220412E+03 -0.84633490819E+01  0.22578572221E+03  0.26073973840E+03  0.00000000000E+00 0. -1.
         -5    1    5    5    0  502 -0.73616694542E+02 -0.73401107529E+02  0.21778506893E+03  0.24137018571E+03  0.47000000000E+01 0.  1.
         11    1    6    6    0    0 -0.50086966013E+02  0.70843773700E+02  0.19827306500E+03  0.21642493558E+03  0.00000000000E+00 0. -1.
        -12    1    6    6    0    0  0.14187263077E+02  0.85048541897E+00  0.13558979835E+03  0.13633266364E+03  0.00000000000E+00 0.  1.
</event>
<event>
12    1  0.1683022E-002  0.2250069E+03  0.7818608E-02  0.1130379E+00
         21   -1    0    0  503  502  0.00000000000E+00  0.00000000000E+00  0.18215948864E+03  0.18215948864E+03  0.00000000000E+00 0.  1.
         21   -1    0    0  501  503 -0.00000000000E+00 -0.00000000000E+00 -0.32978644193E+03  0.32978644193E+03  0.00000000000E+00 0.  1.
          6    2    1    2  501    0 -0.10813721903E+03 -0.96104827786E+02 -0.17660605945E+03  0.28603813376E+03  0.17233199838E+03 0.  0.
         24    2    3    3    0    0 -0.33452631852E+02 -0.56041271840E+02 -0.17050641507E+02  0.10530933840E+03  0.80867976669E+02 0.  0.
         -6    2    1    2    0  502  0.10813721903E+03  0.96104827786E+02  0.28979106169E+02  0.22590779681E+03  0.17106942451E+03 0.  0.
        -24    2    5    5    0    0  0.19940782131E+02 -0.66460356654E+01  0.22268766821E+02  0.90248406878E+02  0.84894477949E+02 0.  0.
          5    1    3    3  501    0 -0.74684587183E+02 -0.40063555946E+02 -0.15955541794E+03  0.18072879536E+03  0.47000000000E+01 0. -1.
        -13    1    4    4    0    0 -0.12599788222E+02 -0.62385919916E+02 -0.38781826814E+02  0.74530448530E+02  0.00000000000E+00 0.  1.
         14    1    4    4    0    0 -0.20852843630E+02  0.63446480758E+01  0.21731185307E+02  0.30778889868E+02  0.00000000000E+00 0. -1.
         -5    1    5    5    0  502  0.88196436903E+02  0.10275086345E+03  0.67103393477E+01  0.13565938993E+03  0.47000000000E+01 0.  1.
         11    1    6    6    0    0  0.32016285281E+01 -0.38682927252E+02 -0.11808056363E+02  0.40571535356E+02  0.00000000000E+00 0. -1.
        -12    1    6    6    0    0  0.16739153603E+02  0.32036891587E+02  0.34076823184E+02  0.49676871522E+02  0.00000000000E+00 0.  1.
</event>
<event>
12    1  0.1683022E-002  0.1878519E+03  0.7818608E-02  0.1160479E+00
         21   -1    0    0  501  502  0.00000000000E+00  0.00000000000E+00  0.78033261433E+03  0.78033261433E+03  0.00000000000E+00 0.  1.
         21   -1    0    0  502  503 -0.00000000000E+00 -0.00000000000E+00 -0.47902826935E+02  0.47902826935E+02  0.00000000000E+00 0.  1.
          6    2    1    2  501    0  0.19103685512E+01  0.74861938658E+02  0.46569902160E+03  0.50215926071E+03  0.17227996118E+03 0.  0.
         24    2    3    3    0    0  0.65683174390E+02  0.41486376069E+01  0.29454521409E+03  0.30624331562E+03  0.51928745708E+02 0.  0.
         -6    2    1    2    0  503 -0.19103685512E+01 -0.74861938658E+02  0.26673076580E+03  0.32607618056E+03  0.17196631862E+03 0.  0.
        -24    2    5    5    0    0 -0.17815916244E+02  0.57116593353E+01  0.21461215594E+03  0.22869275983E+03  0.76759175318E+02 0.  0.
          5    1    3    3  501    0 -0.63772805839E+02  0.70713301051E+02  0.17115380752E+03  0.19591594508E+03  0.47000000000E+01 0. -1.
        -13    1    4    4    0    0  0.22688033042E+02  0.40380465192E+01  0.21127627826E+03  0.21252933543E+03  0.00000000000E+00 0.  1.
         14    1    4    4    0    0  0.42995141348E+02  0.11059108772E+00  0.83268935824E+02  0.93713980190E+02  0.00000000000E+00 0. -1.
         -5    1    5    5    0  503  0.15905547693E+02 -0.80573597993E+02  0.52118609854E+02  0.97383420735E+02  0.47000000000E+01 0.  1.
         13    1    6    6    0    0  0.26718433904E+01  0.77800218581E+00  0.20585242129E+03  0.20587123010E+03  0.00000000000E+00 0. -1.
        -14    1    6    6    0    0 -0.20487759635E+02  0.49336571495E+01  0.87597346546E+01  0.22821529724E+02  0.00000000000E+00 0.  1.
</event>
<event>
12    1  0.1683022E-002  0.1788262E+03  0.7818608E-02  0.1169258E+00
         21   -1    0    0  503  502  0.00000000000E+00  0.00000000000E+00  0.58848333185E+03  0.58848333185E+03  0.00000000000E+00 0. -1.
         21   -1    0    0  501  503 -0.00000000000E+00 -0.00000000000E+00 -0.62722842903E+02  0.62722842903E+02  0.00000000000E+00 0. -1.
          6    2    1    2  501    0 -0.45902898645E+02 -0.13082138789E+01  0.14193642001E+03  0.22830850266E+03  0.17282950423E+03 0.  0.
         24    2    3    3    0    0 -0.98699181601E+02 -0.62737628380E+01  0.10364674483E+03  0.16273188033E+03  0.77188915093E+02 0.  0.
         -6    2    1    2    0  502  0.45902898645E+02  0.13082138789E+01  0.38382406894E+03  0.42289767209E+03  0.17150142169E+03 0.  0.
        -24    2    5    5    0    0 -0.33790669761E+02 -0.10082617587E+02  0.26654663558E+03  0.28057092738E+03  0.80183962302E+02 0.  0.
          5    1    3    3  501    0  0.52796282956E+02  0.49655489591E+01  0.38289675182E+02  0.65576622328E+02  0.47000000000E+01 0. -1.
        -11    1    4    4    0    0 -0.63399864886E+02 -0.38492411815E+02  0.81056536019E+02  0.10986978960E+03  0.00000000000E+00 0.  1.
         12    1    4    4    0    0 -0.35299316715E+02  0.32218648977E+02  0.22590208807E+02  0.52862090730E+02  0.00000000000E+00 0. -1.
         -5    1    5    5    0  502  0.79693568406E+02  0.11390831466E+02  0.11727743336E+03  0.14232674472E+03  0.47000000000E+01 0.  1.
         11    1    6    6    0    0  0.22929777937E+02 -0.54136305819E+01  0.13789326552E+03  0.13989151078E+03  0.00000000000E+00 0. -1.
        -12    1    6    6    0    0 -0.56720447698E+02 -0.46689870048E+01  0.12865337006E+03  0.14067941660E+03  0.00000000000E+00 0.  1.
</event>
<event>
12    1  0.1683022E-002  0.1761383E+03  0.7818608E-02  0.1171740E+00
         21   -1    0    0  503  502  0.00000000000E+00  0.00000000000E+00  0.57112199273E+02  0.57112199273E+02  0.00000000000E+00 0. -1.
         21   -1    0    0  501  503 -0.00000000000E+00 -0.00000000000E+00 -0.59016573965E+03  0.59016573965E+03  0.00000000000E+00 0. -1.
          6    2    1    2  501    0  0.28863597517E+02 -0.17846237965E+02 -0.17391659426E+03  0.24753118856E+03  0.17283839874E+03 0.  0.
         24    2    3    3    0    0  0.28755706035E+02  0.47261506538E+02 -0.53946013778E+02  0.11095132102E+03  0.79620867898E+02 0.  0.
         -6    2    1    2    0  502 -0.28863597517E+02  0.17846237965E+02 -0.35913694611E+03  0.39974675036E+03  0.17223972506E+03 0.  0.
        -24    2    5    5    0    0  0.81722251620E+01 -0.26001447000E+01 -0.70746967969E+02  0.10823246903E+03  0.81459117712E+02 0.  0.
          5    1    3    3  501    0  0.10789148220E+00 -0.65107744503E+02 -0.11997058048E+03  0.13657986754E+03  0.47000000000E+01 0. -1.
        -13    1    4    4    0    0  0.22236617678E+02  0.16969050719E+02  0.17555527158E+02  0.33024420992E+02  0.00000000000E+00 0.  1.
         14    1    4    4    0    0  0.65190883568E+01  0.30292455819E+02 -0.71501540936E+02  0.77926900033E+02  0.00000000000E+00 0. -1.
         -5    1    5    5    0  502 -0.37035822679E+02  0.20446382665E+02 -0.28838997815E+03  0.29151428133E+03  0.47000000000E+01 0.  1.
         13    1    6    6    0    0 -0.27930049996E+02  0.10909358980E+02 -0.61756105637E+02  0.68650698391E+02  0.00000000000E+00 0. -1.
        -14    1    6    6    0    0  0.36102275158E+02 -0.13509503680E+02 -0.89908623321E+01  0.39581770637E+02  0.00000000000E+00 0.  1.
</event>
<event>
12    1  0.1683022E-002  0.1998775E+03  0.7818608E-02  0.1151003E+00
         21   -1    0    0  501  502  0.00000000000E+00  0.00000000000E+00  0.15395068433E+03  0.15395068433E+03  0.00000000000E+00 0.  1.
         21   -1    0    0  502  503 -0.00000000000E+00 -0.00000000000E+00 -0.34452734086E+03  0.34452734086E+03  0.00000000000E+00 0.  1.
          6    2    1    2  501    0 -0.63042915408E+02 -0.71556445099E+02  0.34460938625E+02  0.19749145211E+03  0.16947148240E+03 0.  0.
         24    2    3    3    0    0  0.29392597557E+02 -0.47371411056E+02  0.73569347468E+01  0.98063302401E+02  0.80338729217E+02 0.  0.
         -6    2    1    2    0  503  0.63042915408E+02  0.71556445099E+02 -0.22503759516E+03  0.30098657308E+03  0.17565951134E+03 0.  0.
        -24    2    5    5    0    0 -0.42407179953E+00  0.93547329690E+02 -0.96468091376E+02  0.15585261850E+03  0.78947218509E+02 0.  0.
          5    1    3    3  501    0 -0.92435512965E+02 -0.24185034042E+02  0.27104003879E+02  0.99428149711E+02  0.47000000000E+01 0. -1.
        -13    1    4    4    0    0  0.23567853513E+02 -0.26058198519E+02  0.43367890979E+02  0.55814401343E+02  0.00000000000E+00 0.  1.
         14    1    4    4    0    0  0.58247440437E+01 -0.21313212538E+02 -0.36010956232E+02  0.42248901058E+02  0.00000000000E+00 0. -1.
         -5    1    5    5    0  503  0.63466987208E+02 -0.21990884591E+02 -0.12856950378E+03  0.14513395458E+03  0.47000000000E+01 0.  1.
         13    1    6    6    0    0  0.36104921248E+01 -0.13313584673E+02 -0.20376992141E+02  0.24607092452E+02  0.00000000000E+00 0. -1.
        -14    1    6    6    0    0 -0.40345639243E+01  0.10686091436E+03 -0.76091099235E+02  0.13124552605E+03  0.00000000000E+00 0.  1.
</event>
<event>
12    1  0.1683022E-002  0.1913925E+03  0.7818608E-02  0.1157324E+00
         21   -1    0    0  501  502  0.00000000000E+00  0.00000000000E+00  0.88600419420E+03  0.88600419420E+03  0.00000000000E+00 0.  1.
         21   -1    0    0  502  503 -0.00000000000E+00 -0.00000000000E+00 -0.41515641808E+02  0.41515641808E+02  0.00000000000E+00 0. -1.
          6    2    1    2  501    0  0.37055458515E+02  0.73890620841E+02  0.46088003006E+03  0.49904055477E+03  0.17262138438E+03 0.  0.
         24    2    3    3    0    0 -0.47765824652E+02  0.50093584150E+02  0.22084807094E+03  0.24330948425E+03  0.75064595577E+02 0.  0.
         -6    2    1    2    0  503 -0.37055458515E+02 -0.73890620841E+02  0.38360852233E+03  0.42847928123E+03  0.17206413103E+03 0.  0.
        -24    2    5    5    0    0 -0.46554938456E+02 -0.40110523213E+02  0.37978006517E+03  0.39286913943E+03  0.79605567951E+02 0.  0.
          5    1    3    3  501    0  0.84821283167E+02  0.23797036691E+02  0.24003195912E+03  0.25573107053E+03  0.47000000000E+01 0. -1.
        -11    1    4    4    0    0 -0.14244220796E+02 -0.18707087603E+02  0.75024215179E+02  0.78622425655E+02  0.00000000000E+00 0.  1.
         12    1    4    4    0    0 -0.33521603856E+02  0.68800671753E+02  0.14582385576E+03  0.16468705859E+03  0.00000000000E+00 0. -1.
         -5    1    5    5    0  503  0.94994799403E+01 -0.33780097628E+02  0.38284571578E+01  0.35610141801E+02  0.47000000000E+01 0.  1.
         11    1    6    6    0    0  0.43577446654E+01  0.16256487987E+02  0.14815628988E+03  0.14910918674E+03  0.00000000000E+00 0. -1.
        -12    1    6    6    0    0 -0.50912683121E+02 -0.56367011200E+02  0.23162377529E+03  0.24375995269E+03  0.00000000000E+00 0.  1.
</event>
<event>
12    1  0.1683022E-002  0.1889591E+03  0.7818608E-02  0.1159474E+00
         21   -1    0    0  501  502  0.00000000000E+00  0.00000000000E+00  0.16809513082E+04  0.16809513082E+04  0.00000000000E+00 0.  1.
         21   -1    0    0  502  503 -0.00000000000E+00 -0.00000000000E+00 -0.21429058726E+02  0.21429058726E+02  0.00000000000E+00 0. -1.
          6    2    1    2  501    0  0.86798801082E+01  0.77552093600E+02  0.91723988379E+03  0.93650121895E+03  0.17209259468E+03 0.  0.
         24    2    3    3    0    0 -0.83513586661E+01  0.98085537838E+02  0.88634630519E+03  0.89541364631E+03  0.80407135001E+02 0.  0.
         -6    2    1    2    0  503 -0.86798801082E+01 -0.77552093600E+02  0.74228236571E+03  0.76587914800E+03  0.17175008401E+03 0.  0.
        -24    2    5    5    0    0 -0.19811920586E+02 -0.38775381873E+02  0.70434999700E+03  0.71030478076E+03  0.80795549814E+02 0.  0.
          5    1    3    3  501    0  0.17031238774E+02 -0.20533444239E+02  0.30893578602E+02  0.41087572639E+02  0.47000000000E+01 0. -1.
        -11    1    4    4    0    0  0.25992019862E+02  0.70552628787E+02  0.69573201085E+03  0.69978303026E+03  0.00000000000E+00 0.  1.
         12    1    4    4    0    0 -0.34343378528E+02  0.27532909051E+02  0.19061429434E+03  0.19563061605E+03  0.00000000000E+00 0. -1.
         -5    1    5    5    0  503  0.11132040478E+02 -0.38776711727E+02  0.37932368714E+02  0.55574367237E+02  0.47000000000E+01 0.  1.
         13    1    6    6    0    0 -0.15474959499E+02  0.11725122486E+01  0.22854413535E+02  0.27625592745E+02  0.00000000000E+00 0. -1.
        -14    1    6    6    0    0 -0.43369610866E+01 -0.39947894121E+02  0.68149558346E+03  0.68267918802E+03  0.00000000000E+00 0.  1.
</event>
<event>
12    1  0.1683022E-002  0.2347724E+03  0.7818608E-02  0.1123541E+00
         21   -1    0    0  501  502  0.00000000000E+00  0.00000000000E+00  0.40056325493E+03  0.40056325493E+03  0.00000000000E+00 0.  1.
         21   -1    0    0  502  503 -0.00000000000E+00 -0.00000000000E+00 -0.14031364895E+03  0.14031364895E+03  0.00000000000E+00 0.  1.
          6    2    1    2  501    0  0.38805504567E+02 -0.15474774948E+03  0.17216654162E+03  0.29012457866E+03  0.17052337064E+03 0.  0.
         24    2    3    3    0    0  0.86343747038E+02 -0.84360207643E+02  0.82110699898E+02  0.16624384904E+03  0.79517061186E+02 0.  0.
         -6    2    1    2    0  503 -0.38805504567E+02  0.15474774948E+03  0.88083064362E+02  0.25075232523E+03  0.17223637602E+03 0.  0.
        -24    2    5    5    0    0  0.90796270848E+01  0.91795574952E+02 -0.11880944120E+02  0.12319506317E+03  0.80789848049E+02 0.  0.
          5    1    3    3  501    0 -0.47538242471E+02 -0.70387541841E+02  0.90055841719E+02  0.12388072962E+03  0.47000000000E+01 0. -1.
        -13    1    4    4    0    0  0.13960640049E+02 -0.60703683668E+02  0.61088265015E+02  0.87244557446E+02  0.00000000000E+00 0.  1.
         14    1    4    4    0    0  0.72383106989E+02 -0.23656523976E+02  0.21022434884E+02  0.78999291594E+02  0.00000000000E+00 0. -1.
         -5    1    5    5    0  503 -0.47885131652E+02  0.62952174532E+02  0.99964008482E+02  0.12755726206E+03  0.47000000000E+01 0.  1.
         13    1    6    6    0    0  0.45157560066E+02  0.52239650886E+02 -0.53171053221E+01  0.69256465148E+02  0.00000000000E+00 0. -1.
        -14    1    6    6    0    0 -0.36077932981E+02  0.39555924066E+02 -0.65638387978E+01  0.53938598023E+02  0.00000000000E+00 0.  1.
</event>
<event>
12    1  0.1683022E-002  0.2572290E+03  0.7818608E-02  0.1110164E+00
         21   -1    0    0  503  502  0.00000000000E+00  0.00000000000E+00  0.85039846642E+03  0.85039846642E+03  0.00000000000E+00 0. -1.
         21   -1    0    0  501  503 -0.00000000000E+00 -0.00000000000E+00 -0.20671511812E+03  0.20671511812E+03  0.00000000000E+00 0. -1.
          6    2    1    2  501    0 -0.11691192154E+03  0.14197131157E+03  0.74540868645E+03  0.78854350300E+03  0.17984019456E+03 0.  0.
         24    2    3    3    0    0 -0.22648190940E+02  0.26293347670E+02  0.13546344091E+03  0.16059260142E+03  0.78964290176E+02 0.  0.
         -6    2    1    2    0  502  0.11691192154E+03 -0.14197131157E+03 -0.10172533815E+03  0.26857008154E+03  0.16720524385E+03 0.  0.
        -24    2    5    5    0    0  0.88150969901E+02 -0.19589604163E+02 -0.16375274397E+02  0.11654640566E+03  0.71837100262E+02 0.  0.
          5    1    3    3  501    0 -0.94263730595E+02  0.11567796390E+03  0.60994524554E+03  0.62795090158E+03  0.47000000000E+01 0. -1.
        -13    1    4    4    0    0  0.11374874394E+02  0.18322372542E+02  0.92050959777E+00  0.21585746246E+02  0.00000000000E+00 0.  1.
         14    1    4    4    0    0 -0.34023065335E+02  0.79709751276E+01  0.13454293131E+03  0.13900685518E+03  0.00000000000E+00 0. -1.
         -5    1    5    5    0  502  0.28760951634E+02 -0.12238170741E+03 -0.85350063754E+02  0.15202367589E+03  0.47000000000E+01 0.  1.
         11    1    6    6    0    0  0.11104230273E+02 -0.28827885933E+02 -0.23220604447E+02  0.38646441081E+02  0.00000000000E+00 0. -1.
        -12    1    6    6    0    0  0.77046739628E+02  0.92382817696E+01  0.68453300502E+01  0.77899964575E+02  0.00000000000E+00 0.  1.
</event>
<event>
12    1  0.1683022E-002  0.1874524E+03  0.7818608E-02  0.1161489E+00
         21   -1    0    0  503  502  0.00000000000E+00  0.00000000000E+00  0.44446298847E+03  0.44446298847E+03  0.00000000000E+00 0. -1.
         21   -1    0    0  501  503 -0.00000000000E+00 -0.00000000000E+00 -0.79611829065E+02  0.79611829065E+02  0.00000000000E+00 0. -1.
          6    2    1    2  501    0 -0.40483486690E+02  0.53514339835E+02  0.22373277605E+03  0.29188138513E+03  0.17503054203E+03 0.  0.
         24    2    3    3    0    0  0.32530695051E+02 -0.13177642875E+02  0.13663970503E+03  0.16002470417E+03  0.75535425880E+02 0.  0.
         -6    2    1    2    0  502  0.40483486690E+02 -0.53514339835E+02  0.14111838335E+03  0.23219343241E+03  0.17174601791E+03 0.  0.
        -24    2    5    5    0    0  0.89094290668E+02 -0.61745466561E+02  0.96925774873E+02  0.16581694293E+03  0.79689130111E+02 0.  0.
          5    1    3    3  501    0 -0.73014181741E+02  0.66691982710E+02  0.87093071023E+02  0.13185668096E+03  0.47000000000E+01 0. -1.
        -11    1    4    4    0    0  0.18952421708E+02 -0.19151023572E+02  0.48179780337E+01  0.27370950016E+02  0.00000000000E+00 0.  1.
         12    1    4    4    0    0  0.13578273343E+02  0.59733806963E+01  0.13182172699E+03  0.13265375415E+03  0.00000000000E+00 0. -1.
         -5    1    5    5    0  502 -0.48610803977E+02  0.82311267260E+01  0.44192608482E+02  0.66376489474E+02  0.47000000000E+01 0.  1.
         11    1    6    6    0    0  0.20214338784E+02  0.19456788128E+02  0.20413170046E+02  0.34697025926E+02  0.00000000000E+00 0. -1.
        -12    1    6    6    0    0  0.68879951883E+02 -0.81202254689E+02  0.76512604827E+02  0.13111991701E+03  0.00000000000E+00 0.  1.
</event>
<event>
12    1  0.1683022E-002  0.1765943E+03  0.7818608E-02  0.1171171E+00
         21   -1    0    0  503  502  0.00000000000E+00  0.00000000000E+00  0.46667729700E+03  0.46667729700E+03  0.00000000000E+00 0. -1.
         21   -1    0    0  501  503 -0.00000000000E+00 -0.00000000000E+00 -0.10302888289E+03  0.10302888289E+03  0.00000000000E+00 0.  1.
          6    2    1    2  501    0  0.24898176124E+02  0.30797980285E+02  0.12898646836E+02  0.17706477561E+03  0.17209626639E+03 0.  0.
         24    2    3    3    0    0  0.30231653489E+01  0.86150266041E+02 -0.12356745857E+02  0.11223949894E+03  0.70809660967E+02 0.  0.
         -6    2    1    2    0  502 -0.24898176124E+02 -0.30797980285E+02  0.35074976728E+03  0.39264140429E+03  0.17196929479E+03 0.  0.
        -24    2    5    5    0    0 -0.42886492015E+02 -0.14410290543E+02  0.35567260918E+03  0.36737363319E+03  0.80084166824E+02 0.  0.
          5    1    3    3  501    0  0.21875010775E+02 -0.55352285756E+02  0.25255392693E+02  0.64825276667E+02  0.47000000000E+01 0. -1.
        -11    1    4    4    0    0 -0.26483491844E+02  0.26832985399E+02 -0.24392638989E+02  0.44904178898E+02  0.00000000000E+00 0.  1.
         12    1    4    4    0    0  0.29506657193E+02  0.59317280642E+02  0.12035893132E+02  0.67335320041E+02  0.00000000000E+00 0. -1.
         -5    1    5    5    0  502  0.17988315892E+02 -0.16387689741E+02 -0.49228418976E+01  0.25267771094E+02  0.47000000000E+01 0.  1.
         11    1    6    6    0    0  0.19744181705E+02 -0.34699105148E+01  0.16869754325E+03  0.16988447277E+03  0.00000000000E+00 0. -1.
        -12    1    6    6    0    0 -0.62630673720E+02 -0.10940380028E+02  0.18697506593E+03  0.19748916042E+03  0.00000000000E+00 0.  1.
</event>
<event>
12    1  0.1683022E-002  0.2194662E+03  0.7818608E-02  0.1134324E+00
         21   -1    0    0  503  502  0.00000000000E+00  0.00000000000E+00  0.46460977770E+03  0.46460977770E+03  0.00000000000E+00 0. -1.
         21   -1    0    0  501  503 -0.00000000000E+00 -0.00000000000E+00 -0.12479190788E+03  0.12479190788E+03  0.00000000000E+00 0. -1.
          6    2    1    2  501    0  0.13334748378E+02 -0.13538329924E+03  0.48426560787E+02  0.22474550260E+03  0.17221775728E+03 0.  0.
         24    2    3    3    0    0  0.74013595669E+02 -0.61754589484E+02  0.29225070857E+02  0.12730887384E+03  0.77857581036E+02 0.  0.
         -6    2    1    2    0  502 -0.13334748378E+02  0.13538329924E+03  0.29139130903E+03  0.36465618298E+03  0.17192668081E+03 0.  0.
        -24    2    5    5    0    0  0.49345855663E+02  0.60002692925E+02  0.20860675274E+03  0.23625654633E+03  0.79152016796E+02 0.  0.
          5    1    3    3  501    0 -0.60678847292E+02 -0.73628709756E+02  0.19201489930E+02  0.97436628762E+02  0.47000000000E+01 0. -1.
        -11    1    4    4    0    0  0.47167370076E+02 -0.41360031099E+02 -0.21574945368E+02  0.66339213442E+02  0.00000000000E+00 0.  1.
         12    1    4    4    0    0  0.26846225593E+02 -0.20394558385E+02  0.50800016225E+02  0.60969660395E+02  0.00000000000E+00 0. -1.
         -5    1    5    5    0  502 -0.62680604040E+02  0.75380606316E+02  0.82784556290E+02  0.12839963665E+03  0.47000000000E+01 0.  1.
         11    1    6    6    0    0 -0.15752919094E+02  0.39675510844E+02  0.78128526517E+02  0.89030148133E+02  0.00000000000E+00 0. -1.
        -12    1    6    6    0    0  0.65098774757E+02  0.20327182081E+02  0.13047822623E+03  0.14722639820E+03  0.00000000000E+00 0.  1.
</event>
<event>
12    1  0.1683022E-002  0.2248283E+03  0.7818608E-02  0.1130358E+00
         21   -1    0    0  501  502  0.00000000000E+00  0.00000000000E+00  0.27420790876E+03  0.27420790876E+03  0.00000000000E+00 0. -1.
         21   -1    0    0  502  503 -0.00000000000E+00 -0.00000000000E+00 -0.18440382596E+03  0.18440382596E+03  0.00000000000E+00 0. -1.
          6    2    1    2  501    0  0.14186773250E+03 -0.28598405478E+02  0.51897671034E+02  0.23061029146E+03  0.17188198261E+03 0.  0.
         24    2    3    3    0    0  0.12794308861E+03  0.95065674790E+01  0.76659414745E+02  0.18284923385E+03  0.10534404446E+03 0.  0.
         -6    2    1    2    0  503 -0.14186773250E+03  0.28598405478E+02  0.37906411771E+02  0.22800144326E+03  0.17205650164E+03 0.  0.
        -24    2    5    5    0    0 -0.87979588750E+01  0.24927984609E+02 -0.14852476058E+02  0.84730277678E+02  0.79118995275E+02 0.  0.
          5    1    3    3  501    0  0.13924643891E+02 -0.38104972957E+02 -0.24761743711E+02  0.47761057601E+02  0.47000000000E+01 0. -1.
        -13    1    4    4    0    0  0.37920609643E+01 -0.68282435698E+01 -0.22055242161E+02  0.23397400355E+02  0.00000000000E+00 0.  1.
         14    1    4    4    0    0  0.12415102765E+03  0.16334811049E+02  0.98714656906E+02  0.15945183350E+03  0.00000000000E+00 0. -1.
         -5    1    5    5    0  503 -0.13306977363E+03  0.36704208692E+01  0.52758887829E+02  0.14327116559E+03  0.47000000000E+01 0.  1.
         13    1    6    6    0    0 -0.33029793701E+02  0.41392183030E+02 -0.16274613265E+02  0.55399847697E+02  0.00000000000E+00 0. -1.
        -14    1    6    6    0    0  0.24231834826E+02 -0.16464198421E+02  0.14221372065E+01  0.29330429982E+02  0.00000000000E+00 0.  1.
</event>
<event>
12    1  0.1683022E-002  0.1766026E+03  0.7818608E-02  0.1171305E+00
         21   -1    0    0  501  502  0.00000000000E+00  0.00000000000E+00  0.13308927868E+03  0.13308927868E+03  0.00000000000E+00 0.  1.
         21   -1    0    0  502  503 -0.00000000000E+00 -0.00000000000E+00 -0.30484051093E+03  0.30484051093E+03  0.00000000000E+00 0.  1.
          6    2    1    2  501    0 -0.34354033817E+02 -0.12655019439E+02  0.19980009310E+02  0.17772918037E+03  0.17276606040E+03 0.  0.
         24    2    3    3    0    0 -0.53949113587E+02 -0.66556927777E+02  0.22593833710E+02  0.12012445008E+03  0.81111470783E+02 0.  0.
         -6    2    1    2    0  503  0.34354033817E+02  0.12655019439E+02 -0.19173124156E+03  0.26020060925E+03  0.17205562736E+03 0.  0.
        -24    2    5    5    0    0  0.43179339780E+02 -0.37081309038E+02 -0.44836165773E+02  0.10479198115E+03  0.75707322560E+02 0.  0.
          5    1    3    3  501    0  0.19595079770E+02  0.53901908338E+02 -0.26138244003E+01  0.57604730289E+02  0.47000000000E+01 0. -1.
        -11    1    4    4    0    0 -0.62524563313E+01 -0.24459119713E+02  0.45889754881E+02  0.52375675178E+02  0.00000000000E+00 0.  1.
         12    1    4    4    0    0 -0.47696657256E+02 -0.42097808064E+02 -0.23295921170E+02  0.67748774899E+02  0.00000000000E+00 0. -1.
         -5    1    5    5    0  503 -0.88253059622E+01  0.49736328477E+02 -0.14689507578E+03  0.15540862809E+03  0.47000000000E+01 0.  1.
         11    1    6    6    0    0  0.40191445412E+02 -0.58380742512E+02 -0.43672945279E+02  0.83252564704E+02  0.00000000000E+00 0. -1.
        -12    1    6    6    0    0  0.29878943674E+01  0.21299433474E+02 -0.11632204945E+01  0.21539416449E+02  0.00000000000E+00 0.  1.
</event>
<event>
12    1  0.1683022E-002  0.2653825E+03  0.7818608E-02  0.1105299E+00
         21   -1    0    0  503  502  0.00000000000E+00  0.00000000000E+00  0.40824871330E+03  0.40824871330E+03  0.00000000000E+00 0. -1.
         21   -1    0    0  501  503 -0.00000000000E+00 -0.00000000000E+00 -0.16853783379E+03  0.16853783379E+03  0.00000000000E+00 0.  1.
          6    2    1    2  501    0 -0.28897884809E+02  0.19595303338E+03  0.91686417216E+02  0.28077442448E+03  0.17662162750E+03 0.  0.
         24    2    3    3    0    0  0.32256697910E+02  0.17949475852E+03  0.86918186188E+02  0.21709095860E+03  0.79466032487E+02 0.  0.
         -6    2    1    2    0  502  0.28897884809E+02 -0.19595303338E+03  0.14802446229E+03  0.29601212261E+03  0.16272447958E+03 0.  0.
        -24    2    5    5    0    0 -0.42728046839E+02 -0.12472349072E+03  0.75101231691E+02  0.17133730801E+03  0.79590470488E+02 0.  0.
          5    1    3    3  501    0 -0.61154582719E+02  0.16458274863E+02  0.47682310282E+01  0.63683465877E+02  0.47000000000E+01 0. -1.
        -11    1    4    4    0    0  0.17993354223E+02  0.82636104268E+02 -0.23428640638E+01  0.84604819820E+02  0.00000000000E+00 0.  1.
         12    1    4    4    0    0  0.14263343687E+02  0.96858654253E+02  0.89261050251E+02  0.13248613878E+03  0.00000000000E+00 0. -1.
         -5    1    5    5    0  502  0.71625931647E+02 -0.71229542669E+02  0.72923230603E+02  0.12467481460E+03  0.47000000000E+01 0.  1.
         13    1    6    6    0    0 -0.42544385545E+02 -0.54178254668E+02  0.73554525746E+02  0.10077487920E+03  0.00000000000E+00 0. -1.
        -14    1    6    6    0    0 -0.18366129400E+00 -0.70545236047E+02  0.15467059443E+01  0.70562428811E+02  0.00000000000E+00 0.  1.
</event>
<event>
12    1  0.1683022E-002  0.2301813E+03  0.7818608E-02  0.1126624E+00
         21   -1    0    0  503  502  0.00000000000E+00  0.00000000000E+00  0.52377601765E+03  0.52377601765E+03  0.00000000000E+00 0. -1.
         21   -1    0    0  501  503 -0.00000000000E+00 -0.00000000000E+00 -0.13707750740E+03  0.13707750740E+03  0.00000000000E+00 0.  1.
          6    2    1    2  501    0 -0.90562697738E+02  0.12395398110E+03  0.36295330481E+03  0.42945068254E+03  0.17066515641E+03 0.  0.
         24    2    3    3    0    0 -0.31528083880E+02 -0.42378379648E+01  0.17275978625E+03  0.19256697139E+03  0.78893062939E+02 0.  0.
         -6    2    1    2    0  502  0.90562697738E+02 -0.12395398110E+03  0.23745205444E+02  0.23140284250E+03  0.17151457397E+03 0.  0.
        -24    2    5    5    0    0 -0.81029026815E+01 -0.32390656538E+02  0.37603944780E+02  0.96003810870E+02  0.81779357883E+02 0.  0.
          5    1    3    3  501    0 -0.59034613858E+02  0.12819181907E+03  0.19019351856E+03  0.23688371115E+03  0.47000000000E+01 0. -1.
        -11    1    4    4    0    0  0.10810614212E+02 -0.26893627072E+02  0.29009361109E+02  0.41008286829E+02  0.00000000000E+00 0.  1.
         12    1    4    4    0    0 -0.42338698092E+02  0.22655789107E+02  0.14375042515E+03  0.15155868456E+03  0.00000000000E+00 0. -1.
         -5    1    5    5    0  502  0.98665600420E+02 -0.91563324565E+02 -0.13858739336E+02  0.13539903163E+03  0.47000000000E+01 0.  1.
         11    1    6    6    0    0 -0.52673263057E+01  0.25807383794E+02  0.25155000117E+02  0.36421694299E+02  0.00000000000E+00 0. -1.
        -12    1    6    6    0    0 -0.28355763759E+01 -0.58198040332E+02  0.12448944663E+02  0.59582116571E+02  0.00000000000E+00 0.  1.
</event>
<event>
12    1  0.1683022E-002  0.2002311E+03  0.7818608E-02  0.1149569E+00
         21   -1    0    0  503  502  0.00000000000E+00  0.00000000000E+00  0.48285245286E+02  0.48285245286E+02  0.00000000000E+00 0. -1.
         21   -1    0    0  501  503 -0.00000000000E+00 -0.00000000000E+00 -0.84005429222E+03  0.84005429222E+03  0.00000000000E+00 0. -1.
          6    2    1    2  501    0  0.59848729445E+02  0.82941553471E+02 -0.34678694368E+03  0.40038300323E+03  0.17200056180E+03 0.  0.
         24    2    3    3    0    0 -0.10631673369E+02  0.87922034842E+02 -0.27424594625E+03  0.29900954180E+03  0.79702888027E+02 0.  0.
         -6    2    1    2    0  502 -0.59848729445E+02 -0.82941553471E+02 -0.44498210325E+03  0.48795653427E+03  0.17213754796E+03 0.  0.
        -24    2    5    5    0    0 -0.87268004767E+02 -0.88380829602E+02 -0.43222453264E+03  0.45687200449E+03  0.80542573653E+02 0.  0.
          5    1    3    3  501    0  0.70480402814E+02 -0.49804813712E+01 -0.72540997428E+02  0.10137346143E+03  0.47000000000E+01 0. -1.
        -13    1    4    4    0    0 -0.14240700784E+02  0.20947209883E+02 -0.18826827868E+03  0.18996454385E+03  0.00000000000E+00 0.  1.
         14    1    4    4    0    0  0.36090274148E+01  0.66974824959E+02 -0.85977667571E+02  0.10904499795E+03  0.00000000000E+00 0. -1.
         -5    1    5    5    0  502  0.27419275322E+02  0.54392761313E+01 -0.12757570607E+02  0.31084529783E+02  0.47000000000E+01 0.  1.
         11    1    6    6    0    0 -0.54337688667E+02 -0.28631739372E+02 -0.31757321710E+03  0.32345804848E+03  0.00000000000E+00 0. -1.
        -12    1    6    6    0    0 -0.32930316100E+02 -0.59749090230E+02 -0.11465131555E+03  0.13341395601E+03  0.00000000000E+00 0.  1.
</event>
<event>
12    1  0.1683022E-002  0.1982469E+03  0.7818608E-02  0.1151843E+00
         21   -1    0    0  503  502  0.00000000000E+00  0.00000000000E+00  0.23182459750E+04  0.23182459750E+04  0.00000000000E+00 0. -1.
         21   -1    0    0  501  503 -0.00000000000E+00 -0.00000000000E+00 -0.16841320678E+02  0.16841320678E+02  0.00000000000E+00 0.  1.
          6    2    1    2  501    0 -0.36563541562E+02 -0.86543129990E+02  0.12458847798E+04  0.12611114886E+04  0.17130877469E+03 0.  0.
         24    2    3    3    0    0 -0.72081859386E+02 -0.95776963682E+02  0.11377575253E+04  0.11468293477E+04  0.79726689181E+02 0.  0.
         -6    2    1    2    0  502  0.36563541562E+02  0.86543129990E+02  0.10555198745E+04  0.10739758071E+04  0.17457154035E+03 0.  0.
        -24    2    5    5    0    0 -0.19542821725E+02 -0.69896388940E+00  0.28389745690E+03  0.29539867386E+03  0.79247713245E+02 0.  0.
          5    1    3    3  501    0  0.35518317825E+02  0.92338336920E+01  0.10812725443E+03  0.11428214093E+03  0.47000000000E+01 0. -1.
        -11    1    4    4    0    0 -0.40935652331E+02 -0.47674364174E+02  0.27143647102E+03  0.27861502191E+03  0.00000000000E+00 0.  1.
         12    1    4    4    0    0 -0.31146207055E+02 -0.48102599508E+02  0.86632105431E+03  0.86821432575E+03  0.00000000000E+00 0. -1.
         -5    1    5    5    0  502  0.56106363287E+02  0.87242093880E+02  0.77162241763E+03  0.77857713319E+03  0.47000000000E+01 0.  1.
         13    1    6    6    0    0 -0.22616637561E+02  0.34750589038E+02  0.10294717445E+03  0.11098304582E+03  0.00000000000E+00 0. -1.
        -14    1    6    6    0    0  0.30738158356E+01 -0.35449552928E+02  0.18095028245E+03  0.18441562804E+03  0.00000000000E+00 0.  1.
</event>
<event>
12    1  0.1683022E-002  0.2356242E+03  0.7818608E-02  0.1123105E+00
         21   -1    0    0  503  502  0.00000000000E+00  0.00000000000E+00  0.11726619220E+04  0.11726619220E+04  0.00000000000E+00 0. -1.
         21   -1    0    0  501  503 -0.00000000000E+00 -0.00000000000E+00 -0.47140873266E+02  0.47140873266E+02  0.00000000000E+00 0. -1.
          6    2    1    2  501    0 -0.61286761706E+02 -0.14619497389E+03  0.51855180065E+03  0.56870338184E+03  0.17145999243E+03 0.  0.
         24    2    3    3    0    0 -0.23906873954E+02 -0.61577076195E+02  0.10980413323E+03  0.14959219105E+03  0.77185497434E+02 0.  0.
         -6    2    1    2    0  502  0.61286761706E+02  0.14619497389E+03  0.60696924813E+03  0.65109941348E+03  0.17432653412E+03 0.  0.
        -24    2    5    5    0    0 -0.33896704904E+01  0.36060163650E+02  0.38602845548E+03  0.39585513604E+03  0.79821645034E+02 0.  0.
          5    1    3    3  501    0 -0.37379887752E+02 -0.84617897699E+02  0.40874766742E+03  0.41911119079E+03  0.47000000000E+01 0. -1.
        -13    1    4    4    0    0  0.17489722264E+02 -0.11796716599E+02  0.71095184144E+02  0.74159140474E+02  0.00000000000E+00 0.  1.
         14    1    4    4    0    0 -0.41396596218E+02 -0.49780359596E+02  0.38708949082E+02  0.75433050574E+02  0.00000000000E+00 0. -1.
         -5    1    5    5    0  502  0.64676432197E+02  0.11013481024E+03  0.22094079265E+03  0.25524427744E+03  0.47000000000E+01 0.  1.
         13    1    6    6    0    0 -0.36951513595E+02  0.36889113530E+02  0.27291380109E+03  0.27786357063E+03  0.00000000000E+00 0. -1.
        -14    1    6    6    0    0  0.33561843104E+02 -0.82894987975E+00  0.11311465439E+03  0.11799156541E+03  0.00000000000E+00 0.  1.
</event>
<event>
12    1  0.1683022E-002  0.2962660E+03  0.7818608E-02  0.1087329E+00
         21   -1    0    0  503  502  0.00000000000E+00  0.00000000000E+00  0.20688918570E+03  0.20688918570E+03  0.00000000000E+00 0. -1.
         21   -1    0    0  501  503 -0.00000000000E+00 -0.00000000000E+00 -0.45249325385E+03  0.45249325385E+03  0.00000000000E+00 0.  1.
          6    2    1    2  501    0 -0.10508824693E+03 -0.21434015441E+03 -0.20817168369E+03  0.36076108417E+03  0.17270746516E+03 0.  0.
         24    2    3    3    0    0 -0.96919803923E+02 -0.96951669439E+02 -0.18015435105E+03  0.23970803467E+03  0.78811655757E+02 0.  0.
         -6    2    1    2    0  502  0.10508824693E+03  0.21434015441E+03 -0.37432384459E+02  0.29862135538E+03  0.17546591990E+03 0.  0.
        -24    2    5    5    0    0  0.12206827771E+03  0.22380306414E+03 -0.52273158830E+02  0.27371740610E+03  0.84854341818E+02 0.  0.
          5    1    3    3  501    0 -0.81684430111E+01 -0.11738848497E+03 -0.28017332648E+02  0.12105304951E+03  0.47000000000E+01 0. -1.
        -11    1    4    4    0    0  0.87403133350E+01 -0.33411449363E+02 -0.45696741360E+02  0.57279230063E+02  0.00000000000E+00 0.  1.
         12    1    4    4    0    0 -0.10566011726E+03 -0.63540220076E+02 -0.13445760969E+03  0.18242880460E+03  0.00000000000E+00 0. -1.
         -5    1    5    5    0  502 -0.16980030779E+02 -0.94629097298E+01  0.14840774371E+02  0.24903949280E+02  0.47000000000E+01 0.  1.
         13    1    6    6    0    0  0.23090895363E+01 -0.51987272969E+01  0.65559084629E+01  0.86797808594E+01  0.00000000000E+00 0. -1.
        -14    1    6    6    0    0  0.11975918818E+03  0.22900179144E+03 -0.58829067293E+02  0.26503762524E+03  0.00000000000E+00 0.  1.
</event>
<event>
12    1  0.1683022E-002  0.2985842E+03  0.7818608E-02  0.1086050E+00
         21   -1    0    0  503  502  0.00000000000E+00  0.00000000000E+00  0.39014194803E+03  0.39014194803E+03  0.00000000000E+00 0. -1.
         21   -1    0    0  501  503 -0.00000000000E+00 -0.00000000000E+00 -0.30861322479E+03  0.30861322479E+03  0.00000000000E+00 0.  1.
          6    2    1    2  501    0 -0.13742387336E+03  0.20006870692E+03 -0.13786086439E+03  0.32887405636E+03  0.17389571173E+03 0.  0.
         24    2    3    3    0    0 -0.68354922159E+02  0.16439991715E+03 -0.15473013213E+03  0.24919065295E+03  0.80342016342E+02 0.  0.
         -6    2    1    2    0  502  0.13742387336E+03 -0.20006870692E+03  0.21938958763E+03  0.36988111647E+03  0.17253243376E+03 0.  0.
        -24    2    5    5    0    0  0.85636468832E+02 -0.20091133931E+03  0.13015510633E+03  0.26659739098E+03  0.80217492590E+02 0.  0.
          5    1    3    3  501    0 -0.69068951201E+02  0.35668789773E+02  0.16869267741E+02  0.79683403403E+02  0.47000000000E+01 0. -1.
        -13    1    4    4    0    0 -0.63643685982E+02  0.60763039176E+02 -0.47522439897E+02  0.10000523981E+03  0.00000000000E+00 0.  1.
         14    1    4    4    0    0 -0.47112361772E+01  0.10363687797E+03 -0.10720769223E+03  0.14918541315E+03  0.00000000000E+00 0. -1.
         -5    1    5    5    0  502  0.51787404528E+02  0.84263238971E+00  0.89234481301E+02  0.10328372549E+03  0.47000000000E+01 0.  1.
         11    1    6    6    0    0  0.59789210174E+02 -0.78334055186E+02  0.94058782593E+02  0.13622785485E+03  0.00000000000E+00 0. -1.
        -12    1    6    6    0    0  0.25847258658E+02 -0.12257728412E+03  0.36096323740E+02  0.13036953613E+03  0.00000000000E+00 0.  1.
</event>
<event>
12    1  0.1683022E-002  0.2121788E+03  0.7818608E-02  0.1139903E+00
         21   -1    0    0  503  502  0.00000000000E+00  0.00000000000E+00  0.43989512174E+03  0.43989512174E+03  0.00000000000E+00 0.  1.
         21   -1    0    0  501  503 -0.00000000000E+00 -0.00000000000E+00 -0.15204437420E+03  0.15204437420E+03  0.00000000000E+00 0. -1.
          6    2    1    2  501    0 -0.63061518427E+02  0.10702874226E+03 -0.25446809687E+02  0.21369932274E+03  0.17201149275E+03 0.  0.
         24    2    3    3    0    0  0.77060714819E+01  0.98666054117E+01  0.21347041106E+02  0.84624588220E+02  0.80925220588E+02 0.  0.
         -6    2    1    2    0  502  0.63061518427E+02 -0.10702874226E+03  0.31329755722E+03  0.37824017321E+03  0.17169263959E+03 0.  0.
        -24    2    5    5    0    0  0.65621791757E+02 -0.45788891733E+02  0.87098181291E+02  0.14383641478E+03  0.81853398668E+02 0.  0.
          5    1    3    3  501    0 -0.70767589909E+02  0.97162136849E+02 -0.46793850793E+02  0.12907473452E+03  0.47000000000E+01 0. -1.
        -11    1    4    4    0    0 -0.93480378762E+01  0.16522640244E+02  0.48382751625E+02  0.51973782886E+02  0.00000000000E+00 0.  1.
         12    1    4    4    0    0  0.17054109358E+02 -0.66560348320E+01 -0.27035710518E+02  0.32650805333E+02  0.00000000000E+00 0. -1.
         -5    1    5    5    0  502 -0.25602733304E+01 -0.61239850527E+02  0.22619937593E+03  0.23440375843E+03  0.47000000000E+01 0.  1.
         13    1    6    6    0    0 -0.13629494333E+02  0.33923608536E+01 -0.27687801119E+01  0.14315633805E+02  0.00000000000E+00 0. -1.
        -14    1    6    6    0    0  0.79251286090E+02 -0.49181252587E+02  0.89866961403E+02  0.12952078098E+03  0.00000000000E+00 0.  1.
</event>
<event>
12    1  0.1683022E-002  0.2251366E+03  0.7818608E-02  0.1130343E+00
         21   -1    0    0  503  502  0.00000000000E+00  0.00000000000E+00  0.19419804375E+03  0.19419804375E+03  0.00000000000E+00 0. -1.
         21   -1    0    0  501  503 -0.00000000000E+00 -0.00000000000E+00 -0.30733154198E+03  0.30733154198E+03  0.00000000000E+00 0.  1.
          6    2    1    2  501    0  0.12648929258E+03  0.67964953100E+02 -0.15533847582E+03  0.27247122339E+03  0.17173162062E+03 0.  0.
         24    2    3    3    0    0  0.12024287704E+03  0.86388738925E+02 -0.17616026696E+03  0.24359059706E+03  0.79891023430E+02 0.  0.
         -6    2    1    2    0  502 -0.12648929258E+03 -0.67964953100E+02  0.42204977594E+02  0.22905836233E+03  0.17340039572E+03 0.  0.
        -24    2    5    5    0    0 -0.73151259635E+02 -0.23840583780E+02  0.88025798486E+02  0.14591064226E+03  0.87303459866E+02 0.  0.
          5    1    3    3  501    0  0.62464155334E+01 -0.18423785824E+02  0.20821791144E+02  0.28880626336E+02  0.47000000000E+01 0. -1.
        -11    1    4    4    0    0  0.18130132987E+02  0.51565963417E+02 -0.90951092143E+02  0.10611244728E+03  0.00000000000E+00 0.  1.
         12    1    4    4    0    0  0.10211274406E+03  0.34822775508E+02 -0.85209174822E+02  0.13747814978E+03  0.00000000000E+00 0. -1.
         -5    1    5    5    0  502 -0.53338032943E+02 -0.44124369321E+02 -0.45820820892E+02  0.83147720073E+02  0.47000000000E+01 0.  1.
         11    1    6    6    0    0 -0.78227705977E+02 -0.46032546988E+02  0.56116032138E+02  0.10671259732E+03  0.00000000000E+00 0. -1.
        -12    1    6    6    0    0  0.50764463420E+01  0.22191963208E+02  0.31909766348E+02  0.39198044937E+02  0.00000000000E+00 0.  1.
</event>
<event>
12    1  0.1683022E-002  0.2226708E+03  0.7818608E-02  0.1132575E+00
         21   -1    0    0  503  502  0.00000000000E+00  0.00000000000E+00  0.42766056567E+03  0.42766056567E+03  0.00000000000E+00 0.  1.
         21   -1    0    0  501  503 -0.00000000000E+00 -0.00000000000E+00 -0.15355595094E+03  0.15355595094E+03  0.00000000000E+00 0. -1.
          6    2    1    2  501    0 -0.54249204456E+02 -0.12852293841E+03 -0.11147427312E+02  0.21934497678E+03  0.16889888046E+03 0.  0.
         24    2    3    3    0    0  0.12706383192E+02 -0.73790221351E+02 -0.53622472301E+02  0.12288285737E+03  0.81353415167E+02 0.  0.
         -6    2    1    2    0  502  0.54249204456E+02  0.12852293841E+03  0.28525204204E+03  0.36187153984E+03  0.17355449281E+03 0.  0.
        -24    2    5    5    0    0 -0.13798652153E+02  0.96529169322E+02  0.13356637511E+03  0.19250583019E+03  0.98540523481E+02 0.  0.
          5    1    3    3  501    0 -0.66955587648E+02 -0.54732717057E+02  0.42475044989E+02  0.96462119407E+02  0.47000000000E+01 0. -1.
        -13    1    4    4    0    0  0.11696202245E+02  0.16393876834E+02 -0.67458721138E+01  0.21238341159E+02  0.00000000000E+00 0.  1.
         14    1    4    4    0    0  0.10101809471E+01 -0.90184098186E+02 -0.46876600187E+02  0.10164451621E+03  0.00000000000E+00 0. -1.
         -5    1    5    5    0  502  0.68047856609E+02  0.31993769086E+02  0.15168566693E+03  0.16936570964E+03  0.47000000000E+01 0.  1.
         13    1    6    6    0    0 -0.36632442318E+02 -0.26866428520E+01  0.32380788065E+02  0.48966001631E+02  0.00000000000E+00 0. -1.
        -14    1    6    6    0    0  0.22833790165E+02  0.99215812174E+02  0.10118558704E+03  0.14353982856E+03  0.00000000000E+00 0.  1.
</event>
<event>
12    1  0.1683022E-002  0.1980012E+03  0.7818608E-02  0.1151839E+00
         21   -1    0    0  501  502  0.00000000000E+00  0.00000000000E+00  0.11657563348E+03  0.11657563348E+03  0.00000000000E+00 0. -1.
         21   -1    0    0  502  503 -0.00000000000E+00 -0.00000000000E+00 -0.36085498809E+03  0.36085498809E+03  0.00000000000E+00 0. -1.
          6    2    1    2  501    0 -0.75210171190E+02 -0.57164206696E+02 -0.56502440697E+02  0.20590536648E+03  0.17401200466E+03 0.  0.
         24    2    3    3    0    0 -0.39019236856E+02 -0.57490706378E+02  0.30628593226E+02  0.11143951338E+03  0.81565754178E+02 0.  0.
         -6    2    1    2    0  503  0.75210171190E+02  0.57164206696E+02 -0.18777691391E+03  0.27152525508E+03  0.17187634616E+03 0.  0.
        -24    2    5    5    0    0  0.52497477773E+02 -0.31974554815E+02 -0.12228327060E+03  0.15850714785E+03  0.79955989922E+02 0.  0.
          5    1    3    3  501    0 -0.36190934334E+02  0.32649968177E+00 -0.87131033923E+02  0.94465853103E+02  0.47000000000E+01 0. -1.
        -13    1    4    4    0    0  0.15191182040E+02 -0.47888534586E+02  0.43300079925E+01  0.50426508165E+02  0.00000000000E+00 0.  1.
         14    1    4    4    0    0 -0.54210418896E+02 -0.96021717924E+01  0.26298585233E+02  0.61013005215E+02  0.00000000000E+00 0. -1.
         -5    1    5    5    0  503  0.22712693418E+02  0.89138761512E+02 -0.65493643313E+02  0.11301810722E+03  0.47000000000E+01 0.  1.
         11    1    6    6    0    0  0.25181988363E+02  0.25170979408E+02 -0.59404740590E+02  0.69257735646E+02  0.00000000000E+00 0. -1.
        -12    1    6    6    0    0  0.27315489410E+02 -0.57145534223E+02 -0.62878530009E+02  0.89249412208E+02  0.00000000000E+00 0.  1.
</event>
<event>
12    1  0.1683022E-002  0.2331891E+03  0.7818608E-02  0.1124470E+00
         21   -1    0    0  503  502  0.00000000000E+00  0.00000000000E+00  0.63097633132E+03  0.63097633132E+03  0.00000000000E+00 0.  1.
         21   -1    0    0  501  503 -0.00000000000E+00 -0.00000000000E+00 -0.10888365599E+03  0.10888365599E+03  0.00000000000E+00 0. -1.
          6    2    1    2  501    0 -0.88267591042E+02  0.12991672885E+03  0.91824588653E+02  0.25061703257E+03  0.17235897965E+03 0.  0.
         24    2    3    3    0    0 -0.61430624398E+02  0.69066670110E+02 -0.17171098826E+02  0.12284730878E+03  0.79073940747E+02 0.  0.
         -6    2    1    2    0  502  0.88267591042E+02 -0.12991672885E+03  0.43026808668E+03  0.48924295475E+03  0.17192590930E+03 0.  0.
        -24    2    5    5    0    0  0.40909521164E+02 -0.87069466258E+01  0.39263023716E+02  0.77124467716E+02  0.51548022732E+02 0.  0.
          5    1    3    3  501    0 -0.26836966643E+02  0.60850058743E+02  0.10899568748E+03  0.12776972379E+03  0.47000000000E+01 0. -1.
        -11    1    4    4    0    0  0.13029977664E+02 -0.56384007338E+01 -0.95200970173E+01  0.17093979290E+02  0.00000000000E+00 0.  1.
         12    1    4    4    0    0 -0.74460602062E+02  0.74705070844E+02 -0.76510018083E+01  0.10575332949E+03  0.00000000000E+00 0. -1.
         -5    1    5    5    0  502  0.47358069877E+02 -0.12120978223E+03  0.39100506296E+03  0.41211848703E+03  0.47000000000E+01 0.  1.
         13    1    6    6    0    0  0.19634340590E+01  0.53114360118E+01 -0.10782699430E+02  0.12179204933E+02  0.00000000000E+00 0. -1.
        -14    1    6    6    0    0  0.38946087105E+02 -0.14018382638E+02  0.50045723147E+02  0.64945262782E+02  0.00000000000E+00 0.  1.
</event>
<event>
12    1  0.1683022E-002  0.2271733E+03  0.7818608E-02  0.1128869E+00
         21   -1    0    0  503  502  0.00000000000E+00  0.00000000000E+00  0.80274103689E+02  0.80274103689E+02  0.00000000000E+00 0. -1.
         21   -1    0    0  501  503 -0.00000000000E+00 -0.00000000000E+00 -0.67758700289E+03  0.67758700289E+03  0.00000000000E+00 0. -1.
          6    2    1    2  501    0 -0.99262839203E+01 -0.14831258071E+03 -0.38941843949E+03  0.45083748510E+03  0.17179221243E+03 0.  0.
         24    2    3    3    0    0 -0.73810365055E+02 -0.91376648986E+02 -0.22522572498E+03  0.26562351792E+03  0.77663145113E+02 0.  0.
         -6    2    1    2    0  502  0.99262839203E+01  0.14831258071E+03 -0.20789445971E+03  0.30702362148E+03  0.17014183805E+03 0.  0.
        -24    2    5    5    0    0 -0.37477747535E+02  0.23033738868E+02 -0.89745868816E+02  0.12835322678E+03  0.80530088588E+02 0.  0.
          5    1    3    3  501    0  0.63884081135E+02 -0.56935931720E+02 -0.16419271450E+03  0.18521396718E+03  0.47000000000E+01 0. -1.
        -11    1    4    4    0    0 -0.14142662488E+02 -0.62677178244E+02 -0.61185154505E+02  0.88724667972E+02  0.00000000000E+00 0.  1.
         12    1    4    4    0    0 -0.59667702567E+02 -0.28699470743E+02 -0.16404057048E+03  0.17689884995E+03  0.00000000000E+00 0. -1.
         -5    1    5    5    0  502  0.47404031456E+02  0.12527884184E+03 -0.11814859090E+03  0.17867039470E+03  0.47000000000E+01 0.  1.
         13    1    6    6    0    0  0.59129760018E+01  0.37055505746E+02 -0.14218732554E+02  0.40127872442E+02  0.00000000000E+00 0. -1.
        -14    1    6    6    0    0 -0.43390723537E+02 -0.14021766879E+02 -0.75527136263E+02  0.88225354335E+02  0.00000000000E+00 0.  1.
</event>
<event>
12    1  0.1683022E-002  0.3028047E+03  0.7818608E-02  0.1084570E+00
         21   -1    0    0  501  502  0.00000000000E+00  0.00000000000E+00  0.42170981015E+03  0.42170981015E+03  0.00000000000E+00 0. -1.
         21   -1    0    0  502  503 -0.00000000000E+00 -0.00000000000E+00 -0.27295029050E+03  0.27295029050E+03  0.00000000000E+00 0.  1.
          6    2    1    2  501    0 -0.19468347322E+03  0.14770643055E+03  0.23732726537E+03  0.38472704541E+03  0.17880666712E+03 0.  0.
         24    2    3    3    0    0 -0.30318920746E+02  0.85796409560E+02  0.13316677944E+03  0.18047217120E+03  0.80972542146E+02 0.  0.
         -6    2    1    2    0  503  0.19468347322E+03 -0.14770643055E+03 -0.88567745720E+02  0.30993305524E+03  0.16880583159E+03 0.  0.
        -24    2    5    5    0    0  0.10645895662E+03 -0.84039505510E+02 -0.11825143036E+03  0.19706032245E+03  0.80331948636E+02 0.  0.
          5    1    3    3  501    0 -0.16436455247E+03  0.61910020992E+02  0.10416048593E+03  0.20425487421E+03  0.47000000000E+01 0. -1.
        -11    1    4    4    0    0  0.25710228551E+02  0.14177213020E+02  0.21104176378E+02  0.36157924190E+02  0.00000000000E+00 0.  1.
         12    1    4    4    0    0 -0.56029149297E+02  0.71619196540E+02  0.11206260306E+03  0.14431424700E+03  0.00000000000E+00 0. -1.
         -5    1    5    5    0  503  0.88224516598E+02 -0.63666925042E+02  0.29683684642E+02  0.11287273279E+03  0.47000000000E+01 0.  1.
         11    1    6    6    0    0  0.86366299497E+02 -0.19909937497E+02 -0.52354200510E+02  0.10293932976E+03  0.00000000000E+00 0. -1.
        -12    1    6    6    0    0  0.20092657125E+02 -0.64129568013E+02 -0.65897229853E+02  0.94120992697E+02  0.00000000000E+00 0.  1.
</event>
<event>
12    1  0.1683022E-002  0.1909619E+03  0.7818608E-02  0.1157717E+00
         21   -1    0    0  503  502  0.00000000000E+00  0.00000000000E+00  0.89302621551E+02  0.89302621551E+02  0.00000000000E+00 0. -1.
         21   -1    0    0  501  503 -0.00000000000E+00 -0.00000000000E+00 -0.40724217077E+03  0.40724217077E+03  0.00000000000E+00 0.  1.
          6    2    1    2  501    0  0.67605026575E+02  0.48655513978E+02 -0.16173753042E+03  0.25025080091E+03  0.17183898262E+03 0.  0.
         24    2    3    3    0    0  0.21768843072E+02  0.83287970649E+02 -0.15162130172E+03  0.19172908821E+03  0.79751210334E+02 0.  0.
         -6    2    1    2    0  502 -0.67605026575E+02 -0.48655513978E+02 -0.15620201879E+03  0.24629399141E+03  0.17124211185E+03 0.  0.
        -24    2    5    5    0    0  0.23682289486E+02 -0.48813379658E+02 -0.55392366416E+02  0.11021285750E+03  0.78326003546E+02 0.  0.
          5    1    3    3  501    0  0.45836183504E+02 -0.34632456671E+02 -0.10116228708E+02  0.58521712693E+02  0.47000000000E+01 0. -1.
        -11    1    4    4    0    0 -0.12317365306E+02  0.38151741274E+02 -0.12087788295E+03  0.12735279909E+03  0.00000000000E+00 0.  1.
         12    1    4    4    0    0  0.34086208377E+02  0.45136229375E+02 -0.30743418769E+02  0.64376289124E+02  0.00000000000E+00 0. -1.
         -5    1    5    5    0  502 -0.91287316061E+02  0.15786568062E+00 -0.10080965237E+03  0.13608113391E+03  0.47000000000E+01 0.  1.
         13    1    6    6    0    0  0.16713075900E+01  0.17042497801E+02  0.53673712893E+01  0.17945714667E+02  0.00000000000E+00 0. -1.
        -14    1    6    6    0    0  0.22010981896E+02 -0.65855877459E+02 -0.60759737706E+02  0.92267142830E+02  0.00000000000E+00 0.  1.
</event>
<event>
12    1  0.1683022E-002  0.6189747E+03  0.7818608E-02  0.9866878E-01
         21   -1    0    0  501  502  0.00000000000E+00  0.00000000000E+00  0.55858282546E+03  0.55858282546E+03  0.00000000000E+00 0. -1.
         21   -1    0    0  502  503 -0.00000000000E+00 -0.00000000000E+00 -0.69009494011E+03  0.69009494011E+03  0.00000000000E+00 0.  1.
          6    2    1    2  501    0  0.24705054333E+03  0.54081393540E+03 -0.11539878050E+03  0.62949340384E+03  0.17155577299E+03 0.  0.
         24    2    3    3    0    0  0.10736571120E+03  0.21221537501E+03  0.14301373148E+02  0.24958145868E+03  0.74321019294E+02 0.  0.
         -6    2    1    2    0  503 -0.24705054333E+03 -0.54081393540E+03 -0.16113334150E+02  0.61918436173E+03  0.17209285455E+03 0.  0.
        -24    2    5    5    0    0 -0.26016533964E+03 -0.44280317530E+03 -0.20269516576E+02  0.52010121064E+03  0.79584923180E+02 0.  0.
          5    1    3    3  501    0  0.13968483213E+03  0.32859856039E+03 -0.12970015364E+03  0.37991194516E+03  0.47000000000E+01 0. -1.
        -11    1    4    4    0    0  0.15653190669E+01  0.15199586371E+02 -0.18025269158E+02  0.23630234401E+02  0.00000000000E+00 0.  1.
         12    1    4    4    0    0  0.10580039214E+03  0.19701578864E+03  0.32326642306E+02  0.22595122428E+03  0.00000000000E+00 0. -1.
         -5    1    5    5    0  503  0.13114796308E+02 -0.98010760103E+02  0.41561824268E+01  0.99083151093E+02  0.47000000000E+01 0.  1.
         13    1    6    6    0    0 -0.91845028407E+02 -0.22510760614E+03 -0.28580543254E+02  0.24479744900E+03  0.00000000000E+00 0. -1.
        -14    1    6    6    0    0 -0.16832031123E+03 -0.21769556916E+03  0.83110266774E+01  0.27530376163E+03  0.00000000000E+00 0.  1.
</event>
<event>
12    1  0.1683022E-002  0.1979273E+03  0.7818608E-02  0.1151536E+00
         21   -1    0    0  503  502  0.00000000000E+00  0.00000000000E+00  0.28113986751E+03  0.28113986751E+03  0.00000000000E+00 0. -1.
         21   -1    0    0  501  503 -0.00000000000E+00 -0.00000000000E+00 -0.14389546499E+03  0.14389546499E+03  0.00000000000E+00 0. -1.
          6    2    1    2  501    0  0.91201433608E+02 -0.49354426125E+02  0.30306643620E+02  0.20006666767E+03  0.16838829531E+03 0.  0.
         24    2    3    3    0    0  0.59579770367E+01 -0.24715374546E+02 -0.33540888597E+02  0.90649451838E+02  0.80286889847E+02 0.  0.
         -6    2    1    2    0  502 -0.91201433608E+02  0.49354426125E+02  0.10693775890E+03  0.22496866482E+03  0.16858723263E+03 0.  0.
        -24    2    5    5    0    0 -0.12404652423E+03  0.22091659829E+02  0.10495926247E+03  0.18197956327E+03  0.78895710031E+02 0.  0.
          5    1    3    3  501    0  0.85243456571E+02 -0.24639051578E+02  0.63847532216E+02  0.10941721583E+03  0.47000000000E+01 0. -1.
        -11    1    4    4    0    0 -0.20166213874E+02  0.35688268608E+01  0.17345529631E+02  0.26838034677E+02  0.00000000000E+00 0.  1.
         12    1    4    4    0    0  0.26124190910E+02 -0.28284201407E+02 -0.50886418228E+02  0.63811417161E+02  0.00000000000E+00 0. -1.
         -5    1    5    5    0  502  0.32845090626E+02  0.27262766296E+02  0.19784964291E+01  0.42989101554E+02  0.47000000000E+01 0.  1.
         11    1    6    6    0    0 -0.24036821408E+02  0.26371799677E+02  0.65093289822E+02  0.74231913498E+02  0.00000000000E+00 0. -1.
        -12    1    6    6    0    0 -0.10000970283E+03 -0.42801398485E+01  0.39865972647E+02  0.10774764977E+03  0.00000000000E+00 0.  1.
</event>
<event>
12    1  0.1683022E-002  0.2066730E+03  0.7818608E-02  0.1144643E+00
         21   -1    0    0  503  502  0.00000000000E+00  0.00000000000E+00  0.73904630249E+03  0.73904630249E+03  0.00000000000E+00 0.  1.
         21   -1    0    0  501  503 -0.00000000000E+00 -0.00000000000E+00 -0.57226159049E+02  0.57226159049E+02  0.00000000000E+00 0.  1.
          6    2    1    2  501    0 -0.23275480638E+02  0.11191072932E+03  0.34136815755E+03  0.39905632890E+03  0.17218587431E+03 0.  0.
         24    2    3    3    0    0 -0.58487863284E+02  0.11573064490E+02  0.19271786163E+03  0.21622701136E+03  0.77840736628E+02 0.  0.
         -6    2    1    2    0  502  0.23275480638E+02 -0.11191072932E+03  0.34045198589E+03  0.39721613264E+03  0.16972725766E+03 0.  0.
        -24    2    5    5    0    0 -0.28230579116E+02 -0.56453431514E+02  0.28688818980E+03  0.30437456693E+03  0.79718805936E+02 0.  0.
          5    1    3    3  501    0  0.35212382646E+02  0.10033766483E+03  0.14865029592E+03  0.18282931754E+03  0.47000000000E+01 0. -1.
        -11    1    4    4    0    0  0.90539570043E+01 -0.14975605088E+02  0.81984370241E+02  0.83831258186E+02  0.00000000000E+00 0.  1.
         12    1    4    4    0    0 -0.67541820289E+02  0.26548669578E+02  0.11073349138E+03  0.13239575317E+03  0.00000000000E+00 0. -1.
         -5    1    5    5    0  502  0.51506059755E+02 -0.55457297806E+02  0.53563796094E+02  0.92841565709E+02  0.47000000000E+01 0.  1.
         11    1    6    6    0    0 -0.54082510309E+02 -0.39949483734E+02  0.15479229018E+03  0.16876472460E+03  0.00000000000E+00 0. -1.
        -12    1    6    6    0    0  0.25851931193E+02 -0.16503947780E+02  0.13209589962E+03  0.13560984233E+03  0.00000000000E+00 0.  1.
</event>
<event>
12    1  0.1683022E-002  0.1727588E+03  0.7818608E-02  0.1175049E+00
         21   -1    0    0  501  502  0.00000000000E+00  0.00000000000E+00  0.13145571121E+03  0.13145571121E+03  0.00000000000E+00 0. -1.
         21   -1    0    0  502  503 -0.00000000000E+00 -0.00000000000E+00 -0.36456733171E+03  0.36456733171E+03  0.00000000000E+00 0. -1.
          6    2    1    2  501    0  0.25025473141E+01  0.86369972290E+01  0.35946119814E+02  0.17627676485E+03  0.17233837017E+03 0.  0.
         24    2    3    3    0    0  0.66687999591E+02  0.19491062401E+02  0.11983279989E+02  0.10675057765E+03  0.80155449135E+02 0.  0.
         -6    2    1    2    0  503 -0.25025473141E+01 -0.86369972290E+01 -0.26905774031E+03  0.31974627807E+03  0.17252464825E+03 0.  0.
        -24    2    5    5    0    0  0.53656967613E+02  0.29780723543E+02 -0.17257535611E+03  0.20159064829E+03  0.84205547776E+02 0.  0.
          5    1    3    3  501    0 -0.64185452277E+02 -0.10854065172E+02  0.23962839825E+02  0.69526187205E+02  0.47000000000E+01 0. -1.
        -13    1    4    4    0    0  0.66686826387E+01 -0.25188665036E+02 -0.11280816503E+02  0.28393608355E+02  0.00000000000E+00 0.  1.
         14    1    4    4    0    0  0.60019316952E+02  0.44679727437E+02  0.23264096492E+02  0.78356969294E+02  0.00000000000E+00 0. -1.
         -5    1    5    5    0  503 -0.56159514927E+02 -0.38417720772E+02 -0.96482384207E+02  0.11815562978E+03  0.47000000000E+01 0.  1.
         13    1    6    6    0    0  0.31729315467E+02 -0.27921449050E+02 -0.76352405738E+02  0.87269964129E+02  0.00000000000E+00 0. -1.
        -14    1    6    6    0    0  0.21927652146E+02  0.57702172592E+02 -0.96222950368E+02  0.11432068417E+03  0.00000000000E+00 0.  1.
</event>
<event>
12    1  0.1683022E-002  0.2502125E+03  0.7818608E-02  0.1113200E+00
         21   -1    0    0  503  502  0.00000000000E+00  0.00000000000E+00  0.93058770220E+02  0.93058770220E+02  0.00000000000E+00 0. -1.
         21   -1    0    0  501  503 -0.00000000000E+00 -0.00000000000E+00 -0.76943015765E+03  0.76943015765E+03  0.00000000000E+00 0. -1.
          6    2    1    2  501    0 -0.14294193552E+03  0.11128329768E+03 -0.49132853313E+03  0.55128616308E+03  0.17232625125E+03 0.  0.
         24    2    3    3    0    0 -0.13605629063E+03  0.96308812682E+02 -0.49934725008E+03  0.53236429403E+03  0.79229816193E+02 0.  0.
         -6    2    1    2    0  502  0.14294193552E+03 -0.11128329768E+03 -0.18504285431E+03  0.31120276479E+03  0.17259760603E+03 0.  0.
        -24    2    5    5    0    0  0.15752345046E+03 -0.10815191147E+03 -0.10871911705E+03  0.23329365732E+03  0.78074392315E+02 0.  0.
          5    1    3    3  501    0 -0.68856448969E+01  0.14974485002E+02  0.80187169598E+01  0.18921869051E+02  0.47000000000E+01 0. -1.
        -13    1    4    4    0    0 -0.19733277249E+02 -0.74800789101E+01 -0.12633609555E+03  0.12808654438E+03  0.00000000000E+00 0.  1.
         14    1    4    4    0    0 -0.11632301338E+03  0.10378889159E+03 -0.37301115453E+03  0.40427774965E+03  0.00000000000E+00 0. -1.
         -5    1    5    5    0  502 -0.14581514933E+02 -0.31313862093E+01 -0.76323737257E+02  0.77909107466E+02  0.47000000000E+01 0.  1.
         11    1    6    6    0    0  0.54123268265E+02 -0.52545279651E+02 -0.84766640574E+02  0.11347122074E+03  0.00000000000E+00 0. -1.
        -12    1    6    6    0    0  0.10340018219E+03 -0.55606631824E+02 -0.23952476477E+02  0.11982243659E+03  0.00000000000E+00 0.  1.
</event>
<event>
12    1  0.1683022E-002  0.1845082E+03  0.7818608E-02  0.1165817E+00
         21   -1    0    0  503  502  0.00000000000E+00  0.00000000000E+00  0.89832558264E+03  0.89832558264E+03  0.00000000000E+00 0.  1.
         21   -1    0    0  501  503 -0.00000000000E+00 -0.00000000000E+00 -0.47147675369E+02  0.47147675369E+02  0.00000000000E+00 0.  1.
          6    2    1    2  501    0 -0.31742155164E+02  0.10712749678E+02  0.20396967010E+03  0.27503984616E+03  0.18144134931E+03 0.  0.
         24    2    3    3    0    0 -0.56945514497E+02  0.45457397854E+02  0.20508023865E+03  0.23184582735E+03  0.79908802611E+02 0.  0.
         -6    2    1    2    0  502  0.31742155164E+02 -0.10712749678E+02  0.64720823717E+03  0.67043341184E+03  0.17169778692E+03 0.  0.
        -24    2    5    5    0    0  0.61375640891E+02  0.32900350412E+02  0.54670228339E+03  0.55683859365E+03  0.79601698209E+02 0.  0.
          5    1    3    3  501    0  0.25203359333E+02 -0.34744648175E+02 -0.11105685542E+01  0.43194018811E+02  0.47000000000E+01 0. -1.
        -11    1    4    4    0    0 -0.60875004484E+02  0.51850873408E+02  0.10751099678E+03  0.13398840873E+03  0.00000000000E+00 0.  1.
         12    1    4    4    0    0  0.39294899869E+01 -0.63934755543E+01  0.97569241870E+02  0.97857418626E+02  0.00000000000E+00 0. -1.
         -5    1    5    5    0  502 -0.29633485727E+02 -0.43613100091E+02  0.10050595378E+03  0.11359481820E+03  0.47000000000E+01 0.  1.
         13    1    6    6    0    0  0.55592682996E+02 -0.58424479268E+01  0.19175912643E+03  0.19974043950E+03  0.00000000000E+00 0. -1.
        -14    1    6    6    0    0  0.57829578942E+01  0.38742798339E+02  0.35494315696E+03  0.35709815415E+03  0.00000000000E+00 0.  1.
</event>
<event>
12    1  0.1683022E-002  0.2223282E+03  0.7818608E-02  0.1132318E+00
         21   -1    0    0  503  502  0.00000000000E+00  0.00000000000E+00  0.25438630793E+04  0.25438630793E+04  0.00000000000E+00 0. -1.
         21   -1    0    0  501  503 -0.00000000000E+00 -0.00000000000E+00 -0.20728794752E+02  0.20728794752E+02  0.00000000000E+00 0. -1.
          6    2    1    2  501    0  0.13520621719E+03  0.37086556290E+02  0.93382506109E+03  0.95992659270E+03  0.17255052835E+03 0.  0.
         24    2    3    3    0    0  0.36697493479E+02 -0.33104743728E+02  0.54586367469E+03  0.55351926676E+03  0.77290343765E+02 0.  0.
         -6    2    1    2    0  502 -0.13520621719E+03 -0.37086556290E+02  0.15893092235E+04  0.16046652814E+04  0.17143722927E+03 0.  0.
        -24    2    5    5    0    0 -0.46315216882E+01 -0.20766448553E+01  0.79850946844E+03  0.80237992841E+03  0.78551988417E+02 0.  0.
          5    1    3    3  501    0  0.98508723706E+02  0.70191300018E+02  0.38796138639E+03  0.40640732594E+03  0.47000000000E+01 0. -1.
        -11    1    4    4    0    0 -0.13737217685E+02  0.97973031270E+01  0.41061527147E+02  0.44393099801E+02  0.00000000000E+00 0.  1.
         12    1    4    4    0    0  0.50434711164E+02 -0.42902046855E+02  0.50480214755E+03  0.50912616696E+03  0.00000000000E+00 0. -1.
         -5    1    5    5    0  502 -0.13057469550E+03 -0.35009911435E+02  0.79079975505E+03  0.80228535297E+03  0.47000000000E+01 0.  1.
         13    1    6    6    0    0 -0.20488716090E+02 -0.25482046640E+02  0.16328296699E+03  0.16652462130E+03  0.00000000000E+00 0. -1.
        -14    1    6    6    0    0  0.15857194402E+02  0.23405401784E+02  0.63522650144E+03  0.63585530711E+03  0.00000000000E+00 0.  1.
</event>
<event>
12    1  0.1683022E-002  0.2613326E+03  0.7818608E-02  0.1106645E+00
         21   -1    0    0  503  502  0.00000000000E+00  0.00000000000E+00  0.11566251089E+03  0.11566251089E+03  0.00000000000E+00 0.  1.
         21   -1    0    0  501  503 -0.00000000000E+00 -0.00000000000E+00 -0.61260195583E+03  0.61260195583E+03  0.00000000000E+00 0. -1.
          6    2    1    2  501    0  0.29035470554E+02 -0.19289360077E+03 -0.32533625872E+03  0.41729891588E+03  0.17390717117E+03 0.  0.
         24    2    3    3    0    0 -0.12818315274E+02 -0.60664204747E+02 -0.21814144294E+03  0.24194450022E+03  0.84303007739E+02 0.  0.
         -6    2    1    2    0  502 -0.29035470554E+02  0.19289360077E+03 -0.17160318623E+03  0.31096555084E+03  0.17088276836E+03 0.  0.
        -24    2    5    5    0    0 -0.17140551085E+02  0.14442870536E+03 -0.43493726300E+02  0.17339935253E+03  0.83798459455E+02 0.  0.
          5    1    3    3  501    0  0.41853785828E+02 -0.13222939602E+03 -0.10719481578E+03  0.17535441565E+03  0.47000000000E+01 0. -1.
        -13    1    4    4    0    0  0.27122578309E+02 -0.57515501108E+02 -0.11714423679E+03  0.13329080739E+03  0.00000000000E+00 0.  1.
         14    1    4    4    0    0 -0.39940893583E+02 -0.31487036389E+01 -0.10099720615E+03  0.10865369283E+03  0.00000000000E+00 0. -1.
         -5    1    5    5    0  502 -0.11894919469E+02  0.48464895406E+02 -0.12810945993E+03  0.13756619831E+03  0.47000000000E+01 0.  1.
         13    1    6    6    0    0  0.13001362989E+02  0.11087028198E+03 -0.58282866339E+02  0.12592913632E+03  0.00000000000E+00 0. -1.
        -14    1    6    6    0    0 -0.30141914074E+02  0.33558423381E+02  0.14789140040E+02  0.47470216210E+02  0.00000000000E+00 0.  1.
</event>
<event>
12    1  0.1683022E-002  0.2519498E+03  0.7818608E-02  0.1112315E+00
         21   -1    0    0  503  502  0.00000000000E+00  0.00000000000E+00  0.32427551164E+03  0.32427551164E+03  0.00000000000E+00 0. -1.
         21   -1    0    0  501  503 -0.00000000000E+00 -0.00000000000E+00 -0.42791397210E+03  0.42791397210E+03  0.00000000000E+00 0. -1.
          6    2    1    2  501    0 -0.11123132480E+03 -0.14348934635E+03 -0.32960667193E+03  0.41487257724E+03  0.17469143377E+03 0.  0.
         24    2    3    3    0    0 -0.89434679301E+02 -0.24944212641E+02 -0.21947820133E+03  0.25153730084E+03  0.80495697067E+02 0.  0.
         -6    2    1    2    0  502  0.11123132480E+03  0.14348934635E+03  0.22596821147E+03  0.33731690650E+03  0.17250931187E+03 0.  0.
        -24    2    5    5    0    0  0.78910126084E+02  0.51586101013E+02  0.43620611478E+02  0.13052328084E+03  0.79029331764E+02 0.  0.
          5    1    3    3  501    0 -0.21796645499E+02 -0.11854513371E+03 -0.11012847060E+03  0.16333527640E+03  0.47000000000E+01 0. -1.
        -11    1    4    4    0    0 -0.51185972845E+02 -0.54080305313E+02 -0.14234841538E+03  0.16064792125E+03  0.00000000000E+00 0.  1.
         12    1    4    4    0    0 -0.38248706456E+02  0.29136092672E+02 -0.77129785950E+02  0.90889379591E+02  0.00000000000E+00 0. -1.
         -5    1    5    5    0  502  0.32321198716E+02  0.91903245337E+02  0.18234759999E+03  0.20679362566E+03  0.47000000000E+01 0.  1.
         11    1    6    6    0    0  0.34093193116E+02  0.67367034064E+02  0.26440561416E+02  0.79998539883E+02  0.00000000000E+00 0. -1.
        -12    1    6    6    0    0  0.44816932968E+02 -0.15780933051E+02  0.17180050062E+02  0.50524740957E+02  0.00000000000E+00 0.  1.
</event>
<event>
12    1  0.1683022E-002  0.3143573E+03  0.7818608E-02  0.1078427E+00
         21   -1    0    0  503  502  0.00000000000E+00  0.00000000000E+00  0.27132482995E+03  0.27132482995E+03  0.00000000000E+00 0.  1.
         21   -1    0    0  501  503 -0.00000000000E+00 -0.00000000000E+00 -0.50108029799E+03  0.50108029799E+03  0.00000000000E+00 0.  1.
          6    2    1    2  501    0  0.94374187891E+02  0.24544130238E+03 -0.31763839727E+03  0.44599447643E+03  0.16990880299E+03 0.  0.
         24    2    3    3    0    0  0.20040884238E+02  0.15619109032E+03 -0.10406738688E+03  0.20283669460E+03  0.74265805922E+02 0.  0.
         -6    2    1    2    0  502 -0.94374187891E+02 -0.24544130238E+03  0.87882929232E+02  0.32641065150E+03  0.17225731888E+03 0.  0.
        -24    2    5    5    0    0 -0.11024057060E+02 -0.13182621999E+03 -0.84711867368E+01  0.15564227937E+03  0.81566390212E+02 0.  0.
          5    1    3    3  501    0  0.74333303652E+02  0.89250212066E+02 -0.21357101039E+03  0.24315778183E+03  0.47000000000E+01 0. -1.
        -13    1    4    4    0    0 -0.10625729841E+01  0.73585999638E+02 -0.90272785848E+02  0.11646975688E+03  0.00000000000E+00 0.  1.
         14    1    4    4    0    0  0.21103457222E+02  0.82605090679E+02 -0.13794601031E+02  0.86366937716E+02  0.00000000000E+00 0. -1.
         -5    1    5    5    0  502 -0.83350130831E+02 -0.11361508239E+03  0.96354115969E+02  0.17076837213E+03  0.47000000000E+01 0.  1.
         13    1    6    6    0    0 -0.16625408844E+02 -0.13754194730E+02 -0.28506053064E+02  0.35751603505E+02  0.00000000000E+00 0. -1.
        -14    1    6    6    0    0  0.56013517845E+01 -0.11807202526E+03  0.20034866327E+02  0.11989067587E+03  0.00000000000E+00 0.  1.
</event>
<event>
12    1  0.1683022E-002  0.1801997E+03  0.7818608E-02  0.1167647E+00
         21   -1    0    0  503  502  0.00000000000E+00  0.00000000000E+00  0.15439941298E+02  0.15439941298E+02  0.00000000000E+00 0.  1.
         21   -1    0    0  501  503 -0.00000000000E+00 -0.00000000000E+00 -0.21102027717E+04  0.21102027717E+04  0.00000000000E+00 0.  1.
          6    2    1    2  501    0  0.59292886851E+01 -0.54789451942E+02 -0.11159099881E+04  0.11303413443E+04  0.17140423758E+03 0.  0.
         24    2    3    3    0    0 -0.59032526591E+02 -0.52586131623E+02 -0.58331055870E+03  0.59376969556E+03  0.77853086299E+02 0.  0.
         -6    2    1    2    0  502 -0.59292886851E+01  0.54789451942E+02 -0.97885284232E+03  0.99530136868E+03  0.17156598461E+03 0.  0.
        -24    2    5    5    0    0  0.29165528382E+02  0.92074447035E+02 -0.76967487208E+03  0.77989633095E+03  0.80687957495E+02 0.  0.
          5    1    3    3  501    0  0.64961815276E+02 -0.22033203197E+01 -0.53259942938E+03  0.53657164875E+03  0.47000000000E+01 0. -1.
        -11    1    4    4    0    0  0.63298903114E+01  0.21573957048E+00 -0.24835631551E+03  0.24843706147E+03  0.00000000000E+00 0.  1.
         12    1    4    4    0    0 -0.65362416902E+02 -0.52801871193E+02 -0.33495424319E+03  0.34533263410E+03  0.00000000000E+00 0. -1.
         -5    1    5    5    0  502 -0.35094817067E+02 -0.37284995093E+02 -0.20917797024E+03  0.21540503773E+03  0.47000000000E+01 0.  1.
         11    1    6    6    0    0 -0.55720751909E+01  0.41980204828E+02 -0.55837754652E+03  0.55998113368E+03  0.00000000000E+00 0. -1.
        -12    1    6    6    0    0  0.34737603573E+02  0.50094242208E+02 -0.21129732556E+03  0.21991519727E+03  0.00000000000E+00 0.  1.
</event>
<event>
12    1  0.1683022E-002  0.2196871E+03  0.7818608E-02  0.1135029E+00
         21   -1    0    0  501  502  0.00000000000E+00  0.00000000000E+00  0.88065235898E+02  0.88065235898E+02  0.00000000000E+00 0. -1.
         21   -1    0    0  502  503 -0.00000000000E+00 -0.00000000000E+00 -0.60291019656E+03  0.60291019656E+03  0.00000000000E+00 0.  1.
          6    2    1    2  501    0 -0.10917985977E+03  0.83010195805E+02 -0.13983147565E+03  0.25635199133E+03  0.16538611638E+03 0.  0.
         24    2    3    3    0    0 -0.84077968659E+02  0.23360412449E+02 -0.14905106987E+03  0.19081351020E+03  0.81109559002E+02 0.  0.
         -6    2    1    2    0  503  0.10917985977E+03 -0.83010195805E+02 -0.37501348501E+03  0.43462344113E+03  0.17161435619E+03 0.  0.
        -24    2    5    5    0    0  0.51864913423E+02 -0.77713003129E+02 -0.35131706698E+03  0.37220009972E+03  0.79874605359E+02 0.  0.
          5    1    3    3  501    0 -0.25101891113E+02  0.59649783356E+02  0.92195942174E+01  0.65538481134E+02  0.47000000000E+01 0. -1.
        -11    1    4    4    0    0 -0.55776009599E+02 -0.26311690287E+02 -0.70607396953E+02  0.93747921561E+02  0.00000000000E+00 0.  1.
         12    1    4    4    0    0 -0.28301959060E+02  0.49672102737E+02 -0.78443672917E+02  0.97065588638E+02  0.00000000000E+00 0. -1.
         -5    1    5    5    0  503  0.57314946349E+02 -0.52971926762E+01 -0.23696418038E+02  0.62423341412E+02  0.47000000000E+01 0.  1.
         13    1    6    6    0    0 -0.58241728421E+01 -0.29278391801E+01  0.17242110973E+01  0.67428581082E+01  0.00000000000E+00 0. -1.
        -14    1    6    6    0    0  0.57689086265E+02 -0.74785163949E+02 -0.35304127807E+03  0.36545724161E+03  0.00000000000E+00 0.  1.
</event>
<event>
12    1  0.1683022E-002  0.2071293E+03  0.7818608E-02  0.1144269E+00
         21   -1    0    0  503  502  0.00000000000E+00  0.00000000000E+00  0.31323038278E+03  0.31323038278E+03  0.00000000000E+00 0. -1.
         21   -1    0    0  501  503 -0.00000000000E+00 -0.00000000000E+00 -0.65506222097E+03  0.65506222097E+03  0.00000000000E+00 0. -1.
          6    2    1    2  501    0  0.69036528326E+02 -0.88829959707E+02 -0.60220853995E+03  0.63683411257E+03  0.17391307416E+03 0.  0.
         24    2    3    3    0    0  0.32191345928E+02 -0.12182333343E+03 -0.38996225401E+03  0.41885084241E+03  0.86534740503E+02 0.  0.
         -6    2    1    2    0  502 -0.69036528326E+02  0.88829959707E+02  0.26037670176E+03  0.33145849117E+03  0.17149898124E+03 0.  0.
        -24    2    5    5    0    0 -0.23497596719E+02  0.81397904695E+02  0.68715422259E+02  0.13426527173E+03  0.78278975447E+02 0.  0.
          5    1    3    3  501    0  0.36845182398E+02  0.32993373725E+02 -0.21224628594E+03  0.21798327017E+03  0.47000000000E+01 0. -1.
        -13    1    4    4    0    0 -0.84875148062E-01 -0.28598463160E+02 -0.22371549354E+03  0.22553603115E+03  0.00000000000E+00 0.  1.
         14    1    4    4    0    0  0.32276221076E+02 -0.93224870272E+02 -0.16624676047E+03  0.19331481126E+03  0.00000000000E+00 0. -1.
         -5    1    5    5    0  502 -0.45538931607E+02  0.74320550119E+01  0.19166127950E+03  0.19719321944E+03  0.47000000000E+01 0.  1.
         11    1    6    6    0    0  0.16585503249E+02  0.67204666320E+02  0.58264110082E+02  0.90477912314E+02  0.00000000000E+00 0. -1.
        -12    1    6    6    0    0 -0.40083099968E+02  0.14193238376E+02  0.10451312177E+02  0.43787359419E+02  0.00000000000E+00 0.  1.
</event>
<event>
12    1  0.1683022E-002  0.2244703E+03  0.7818608E-02  0.1130917E+00
         21   -1    0    0  501  502  0.00000000000E+00  0.00000000000E+00  0.37392074724E+03  0.37392074724E+03  0.00000000000E+00 0. -1.
         21   -1    0    0  502  503 -0.00000000000E+00 -0.00000000000E+00 -0.14188522470E+03  0.14188522470E+03  0.00000000000E+00 0. -1.
          6    2    1    2  501    0 -0.33193051668E+02 -0.14242997147E+03  0.17843005344E+03  0.28674762179E+03  0.17029045534E+03 0.  0.
         24    2    3    3    0    0 -0.66159950884E+02 -0.34597943111E+02  0.61205133412E+02  0.12402597400E+03  0.77860240827E+02 0.  0.
         -6    2    1    2    0  503  0.33193051668E+02  0.14242997147E+03  0.53605469100E+02  0.22905835015E+03  0.16794673561E+03 0.  0.
        -24    2    5    5    0    0  0.27729023600E+02  0.17128748457E+03  0.37810602950E+02  0.19538076915E+03  0.81459819164E+02 0.  0.
          5    1    3    3  501    0  0.32966899216E+02 -0.10783202836E+03  0.11722492003E+03  0.16272164779E+03  0.47000000000E+01 0. -1.
        -13    1    4    4    0    0 -0.78580191661E+01  0.68483165717E+01 -0.15796302811E+02  0.18925408518E+02  0.00000000000E+00 0.  1.
         14    1    4    4    0    0 -0.58301931718E+02 -0.41446259682E+02  0.77001436223E+02  0.10510056548E+03  0.00000000000E+00 0. -1.
         -5    1    5    5    0  503  0.54640280679E+01 -0.28857513101E+02  0.15794866150E+02  0.33677580997E+02  0.47000000000E+01 0.  1.
         11    1    6    6    0    0  0.45625488932E+02  0.15549647541E+03  0.15639749899E+02  0.16280491664E+03  0.00000000000E+00 0. -1.
        -12    1    6    6    0    0 -0.17896465332E+02  0.15791009156E+02  0.22170853051E+02  0.32575852507E+02  0.00000000000E+00 0.  1.
</event>
<event>
12    1  0.1683022E-002  0.2095810E+03  0.7818608E-02  0.1142129E+00
         21   -1    0    0  501  502  0.00000000000E+00  0.00000000000E+00  0.10056803446E+03  0.10056803446E+03  0.00000000000E+00 0. -1.
         21   -1    0    0  502  503 -0.00000000000E+00 -0.00000000000E+00 -0.85643895829E+03  0.85643895829E+03  0.00000000000E+00 0. -1.
          6    2    1    2  501    0 -0.11439188610E+03  0.24573167273E+02 -0.42545616922E+02  0.21385588812E+03  0.17388176216E+03 0.  0.
         24    2    3    3    0    0 -0.11894490879E+03  0.11392773481E+02 -0.86579519894E+02  0.16742823034E+03  0.79110760559E+02 0.  0.
         -6    2    1    2    0  503  0.11439188610E+03 -0.24573167273E+02 -0.71332530690E+03  0.74315110463E+03  0.17248543906E+03 0.  0.
        -24    2    5    5    0    0  0.14259806101E+03  0.74669012496E+01 -0.60370290756E+03  0.62541701979E+03  0.79368044160E+02 0.  0.
          5    1    3    3  501    0  0.45530226899E+01  0.13180393793E+02  0.44033902972E+02  0.46427657782E+02  0.47000000000E+01 0. -1.
        -13    1    4    4    0    0 -0.64648383151E+02 -0.32119219911E+02 -0.56293681271E+02  0.91542538105E+02  0.00000000000E+00 0.  1.
         14    1    4    4    0    0 -0.54296525637E+02  0.43511993392E+02 -0.30285838623E+02  0.75885692237E+02  0.00000000000E+00 0. -1.
         -5    1    5    5    0  503 -0.28206174911E+02 -0.32040068523E+02 -0.10962239934E+03  0.11773408484E+03  0.47000000000E+01 0.  1.
         13    1    6    6    0    0  0.12718132633E+03  0.29057247652E+02 -0.55314800520E+03  0.56832396489E+03  0.00000000000E+00 0. -1.
        -14    1    6    6    0    0  0.15416734680E+02 -0.21590346403E+02 -0.50554902358E+02  0.57093054905E+02  0.00000000000E+00 0.  1.
</event>
<event>
12    1  0.1683022E-002  0.2161251E+03  0.7818608E-02  0.1137292E+00
         21   -1    0    0  503  502  0.00000000000E+00  0.00000000000E+00  0.67358468873E+03  0.67358468873E+03  0.00000000000E+00 0. -1.
         21   -1    0    0  501  503 -0.00000000000E+00 -0.00000000000E+00 -0.69821387681E+02  0.69821387681E+02  0.00000000000E+00 0.  1.
          6    2    1    2  501    0 -0.96848163383E+02  0.87176496085E+02  0.35408736082E+03  0.41483483083E+03  0.17242612785E+03 0.  0.
         24    2    3    3    0    0 -0.31108785788E+02  0.25434982034E+02  0.29095319881E+03  0.30464548137E+03  0.80872804790E+02 0.  0.
         -6    2    1    2    0  502  0.96848163383E+02 -0.87176496085E+02  0.24967594023E+03  0.32857124557E+03  0.16923853009E+03 0.  0.
        -24    2    5    5    0    0  0.45360667655E+02 -0.84362888041E+01  0.20403343119E+03  0.22389884668E+03  0.79826633162E+02 0.  0.
          5    1    3    3  501    0 -0.65739377595E+02  0.61741514052E+02  0.63134162001E+02  0.11018934946E+03  0.47000000000E+01 0. -1.
        -11    1    4    4    0    0  0.19478730394E+02  0.15965114966E+02  0.18658970351E+03  0.18828176569E+03  0.00000000000E+00 0.  1.
         12    1    4    4    0    0 -0.50587516182E+02  0.94698670681E+01  0.10436349530E+03  0.11636371568E+03  0.00000000000E+00 0. -1.
         -5    1    5    5    0  502  0.51487495728E+02 -0.78740207281E+02  0.45642509042E+02  0.10467239890E+03  0.47000000000E+01 0.  1.
         11    1    6    6    0    0  0.34583082864E+02  0.31792404585E+02  0.13851522482E+03  0.14626419287E+03  0.00000000000E+00 0. -1.
        -12    1    6    6    0    0  0.10777584791E+02 -0.40228693389E+02  0.65518206372E+02  0.77634653808E+02  0.00000000000E+00 0.  1.
</event>
<event>
12    1  0.1683022E-002  0.1859277E+03  0.7818608E-02  0.1162621E+00
         21   -1    0    0  503  502  0.00000000000E+00  0.00000000000E+00  0.16240710995E+03  0.16240710995E+03  0.00000000000E+00 0.  1.
         21   -1    0    0  501  503 -0.00000000000E+00 -0.00000000000E+00 -0.48128361714E+03  0.48128361714E+03  0.00000000000E+00 0.  1.
          6    2    1    2  501    0 -0.59126626309E+02  0.21280867078E+02 -0.40110023309E+03  0.44209786793E+03  0.17498655549E+03 0.  0.
         24    2    3    3    0    0 -0.36067605458E+00  0.62462332497E+02 -0.15148939302E+03  0.18233449199E+03  0.79969729911E+02 0.  0.
         -6    2    1    2    0  502  0.59126626309E+02 -0.21280867078E+02  0.82223725904E+02  0.20159285916E+03  0.17300319801E+03 0.  0.
        -24    2    5    5    0    0  0.67584741405E+02 -0.38873831843E+00 -0.11251789412E+02  0.10532353529E+03  0.79991224096E+02 0.  0.
          5    1    3    3  501    0 -0.58765950254E+02 -0.41181465419E+02 -0.24961084006E+03  0.25976337594E+03  0.47000000000E+01 0. -1.
        -13    1    4    4    0    0 -0.52308770596E+01 -0.18906317948E+02 -0.35627044308E+02  0.40670594036E+02  0.00000000000E+00 0.  1.
         14    1    4    4    0    0  0.48702010050E+01  0.81368650446E+02 -0.11586234872E+03  0.14166389795E+03  0.00000000000E+00 0. -1.
         -5    1    5    5    0  502 -0.84581150965E+01 -0.20892128760E+02  0.93475515316E+02  0.96269323872E+02  0.47000000000E+01 0.  1.
         11    1    6    6    0    0 -0.12439315286E+02  0.27172878485E+01  0.16253958589E+02  0.20647309458E+02  0.00000000000E+00 0. -1.
        -12    1    6    6    0    0  0.80024056691E+02 -0.31060261669E+01 -0.27505748001E+02  0.84676225831E+02  0.00000000000E+00 0.  1.
</event>
<event>
12    1  0.1683022E-002  0.2042360E+03  0.7818608E-02  0.1147679E+00
         21   -1    0    0  503  502  0.00000000000E+00  0.00000000000E+00  0.69661366308E+02  0.69661366308E+02  0.00000000000E+00 0.  1.
         21   -1    0    0  501  503 -0.00000000000E+00 -0.00000000000E+00 -0.61405887992E+03  0.61405887992E+03  0.00000000000E+00 0. -1.
          6    2    1    2  501    0  0.39754193686E+02  0.87823182621E+02 -0.35007291185E+03  0.40180824185E+03  0.17206252434E+03 0.  0.
         24    2    3    3    0    0 -0.35072389032E+02  0.63631984823E+02 -0.26159512212E+03  0.28334035249E+03  0.81059518065E+02 0.  0.
         -6    2    1    2    0  502 -0.39754193686E+02 -0.87823182621E+02 -0.19432460176E+03  0.28191200438E+03  0.18005282570E+03 0.  0.
        -24    2    5    5    0    0 -0.76048954321E+02 -0.80892989425E+02 -0.20159825647E+03  0.24396028136E+03  0.80917505398E+02 0.  0.
          5    1    3    3  501    0  0.74826582718E+02  0.24191197799E+02 -0.88477789730E+02  0.11846788935E+03  0.47000000000E+01 0. -1.
        -11    1    4    4    0    0 -0.84821146632E+01  0.63834117315E+02 -0.95831214678E+02  0.11545718908E+03  0.00000000000E+00 0.  1.
         12    1    4    4    0    0 -0.26590274368E+02 -0.20213249253E+00 -0.16576390744E+03  0.16788316342E+03  0.00000000000E+00 0. -1.
         -5    1    5    5    0  502  0.36294760635E+02 -0.69301931964E+01  0.72736547083E+01  0.37951723019E+02  0.47000000000E+01 0.  1.
         13    1    6    6    0    0  0.12736798395E+02 -0.34688956447E+02 -0.62249449615E+02  0.72391599721E+02  0.00000000000E+00 0. -1.
        -14    1    6    6    0    0 -0.88785752716E+02 -0.46204032978E+02 -0.13934880685E+03  0.17156868164E+03  0.00000000000E+00 0.  1.
</event>
<event>
12    1  0.1683022E-002  0.2075457E+03  0.7818608E-02  0.1143802E+00
         21   -1    0    0  501  502  0.00000000000E+00  0.00000000000E+00  0.63190559224E+03  0.63190559224E+03  0.00000000000E+00 0.  1.
         21   -1    0    0  502  503 -0.00000000000E+00 -0.00000000000E+00 -0.68983061472E+02  0.68983061472E+02  0.00000000000E+00 0.  1.
          6    2    1    2  501    0  0.11233713439E+03 -0.11020517426E+02  0.23489563369E+03  0.31345042365E+03  0.17416694805E+03 0.  0.
         24    2    3    3    0    0  0.13652772914E+03 -0.38722776475E+02  0.15248975118E+03  0.22308771286E+03  0.79848163216E+02 0.  0.
         -6    2    1    2    0  503 -0.11233713439E+03  0.11020517426E+02  0.32802689708E+03  0.38743823006E+03  0.17252725390E+03 0.  0.
        -24    2    5    5    0    0 -0.33436559055E+01 -0.40743037108E+01  0.23891186887E+03  0.24576603720E+03  0.57395853255E+02 0.  0.
          5    1    3    3  501    0 -0.24190594751E+02  0.27702259049E+02  0.82405882503E+02  0.90362710794E+02  0.47000000000E+01 0. -1.
        -13    1    4    4    0    0  0.76652820389E+02 -0.12843115952E+02  0.13463778781E+03  0.15546039498E+03  0.00000000000E+00 0.  1.
         14    1    4    4    0    0  0.59874908750E+02 -0.25879660523E+02  0.17851963373E+02  0.67627317875E+02  0.00000000000E+00 0. -1.
         -5    1    5    5    0  503 -0.10899347848E+03  0.15094821137E+02  0.89115028215E+02  0.14167219286E+03  0.47000000000E+01 0.  1.
         13    1    6    6    0    0 -0.15579107722E+02 -0.25230174196E+02  0.87335674330E+02  0.92232262783E+02  0.00000000000E+00 0. -1.
        -14    1    6    6    0    0  0.12235451816E+02  0.21155870485E+02  0.15157619454E+03  0.15353377442E+03  0.00000000000E+00 0.  1.
</event>
<event>
12    1  0.1683022E-002  0.1944188E+03  0.7818608E-02  0.1154876E+00
         21   -1    0    0  501  502  0.00000000000E+00  0.00000000000E+00  0.32261786056E+03  0.32261786056E+03  0.00000000000E+00 0.  1.
         21   -1    0    0  502  503 -0.00000000000E+00 -0.00000000000E+00 -0.14879988949E+03  0.14879988949E+03  0.00000000000E+00 0.  1.
          6    2    1    2  501    0  0.86880025783E+02  0.10378802299E+02  0.19691238937E+03  0.27563211563E+03  0.17187994549E+03 0.  0.
         24    2    3    3    0    0 -0.22571685650E+02 -0.51655278035E+00  0.82165318619E+02  0.11661209757E+03  0.79608378300E+02 0.  0.
         -6    2    1    2    0  503 -0.86880025783E+02 -0.10378802299E+02 -0.23094418302E+02  0.19578563443E+03  0.17361683120E+03 0.  0.
        -24    2    5    5    0    0 -0.31033365368E+02  0.36384531720E+02  0.54608955430E+02  0.89176239075E+02  0.51801155275E+02 0.  0.
          5    1    3    3  501    0  0.10945171143E+03  0.10895355079E+02  0.11474707075E+03  0.15902001806E+03  0.47000000000E+01 0. -1.
        -13    1    4    4    0    0 -0.84391446058E+01  0.39455474021E+02  0.39543356853E+02  0.56494518876E+02  0.00000000000E+00 0.  1.
         14    1    4    4    0    0 -0.14132541044E+02 -0.39972026801E+02  0.42621961767E+02  0.60117578692E+02  0.00000000000E+00 0. -1.
         -5    1    5    5    0  503 -0.55846660414E+02 -0.46763334019E+02 -0.77703373732E+02  0.10660939535E+03  0.47000000000E+01 0.  1.
         11    1    6    6    0    0 -0.20677592498E+02  0.15809658497E+02  0.60102018111E+02  0.65496264888E+02  0.00000000000E+00 0. -1.
        -12    1    6    6    0    0 -0.10355772870E+02  0.20574873223E+02 -0.54930626806E+01  0.23679974187E+02  0.00000000000E+00 0.  1.
</event>
<event>
12    1  0.1683022E-002  0.2570265E+03  0.7818608E-02  0.1109191E+00
         21   -1    0    0  503  502  0.00000000000E+00  0.00000000000E+00  0.43393707582E+02  0.43393707582E+02  0.00000000000E+00 0. -1.
         21   -1    0    0  501  503 -0.00000000000E+00 -0.00000000000E+00 -0.15211721340E+04  0.15211721340E+04  0.00000000000E+00 0. -1.
          6    2    1    2  501    0  0.50395256364E+02 -0.18045184824E+03 -0.68321114737E+03  0.72995897687E+03  0.17595478008E+03 0.  0.
         24    2    3    3    0    0  0.64210193106E+02 -0.19557875391E+03 -0.66237614916E+03  0.70036399583E+03  0.96920409653E+02 0.  0.
         -6    2    1    2    0  502 -0.50395256364E+02  0.18045184824E+03 -0.79456727909E+03  0.83460686475E+03  0.17357680227E+03 0.  0.
        -24    2    5    5    0    0 -0.30893761297E+02  0.95952707778E+02 -0.67306985685E+03  0.68526120308E+03  0.79990859625E+02 0.  0.
          5    1    3    3  501    0 -0.13814936743E+02  0.15126905669E+02 -0.20834998209E+02  0.29594981039E+02  0.47000000000E+01 0. -1.
        -13    1    4    4    0    0  0.37416990342E+02 -0.37868058092E+02 -0.29357899592E+03  0.29836663325E+03  0.00000000000E+00 0.  1.
         14    1    4    4    0    0  0.26793202764E+02 -0.15771069582E+03 -0.36879715324E+03  0.40199736258E+03  0.00000000000E+00 0. -1.
         -5    1    5    5    0  502 -0.19501495066E+02  0.84499140465E+02 -0.12149742224E+03  0.14934566167E+03  0.47000000000E+01 0.  1.
         13    1    6    6    0    0 -0.19328547291E+02  0.71143653758E+02 -0.23399117947E+03  0.24533015363E+03  0.00000000000E+00 0. -1.
        -14    1    6    6    0    0 -0.11565214006E+02  0.24809054020E+02 -0.43907867738E+03  0.43993104945E+03  0.00000000000E+00 0.  1.
</event>
<event>
12    1  0.1683022E-002  0.2050485E+03  0.7818608E-02  0.1147721E+00
         21   -1    0    0  501  502  0.00000000000E+00  0.00000000000E+00  0.57592601815E+03  0.57592601815E+03  0.00000000000E+00 0. -1.
         21   -1    0    0  502  503 -0.00000000000E+00 -0.00000000000E+00 -0.69598867143E+02  0.69598867143E+02  0.00000000000E+00 0. -1.
          6    2    1    2  501    0 -0.88176243674E+02  0.20192482627E+02  0.27837268399E+03  0.34574012003E+03  0.18401655661E+03 0.  0.
         24    2    3    3    0    0 -0.27191826652E+01  0.66731674805E+02  0.12353347699E+03  0.16280276543E+03  0.82363281373E+02 0.  0.
         -6    2    1    2    0  503  0.88176243674E+02 -0.20192482627E+02  0.22795446702E+03  0.29978476526E+03  0.17240904891E+03 0.  0.
        -24    2    5    5    0    0  0.50032439556E+01 -0.26082173164E+02  0.43351902992E+02  0.97170271746E+02  0.82809190378E+02 0.  0.
          5    1    3    3  501    0 -0.85457061008E+02 -0.46539192177E+02  0.15483920700E+03  0.18293735460E+03  0.47000000000E+01 0. -1.
        -11    1    4    4    0    0 -0.11116720025E+02  0.26080020400E+02 -0.40482541559E+01  0.28638039212E+02  0.00000000000E+00 0.  1.
         12    1    4    4    0    0  0.83975373600E+01  0.40651654405E+02  0.12758173115E+03  0.13416472622E+03  0.00000000000E+00 0. -1.
         -5    1    5    5    0  503  0.83172999718E+02  0.58896905368E+01  0.18460256403E+03  0.20261449352E+03  0.47000000000E+01 0.  1.
         11    1    6    6    0    0  0.30167901661E+02  0.30993683784E+01 -0.94845411684E+01  0.31775224565E+02  0.00000000000E+00 0. -1.
        -12    1    6    6    0    0 -0.25164657706E+02 -0.29181541543E+02  0.52836444160E+02  0.65395047181E+02  0.00000000000E+00 0.  1.
</event>
<event>
12    1  0.1683022E-002  0.1844736E+03  0.7818608E-02  0.1163787E+00
         21   -1    0    0  501  502  0.00000000000E+00  0.00000000000E+00  0.38215221791E+03  0.38215221791E+03  0.00000000000E+00 0. -1.
         21   -1    0    0  502  503 -0.00000000000E+00 -0.00000000000E+00 -0.91444317006E+02  0.91444317006E+02  0.00000000000E+00 0.  1.
          6    2    1    2  501    0  0.20862659503E+02  0.61089764952E+02  0.18709295790E+03  0.26201544444E+03  0.17170063566E+03 0.  0.
         24    2    3    3    0    0  0.73936131941E+02  0.15861528715E+02  0.10061909911E+03  0.15082999088E+03  0.83110428611E+02 0.  0.
         -6    2    1    2    0  503 -0.20862659503E+02 -0.61089764952E+02  0.10361494301E+03  0.21158109048E+03  0.17280998666E+03 0.  0.
        -24    2    5    5    0    0 -0.54916326378E+01 -0.55886601860E+02 -0.83182857506E+01  0.98380034506E+02  0.80349032447E+02 0.  0.
          5    1    3    3  501    0 -0.53073472438E+02  0.45228236237E+02  0.86473858791E+02  0.11118545356E+03  0.47000000000E+01 0. -1.
        -11    1    4    4    0    0  0.90024516532E+02  0.22191654165E+02  0.71991410761E+02  0.11738673824E+03  0.00000000000E+00 0.  1.
         12    1    4    4    0    0 -0.16088384591E+02 -0.63301254496E+01  0.28627688350E+02  0.33443252641E+02  0.00000000000E+00 0. -1.
         -5    1    5    5    0  503 -0.15371026865E+02 -0.52031630924E+01  0.11193322876E+03  0.11320105597E+03  0.47000000000E+01 0.  1.
         13    1    6    6    0    0 -0.12543681927E+02 -0.27838587152E+02  0.34903745698E+02  0.46374587380E+02  0.00000000000E+00 0. -1.
        -14    1    6    6    0    0  0.70520492893E+01 -0.28048014708E+02 -0.43222031449E+02  0.52005447126E+02  0.00000000000E+00 0.  1.
</event>
<event>
12    1  0.1683022E-002  0.1876483E+03  0.7818608E-02  0.1162065E+00
         21   -1    0    0  503  502  0.00000000000E+00  0.00000000000E+00  0.19464532194E+02  0.19464532194E+02  0.00000000000E+00 0. -1.
         21   -1    0    0  501  503 -0.00000000000E+00 -0.00000000000E+00 -0.23481173228E+04  0.23481173228E+04  0.00000000000E+00 0. -1.
          6    2    1    2  501    0 -0.74708449788E+02  0.23548984908E+02 -0.17474605676E+04  0.17568476342E+04  0.16358260083E+03 0.  0.
         24    2    3    3    0    0  0.10845663159E+02  0.42747904947E+01 -0.11689273605E+04  0.11716863210E+04  0.79509485630E+02 0.  0.
         -6    2    1    2    0  502  0.74708449788E+02 -0.23548984908E+02 -0.58119222303E+03  0.61073422082E+03  0.17051680626E+03 0.  0.
        -24    2    5    5    0    0  0.63605360205E+02 -0.77978014237E+02 -0.43863644987E+03  0.45766549021E+03  0.83243938037E+02 0.  0.
          5    1    3    3  501    0 -0.85554112947E+02  0.19274194413E+02 -0.57853320706E+03  0.58516131322E+03  0.47000000000E+01 0. -1.
        -11    1    4    4    0    0 -0.27640974267E+01  0.24556702794E+02 -0.12217940392E+03  0.12465343409E+03  0.00000000000E+00 0.  1.
         12    1    4    4    0    0  0.13609760586E+02 -0.20281912299E+02 -0.10467479566E+04  0.10470328869E+04  0.00000000000E+00 0. -1.
         -5    1    5    5    0  502  0.11103089583E+02  0.54429029329E+02 -0.14255577316E+03  0.15306873062E+03  0.47000000000E+01 0.  1.
         13    1    6    6    0    0  0.60767285776E+01 -0.13320194715E+02 -0.49911438592E+01  0.15468216914E+02  0.00000000000E+00 0. -1.
        -14    1    6    6    0    0  0.57528631628E+02 -0.64657819522E+02 -0.43364530601E+03  0.44219727329E+03  0.00000000000E+00 0.  1.
</event>
<event>
12    1  0.1683022E-002  0.2095792E+03  0.7818608E-02  0.1142129E+00
         21   -1    0    0  501  502  0.00000000000E+00  0.00000000000E+00  0.37431169104E+03  0.37431169104E+03  0.00000000000E+00 0. -1.
         21   -1    0    0  502  503 -0.00000000000E+00 -0.00000000000E+00 -0.24999867304E+03  0.24999867304E+03  0.00000000000E+00 0. -1.
          6    2    1    2  501    0 -0.58626452708E+02  0.10355223016E+03  0.29001324106E+03  0.35714001357E+03  0.17111745665E+03 0.  0.
         24    2    3    3    0    0  0.87292972628E+01  0.10685708596E+03  0.23410745436E+03  0.26941734767E+03  0.79276538685E+02 0.  0.
         -6    2    1    2    0  503  0.58626452708E+02 -0.10355223016E+03 -0.16570022306E+03  0.26717035051E+03  0.17252045370E+03 0.  0.
        -24    2    5    5    0    0 -0.28114521616E+02 -0.25054874238E+02 -0.97018954719E+02  0.13143149044E+03  0.80270704843E+02 0.  0.
          5    1    3    3  501    0 -0.67355749971E+02 -0.33048558015E+01  0.55905786699E+02  0.87722665899E+02  0.47000000000E+01 0. -1.
        -13    1    4    4    0    0  0.12673854200E+01  0.62678458123E+02  0.50729888364E+02  0.80645625746E+02  0.00000000000E+00 0.  1.
         14    1    4    4    0    0  0.74619118429E+01  0.44178627837E+02  0.18337756600E+03  0.18877172192E+03  0.00000000000E+00 0. -1.
         -5    1    5    5    0  503  0.86740974324E+02 -0.78497355921E+02 -0.68681268339E+02  0.13573886007E+03  0.47000000000E+01 0.  1.
         13    1    6    6    0    0 -0.49136776722E+02 -0.34006040484E+02 -0.89033223984E+02  0.10722755518E+03  0.00000000000E+00 0. -1.
        -14    1    6    6    0    0  0.21022255106E+02  0.89511662466E+01 -0.79857307349E+01  0.24203935265E+02  0.00000000000E+00 0.  1.
</event>
<event>
12    1  0.1683022E-002  0.1847078E+03  0.7818608E-02  0.1163421E+00
         21   -1    0    0  501  502  0.00000000000E+00  0.00000000000E+00  0.16093099988E+03  0.16093099988E+03  0.00000000000E+00 0. -1.
         21   -1    0    0  502  503 -0.00000000000E+00 -0.00000000000E+00 -0.23027055727E+03  0.23027055727E+03  0.00000000000E+00 0. -1.
          6    2    1    2  501    0 -0.38296088853E+02  0.53217139804E+02  0.21111730082E+02  0.18591040200E+03  0.17267981362E+03 0.  0.
         24    2    3    3    0    0  0.38289063825E+02  0.23524929882E+02 -0.18834409013E+02  0.94451684702E+02  0.80912984407E+02 0.  0.
         -6    2    1    2    0  503  0.38296088853E+02 -0.53217139804E+02 -0.90451287472E+02  0.20529115515E+03  0.17223347116E+03 0.  0.
        -24    2    5    5    0    0  0.46034049467E+02 -0.92407690330E+02 -0.32033733577E+02  0.13436530733E+03  0.79809528162E+02 0.  0.
          5    1    3    3  501    0 -0.76585152678E+02  0.29692209922E+02  0.39946139094E+02  0.91458717295E+02  0.47000000000E+01 0. -1.
        -13    1    4    4    0    0 -0.10519131005E+02 -0.21720450036E+02  0.32011770516E+01  0.24344970761E+02  0.00000000000E+00 0.  1.
         14    1    4    4    0    0  0.48808194829E+02  0.45245379917E+02 -0.22035586064E+02  0.70106713941E+02  0.00000000000E+00 0. -1.
         -5    1    5    5    0  503 -0.77379606142E+01  0.39190550526E+02 -0.58417553896E+02  0.70925847814E+02  0.47000000000E+01 0.  1.
         13    1    6    6    0    0  0.61850427368E+02 -0.36690607667E+02 -0.11026473140E+02  0.72754787928E+02  0.00000000000E+00 0. -1.
        -14    1    6    6    0    0 -0.15816377900E+02 -0.55717082663E+02 -0.21007260436E+02  0.61610519405E+02  0.00000000000E+00 0.  1.
</event>
<event>
12    1  0.1683022E-002  0.2933382E+03  0.7818608E-02  0.1088776E+00
         21   -1    0    0  501  502  0.00000000000E+00  0.00000000000E+00  0.74943611753E+03  0.74943611753E+03  0.00000000000E+00 0.  1.
         21   -1    0    0  502  503 -0.00000000000E+00 -0.00000000000E+00 -0.12955050336E+03  0.12955050336E+03  0.00000000000E+00 0.  1.
          6    2    1    2  501    0 -0.69853371755E+02  0.22549052039E+03  0.15877148203E+03  0.33247629172E+03  0.17206578021E+03 0.  0.
         24    2    3    3    0    0 -0.98666302512E+02  0.19303426052E+03  0.79975300739E+02  0.24239565024E+03  0.73227983315E+02 0.  0.
         -6    2    1    2    0  503  0.69853371755E+02 -0.22549052039E+03  0.46111413214E+03  0.54651032917E+03  0.17413164189E+03 0.  0.
        -24    2    5    5    0    0 -0.26699057249E+02 -0.87386793596E+02  0.23547662708E+03  0.26485560333E+03  0.79686619719E+02 0.  0.
          5    1    3    3  501    0  0.28812930757E+02  0.32456259865E+02  0.78796181291E+02  0.90080641479E+02  0.47000000000E+01 0. -1.
        -11    1    4    4    0    0 -0.70946040549E+02  0.16395627249E+03  0.91341738225E+02  0.20064474351E+03  0.00000000000E+00 0.  1.
         12    1    4    4    0    0 -0.27720261963E+02  0.29077988037E+02 -0.11366437486E+02  0.41750906729E+02  0.00000000000E+00 0. -1.
         -5    1    5    5    0  503  0.96552429004E+02 -0.13810372679E+03  0.22563750506E+03  0.28165472584E+03  0.47000000000E+01 0.  1.
         11    1    6    6    0    0 -0.29780278623E+02 -0.45048322147E+02  0.46790702456E+02  0.71453384521E+02  0.00000000000E+00 0. -1.
        -12    1    6    6    0    0  0.30812213739E+01 -0.42338471449E+02  0.18868592463E+03  0.19340221881E+03  0.00000000000E+00 0.  1.
</event>
<event>
12    1  0.1683022E-002  0.2322691E+03  0.7818608E-02  0.1125206E+00
         21   -1    0    0  501  502  0.00000000000E+00  0.00000000000E+00  0.53178292966E+03  0.53178292966E+03  0.00000000000E+00 0.  1.
         21   -1    0    0  502  503 -0.00000000000E+00 -0.00000000000E+00 -0.13900016205E+03  0.13900016205E+03  0.00000000000E+00 0.  1.
          6    2    1    2  501    0  0.12704523364E+03 -0.93857671125E+02  0.37187585115E+03  0.43845249949E+03  0.17029149074E+03 0.  0.
         24    2    3    3    0    0  0.92882734852E+02 -0.59749212867E+02  0.36537208939E+03  0.38951527271E+03  0.77641568095E+02 0.  0.
         -6    2    1    2    0  503 -0.12704523364E+03  0.93857671125E+02  0.20906916453E+02  0.23233059222E+03  0.16908770240E+03 0.  0.
        -24    2    5    5    0    0 -0.11800476616E+03  0.54049411270E+02  0.69655643572E+02  0.16857358476E+03  0.81967561266E+02 0.  0.
          5    1    3    3  501    0  0.34162498790E+02 -0.34108458258E+02  0.65037617654E+01  0.48937226785E+02  0.47000000000E+01 0. -1.
        -13    1    4    4    0    0  0.75278966004E+02 -0.34362773716E+01  0.22357170643E+03  0.23593015627E+03  0.00000000000E+00 0.  1.
         14    1    4    4    0    0  0.17603768848E+02 -0.56312935495E+02  0.14180038296E+03  0.15358511643E+03  0.00000000000E+00 0. -1.
         -5    1    5    5    0  503 -0.90404674774E+01  0.39808259855E+02 -0.48748727118E+02  0.63757007462E+02  0.47000000000E+01 0.  1.
         11    1    6    6    0    0 -0.71145994745E+01 -0.82310439962E+01  0.35146755365E+02  0.36792146222E+02  0.00000000000E+00 0. -1.
        -12    1    6    6    0    0 -0.11089016669E+03  0.62280455266E+02  0.34508888206E+02  0.13178143853E+03  0.00000000000E+00 0.  1.
</event>
<event>
12    1  0.1683022E-002  0.1736396E+03  0.7818608E-02  0.1174540E+00
         21   -1    0    0  501  502  0.00000000000E+00  0.00000000000E+00  0.10015953979E+03  0.10015953979E+03  0.00000000000E+00 0.  1.
         21   -1    0    0  502  503 -0.00000000000E+00 -0.00000000000E+00 -0.29950340906E+03  0.29950340906E+03  0.00000000000E+00 0.  1.
          6    2    1    2  501    0  0.94761441819E+01 -0.47244367881E+01 -0.85384719866E+02  0.19196749693E+03  0.17160667784E+03 0.  0.
         24    2    3    3    0    0  0.66885481573E+02 -0.13562065965E+02 -0.22245293275E+02  0.10604536416E+03  0.78058752931E+02 0.  0.
         -6    2    1    2    0  503 -0.94761441819E+01  0.47244367881E+01 -0.11395914941E+03  0.20769545192E+03  0.17331646027E+03 0.  0.
        -24    2    5    5    0    0  0.49956373950E+02 -0.21990753753E+01 -0.18553297845E+02  0.94981097263E+02  0.78592039963E+02 0.  0.
          5    1    3    3  501    0 -0.57409337391E+02  0.88376291772E+01 -0.63139426591E+02  0.85922132768E+02  0.47000000000E+01 0. -1.
        -13    1    4    4    0    0  0.12522961940E+02 -0.26288822750E+02  0.20599050254E+02  0.35668580694E+02  0.00000000000E+00 0.  1.
         14    1    4    4    0    0  0.54362519633E+02  0.12726756785E+02 -0.42844343529E+02  0.70376783470E+02  0.00000000000E+00 0. -1.
         -5    1    5    5    0  503 -0.59432518132E+02  0.69235121634E+01 -0.95405851564E+02  0.11271435465E+03  0.47000000000E+01 0.  1.
         13    1    6    6    0    0 -0.19021216113E+02  0.11843982790E+02 -0.98302771274E+00  0.22428841571E+02  0.00000000000E+00 0. -1.
        -14    1    6    6    0    0  0.68977590062E+02 -0.14043058165E+02 -0.17570270133E+02  0.72552255692E+02  0.00000000000E+00 0.  1.
</event>
<event>
12    1  0.1683022E-002  0.2111471E+03  0.7818608E-02  0.1140677E+00
         21   -1    0    0  501  502  0.00000000000E+00  0.00000000000E+00  0.29829266355E+03  0.29829266355E+03  0.00000000000E+00 0. -1.
         21   -1    0    0  502  503 -0.00000000000E+00 -0.00000000000E+00 -0.18881377309E+03  0.18881377309E+03  0.00000000000E+00 0. -1.
          6    2    1    2  501    0  0.17467767473E+02 -0.12083739050E+03 -0.56525993985E+02  0.21858244198E+03  0.17226809948E+03 0.  0.
         24    2    3    3    0    0  0.27033392129E+02  0.31774804275E+01 -0.38341379178E+02  0.92789120996E+02  0.79992868095E+02 0.  0.
         -6    2    1    2    0  503 -0.17467767473E+02  0.12083739050E+03  0.16600488444E+03  0.26852399466E+03  0.17216479374E+03 0.  0.
        -24    2    5    5    0    0 -0.54899520714E+02  0.88720087933E+02  0.17434062433E+03  0.21828226067E+03  0.79795242029E+02 0.  0.
          5    1    3    3  501    0 -0.95656246566E+01 -0.12401487093E+03 -0.18184614807E+02  0.12579332098E+03  0.47000000000E+01 0. -1.
        -13    1    4    4    0    0 -0.87644619483E+01  0.25049174381E+02  0.10379839288E+02  0.28495929430E+02  0.00000000000E+00 0.  1.
         14    1    4    4    0    0  0.35797854078E+02 -0.21871693954E+02 -0.48721218466E+02  0.64293191567E+02  0.00000000000E+00 0. -1.
         -5    1    5    5    0  503  0.37431753241E+02  0.32117302572E+02 -0.83357398912E+01  0.50241733994E+02  0.47000000000E+01 0.  1.
         11    1    6    6    0    0 -0.43953837936E-01  0.35634601500E+02  0.11839171546E+03  0.12363828309E+03  0.00000000000E+00 0. -1.
        -12    1    6    6    0    0 -0.54855566876E+02  0.53085486434E+02  0.55948908876E+02  0.94643977577E+02  0.00000000000E+00 0.  1.
</event>
<event>
12    1  0.1683022E-002  0.2267561E+03  0.7818608E-02  0.1129928E+00
         21   -1    0    0  503  502  0.00000000000E+00  0.00000000000E+00  0.19913192809E+03  0.19913192809E+03  0.00000000000E+00 0. -1.
         21   -1    0    0  501  503 -0.00000000000E+00 -0.00000000000E+00 -0.35024389955E+03  0.35024389955E+03  0.00000000000E+00 0.  1.
          6    2    1    2  501    0  0.52657031182E+02 -0.12900113166E+03 -0.22031478161E+03  0.31229487641E+03  0.17197509103E+03 0.  0.
         24    2    3    3    0    0  0.79976647009E+01 -0.24953823158E+02 -0.26769416332E+02  0.88013357240E+02  0.79643540046E+02 0.  0.
         -6    2    1    2    0  502 -0.52657031182E+02  0.12900113166E+03  0.69202810146E+02  0.23708095124E+03  0.17889743879E+03 0.  0.
        -24    2    5    5    0    0 -0.72342749845E+02  0.48104481199E+02  0.93073723097E+02  0.15034165184E+03  0.79952359441E+02 0.  0.
          5    1    3    3  501    0  0.44659366481E+02 -0.10404730850E+03 -0.19354536527E+03  0.22428151917E+03  0.47000000000E+01 0. -1.
        -11    1    4    4    0    0  0.10760512234E+02  0.12930839574E+02 -0.43400560883E+02  0.46546792807E+02  0.00000000000E+00 0.  1.
         12    1    4    4    0    0 -0.27628475334E+01 -0.37884662732E+02  0.16631144551E+02  0.41466564433E+02  0.00000000000E+00 0. -1.
         -5    1    5    5    0  502  0.19685718663E+02  0.80896650459E+02 -0.23870912950E+02  0.86739299397E+02  0.47000000000E+01 0.  1.
         13    1    6    6    0    0  0.76006404926E+00 -0.83782021299E+01  0.45802029380E+02  0.46568206575E+02  0.00000000000E+00 0. -1.
        -14    1    6    6    0    0 -0.73102813894E+02  0.56482683328E+02  0.47271693717E+02  0.10377344526E+03  0.00000000000E+00 0.  1.
</event>
<event>
12    1  0.1683022E-002  0.2654405E+03  0.7818608E-02  0.1104845E+00
         21   -1    0    0  503  502  0.00000000000E+00  0.00000000000E+00  0.21174914619E+03  0.21174914619E+03  0.00000000000E+00 0. -1.
         21   -1    0    0  501  503 -0.00000000000E+00 -0.00000000000E+00 -0.36480632585E+03  0.36480632585E+03  0.00000000000E+00 0. -1.
          6    2    1    2  501    0 -0.29995102638E+02 -0.19145507936E+03 -0.17262696018E+03  0.31663657465E+03  0.18139432028E+03 0.  0.
         24    2    3    3    0    0 -0.58137128911E+02 -0.12219137420E+03 -0.17480539872E+03  0.24169479665E+03  0.97717908387E+02 0.  0.
         -6    2    1    2    0  502  0.29995102638E+02  0.19145507936E+03  0.19569780530E+02  0.25991889739E+03  0.17210491950E+03 0.  0.
        -24    2    5    5    0    0  0.46812359674E+02  0.65856672700E+02 -0.39365654882E+02  0.12008594191E+03  0.79639690503E+02 0.  0.
          5    1    3    3  501    0  0.28142026274E+02 -0.69263705164E+02  0.21784385379E+01  0.74941778003E+02  0.47000000000E+01 0. -1.
        -11    1    4    4    0    0  0.24787736391E+01  0.11405193778E+02 -0.42732660943E+02  0.44297890188E+02  0.00000000000E+00 0.  1.
         12    1    4    4    0    0 -0.60615902551E+02 -0.13359656797E+03 -0.13207273778E+03  0.19739690646E+03  0.00000000000E+00 0. -1.
         -5    1    5    5    0  502 -0.16817257037E+02  0.12559840666E+03  0.58935435412E+02  0.13983295548E+03  0.47000000000E+01 0.  1.
         13    1    6    6    0    0  0.15192853100E+02  0.75890149917E+02 -0.39542360616E+02  0.86912231146E+02  0.00000000000E+00 0. -1.
        -14    1    6    6    0    0  0.31619506575E+02 -0.10033477217E+02  0.17670573417E+00  0.33173710767E+02  0.00000000000E+00 0.  1.
</event>
<event>
12    1  0.1683022E-002  0.1773387E+03  0.7818608E-02  0.1170578E+00
         21   -1    0    0  501  502  0.00000000000E+00  0.00000000000E+00  0.36349132651E+02  0.36349132651E+02  0.00000000000E+00 0.  1.
         21   -1    0    0  502  503 -0.00000000000E+00 -0.00000000000E+00 -0.94158597214E+03  0.94158597214E+03  0.00000000000E+00 0.  1.
          6    2    1    2  501    0  0.14286163101E+02  0.39099645956E+02 -0.31107464983E+03  0.35807326938E+03  0.17238373389E+03 0.  0.
         24    2    3    3    0    0  0.72679824537E+02  0.20826816847E+02 -0.15642598132E+03  0.19169413412E+03  0.81002717419E+02 0.  0.
         -6    2    1    2    0  503 -0.14286163101E+02 -0.39099645956E+02 -0.59416218966E+03  0.61986183541E+03  0.17165986894E+03 0.  0.
        -24    2    5    5    0    0 -0.69797868965E+02 -0.42507769219E+02 -0.31199488010E+03  0.33222726624E+03  0.79721379019E+02 0.  0.
          5    1    3    3  501    0 -0.58393661436E+02  0.18272829110E+02 -0.15464866851E+03  0.16637913526E+03  0.47000000000E+01 0. -1.
        -13    1    4    4    0    0  0.51968499395E+01  0.40001601569E+02 -0.50302485290E+02  0.64478487915E+02  0.00000000000E+00 0.  1.
         14    1    4    4    0    0  0.67482974597E+02 -0.19174784723E+02 -0.10612349603E+03  0.12721564620E+03  0.00000000000E+00 0. -1.
         -5    1    5    5    0  503  0.55511705864E+02  0.34081232623E+01 -0.28216730956E+03  0.28763456917E+03  0.47000000000E+01 0.  1.
         11    1    6    6    0    0 -0.45535114013E+02  0.17579653652E+02 -0.11805119610E+03  0.12774418081E+03  0.00000000000E+00 0. -1.
        -12    1    6    6    0    0 -0.24262754952E+02 -0.60087422871E+02 -0.19394368400E+03  0.20448308543E+03  0.00000000000E+00 0.  1.
</event>
<event>
12    1  0.1683022E-002  0.2228139E+03  0.7818608E-02  0.1131906E+00
         21   -1    0    0  501  502  0.00000000000E+00  0.00000000000E+00  0.96041062314E+03  0.96041062314E+03  0.00000000000E+00 0. -1.
         21   -1    0    0  502  503 -0.00000000000E+00 -0.00000000000E+00 -0.70381721431E+02  0.70381721431E+02  0.00000000000E+00 0. -1.
          6    2    1    2  501    0 -0.13524793932E+03  0.39184769592E+02  0.71193993275E+03  0.74599230773E+03  0.17268064190E+03 0.  0.
         24    2    3    3    0    0 -0.65104918279E+01 -0.19219844792E+02  0.28835390682E+03  0.29941460930E+03  0.78034247276E+02 0.  0.
         -6    2    1    2    0  503  0.13524793932E+03 -0.39184769592E+02  0.17808896896E+03  0.28480003685E+03  0.17195327523E+03 0.  0.
        -24    2    5    5    0    0  0.68320721066E+02  0.32847244742E+02  0.42890860535E+02  0.11756223563E+03  0.78959425754E+02 0.  0.
          5    1    3    3  501    0 -0.12873744749E+03  0.58404614384E+02  0.42358602593E+03  0.44657769842E+03  0.47000000000E+01 0. -1.
        -11    1    4    4    0    0  0.32201309605E+02  0.76205552389E+01  0.10400016908E+03  0.10913767622E+03  0.00000000000E+00 0.  1.
         12    1    4    4    0    0 -0.38711801433E+02 -0.26840400031E+02  0.18435373774E+03  0.19027693308E+03  0.00000000000E+00 0. -1.
         -5    1    5    5    0  503  0.66927218254E+02 -0.72032014334E+02  0.13519810843E+03  0.16723780121E+03  0.47000000000E+01 0.  1.
         11    1    6    6    0    0 -0.14744219459E+02  0.11602511569E+02  0.22752114463E+02  0.29490150809E+02  0.00000000000E+00 0. -1.
        -12    1    6    6    0    0  0.83064940525E+02  0.21244733173E+02  0.20138746072E+02  0.88072084824E+02  0.00000000000E+00 0.  1.
</event>
<event>
12    1  0.1683022E-002  0.2512024E+03  0.7818608E-02  0.1112637E+00
         21   -1    0    0  501  502  0.00000000000E+00  0.00000000000E+00  0.14481435643E+03  0.14481435643E+03  0.00000000000E+00 0.  1.
         21   -1    0    0  502  503 -0.00000000000E+00 -0.00000000000E+00 -0.61147040790E+03  0.61147040790E+03  0.00000000000E+00 0.  1.
          6    2    1    2  501    0 -0.33362269919E+02  0.17939174550E+03 -0.43679696089E+03  0.50387920325E+03  0.17265059228E+03 0.  0.
         24    2    3    3    0    0 -0.42492638021E+02  0.12978659703E+03 -0.16844352367E+03  0.23078637719E+03  0.78987000039E+02 0.  0.
         -6    2    1    2    0  503  0.33362269919E+02 -0.17939174550E+03 -0.29859090587E+02  0.25240556108E+03  0.17182130999E+03 0.  0.
        -24    2    5    5    0    0 -0.43457681111E+02 -0.75904593769E+02 -0.18258762904E+02  0.12291597443E+03  0.84408986158E+02 0.  0.
          5    1    3    3  501    0  0.91303681018E+01  0.49605148465E+02 -0.26835343722E+03  0.27309282605E+03  0.47000000000E+01 0. -1.
        -11    1    4    4    0    0  0.20002495623E+01  0.30586167656E+02 -0.94386478742E+02  0.99238712302E+02  0.00000000000E+00 0.  1.
         12    1    4    4    0    0 -0.44492887584E+02  0.99200429378E+02 -0.74057044928E+02  0.13154766489E+03  0.00000000000E+00 0. -1.
         -5    1    5    5    0  503  0.76819951031E+02 -0.10348715173E+03 -0.11600327682E+02  0.12948958665E+03  0.47000000000E+01 0.  1.
         13    1    6    6    0    0  0.49088215583E+01  0.16474636494E+02 -0.42156386535E+01  0.17699767963E+02  0.00000000000E+00 0. -1.
        -14    1    6    6    0    0 -0.48366502670E+02 -0.92379230262E+02 -0.14043124251E+02  0.10521620647E+03  0.00000000000E+00 0.  1.
</event>
<event>
12    1  0.1683022E-002  0.1959296E+03  0.7818608E-02  0.1153666E+00
         21   -1    0    0  503  502  0.00000000000E+00  0.00000000000E+00  0.44146914504E+03  0.44146914504E+03  0.00000000000E+00 0. -1.
         21   -1    0    0  501  503 -0.00000000000E+00 -0.00000000000E+00 -0.99975281663E+02  0.99975281663E+02  0.00000000000E+00 0.  1.
          6    2    1    2  501    0 -0.33141407276E+02 -0.82914864726E+02  0.70478160191E+02  0.20821998562E+03  0.17439943715E+03 0.  0.
         24    2    3    3    0    0  0.27845579193E+02 -0.83160150193E+02  0.10697111000E+02  0.12269024502E+03  0.85132139520E+02 0.  0.
         -6    2    1    2    0  502  0.33141407276E+02  0.82914864726E+02  0.27101570318E+03  0.33322444109E+03  0.17209238535E+03 0.  0.
        -24    2    5    5    0    0 -0.25033556501E+02  0.60418503400E+02  0.24499151537E+03  0.26547666596E+03  0.78612613870E+02 0.  0.
          5    1    3    3  501    0 -0.60986986469E+02  0.24528546643E+00  0.59781049191E+02  0.85529740593E+02  0.47000000000E+01 0. -1.
        -11    1    4    4    0    0 -0.14826864197E+02 -0.30468816069E+02 -0.28583250374E+02  0.44330428111E+02  0.00000000000E+00 0.  1.
         12    1    4    4    0    0  0.42672443390E+02 -0.52691334124E+02  0.39280361375E+02  0.78359816911E+02  0.00000000000E+00 0. -1.
         -5    1    5    5    0  502  0.58174963777E+02  0.22496361326E+02  0.26024187811E+02  0.67747775126E+02  0.47000000000E+01 0.  1.
         13    1    6    6    0    0 -0.24880874891E+02  0.56076928411E+02  0.81910129662E+02  0.10233742803E+03  0.00000000000E+00 0. -1.
        -14    1    6    6    0    0 -0.15268160920E+00  0.43415749890E+01  0.16308138571E+03  0.16313923792E+03  0.00000000000E+00 0.  1.
</event>
<event>
12    1  0.1683022E-002  0.1783099E+03  0.7818608E-02  0.1170489E+00
         21   -1    0    0  503  502  0.00000000000E+00  0.00000000000E+00  0.29796919136E+03  0.29796919136E+03  0.00000000000E+00 0.  1.
         21   -1    0    0  501  503 -0.00000000000E+00 -0.00000000000E+00 -0.12986561220E+03  0.12986561220E+03  0.00000000000E+00 0.  1.
          6    2    1    2  501    0  0.26500826817E+02 -0.32864762555E+02 -0.11826453272E+02  0.17451835789E+03  0.16892130062E+03 0.  0.
         24    2    3    3    0    0 -0.36325188749E+02 -0.55740329183E+02 -0.21490063094E+02  0.10679926800E+03  0.80732627841E+02 0.  0.
         -6    2    1    2    0  502 -0.26500826817E+02  0.32864762555E+02  0.17993003243E+03  0.25331644567E+03  0.17323977210E+03 0.  0.
        -24    2    5    5    0    0  0.88321738817E+01  0.84133244887E+02  0.11684020974E+03  0.16455105858E+03  0.79177055228E+02 0.  0.
          5    1    3    3  501    0  0.62826015566E+02  0.22875566628E+02  0.96636098226E+01  0.67719089888E+02  0.47000000000E+01 0. -1.
        -13    1    4    4    0    0  0.24286850637E+02 -0.21331254752E+02 -0.18035926555E+02  0.37015782983E+02  0.00000000000E+00 0.  1.
         14    1    4    4    0    0 -0.60612039386E+02 -0.34409074431E+02 -0.34541365397E+01  0.69783485016E+02  0.00000000000E+00 0. -1.
         -5    1    5    5    0  502 -0.35333000699E+02 -0.51268482333E+02  0.63089822690E+02  0.88765387095E+02  0.47000000000E+01 0.  1.
         13    1    6    6    0    0  0.37001656734E+02  0.46710074351E+02  0.31997588778E+02  0.67637262914E+02  0.00000000000E+00 0. -1.
        -14    1    6    6    0    0 -0.28169482852E+02  0.37423170536E+02  0.84842620966E+02  0.96913795662E+02  0.00000000000E+00 0.  1.
</event>
<event>
12    1  0.1683022E-002  0.1912269E+03  0.7818608E-02  0.1158339E+00
         21   -1    0    0  503  502  0.00000000000E+00  0.00000000000E+00  0.25526777552E+03  0.25526777552E+03  0.00000000000E+00 0. -1.
         21   -1    0    0  501  503 -0.00000000000E+00 -0.00000000000E+00 -0.31276406052E+03  0.31276406052E+03  0.00000000000E+00 0. -1.
          6    2    1    2  501    0 -0.41490493692E+02  0.63217207147E+02 -0.23966281719E+03  0.30392512375E+03  0.17092202478E+03 0.  0.
         24    2    3    3    0    0 -0.28234698544E+02  0.10681064279E+03 -0.14820658232E+03  0.20163907077E+03  0.80544473467E+02 0.  0.
         -6    2    1    2    0  502  0.41490493692E+02 -0.63217207147E+02  0.18216653219E+03  0.26410671229E+03  0.17564120723E+03 0.  0.
        -24    2    5    5    0    0  0.45936421508E+02 -0.10287837372E+03  0.93974368742E+02  0.16719065530E+03  0.80171183341E+02 0.  0.
          5    1    3    3  501    0 -0.13255795149E+02 -0.43593435638E+02 -0.91456234875E+02  0.10228605298E+03  0.47000000000E+01 0. -1.
        -11    1    4    4    0    0 -0.15086165117E+02  0.18045696756E+02  0.50386911770E+01  0.24054686822E+02  0.00000000000E+00 0.  1.
         12    1    4    4    0    0 -0.13148533426E+02  0.88764946029E+02 -0.15324527349E+03  0.17758438395E+03  0.00000000000E+00 0. -1.
         -5    1    5    5    0  502 -0.44459278157E+01  0.39661166577E+02  0.88192163446E+02  0.96916056986E+02  0.47000000000E+01 0.  1.
         13    1    6    6    0    0  0.38033697930E+02 -0.40552036786E+02  0.87987241981E+02  0.10408066399E+03  0.00000000000E+00 0. -1.
        -14    1    6    6    0    0  0.79027235777E+01 -0.62326336938E+02  0.59871267612E+01  0.63109991308E+02  0.00000000000E+00 0.  1.
</event>
<event>
12    1  0.1683022E-002  0.1806974E+03  0.7818608E-02  0.1167942E+00
         21   -1    0    0  501  502  0.00000000000E+00  0.00000000000E+00  0.13268964976E+04  0.13268964976E+04  0.00000000000E+00 0.  1.
         21   -1    0    0  502  503 -0.00000000000E+00 -0.00000000000E+00 -0.71107634716E+02  0.71107634716E+02  0.00000000000E+00 0.  1.
          6    2    1    2  501    0 -0.33448254759E+02 -0.26323333833E+02  0.11978825242E+04  0.12114347208E+04  0.17561274798E+03 0.  0.
         24    2    3    3    0    0 -0.88077341342E+02 -0.19382970547E+02  0.95100692609E+03  0.95844824547E+03  0.77945802743E+02 0.  0.
         -6    2    1    2    0  503  0.33448254759E+02  0.26323333833E+02  0.57906338640E+02  0.18656941150E+03  0.17217229046E+03 0.  0.
        -24    2    5    5    0    0 -0.13942332259E+00  0.50142489683E+02  0.93481935272E+02  0.13195075736E+03  0.78471914950E+02 0.  0.
          5    1    3    3  501    0  0.54629086583E+02 -0.69403632859E+01  0.24687559812E+03  0.25298647531E+03  0.47000000000E+01 0. -1.
        -13    1    4    4    0    0 -0.15969467214E+02 -0.40459043321E+02  0.30444654354E+03  0.30753805609E+03  0.00000000000E+00 0.  1.
         14    1    4    4    0    0 -0.72107874128E+02  0.21076072774E+02  0.64656038255E+03  0.65091018938E+03  0.00000000000E+00 0. -1.
         -5    1    5    5    0  503  0.33587678082E+02 -0.23819155850E+02 -0.35575596632E+02  0.54618654140E+02  0.47000000000E+01 0.  1.
         13    1    6    6    0    0 -0.29970583892E+02  0.54082069322E+02  0.52529967295E+02  0.81132629595E+02  0.00000000000E+00 0. -1.
        -14    1    6    6    0    0  0.29831160569E+02 -0.39395796389E+01  0.40951967977E+02  0.50818127768E+02  0.00000000000E+00 0.  1.
</event>
<event>
12    1  0.1683022E-002  0.2157108E+03  0.7818608E-02  0.1139714E+00
         21   -1    0    0  501  502  0.00000000000E+00  0.00000000000E+00  0.50964141149E+03  0.50964141149E+03  0.00000000000E+00 0. -1.
         21   -1    0    0  502  503 -0.00000000000E+00 -0.00000000000E+00 -0.87794239746E+02  0.87794239746E+02  0.00000000000E+00 0. -1.
          6    2    1    2  501    0  0.49752666200E+02  0.94897006351E+02  0.24905040629E+03  0.32104848110E+03  0.17194549350E+03 0.  0.
         24    2    3    3    0    0 -0.52316754013E+01  0.63447285828E+01  0.17739026400E+03  0.19447024556E+03  0.79270074034E+02 0.  0.
         -6    2    1    2    0  503 -0.49752666200E+02 -0.94897006351E+02  0.17279676545E+03  0.27638717014E+03  0.18721745661E+03 0.  0.
        -24    2    5    5    0    0 -0.68628510644E+02 -0.94755309531E+02  0.19923034311E+03  0.24356733453E+03  0.77096534802E+02 0.  0.
          5    1    3    3  501    0  0.54984341602E+02  0.88552277768E+02  0.71660142293E+02  0.12657823554E+03  0.47000000000E+01 0. -1.
        -11    1    4    4    0    0  0.31711329380E+02 -0.16271012294E+02  0.93371668442E+02  0.99943097410E+02  0.00000000000E+00 0.  1.
         12    1    4    4    0    0 -0.36943004782E+02  0.22615740877E+02  0.84018595558E+02  0.94527148149E+02  0.00000000000E+00 0. -1.
         -5    1    5    5    0  503  0.18875844444E+02 -0.14169682066E+00 -0.26433577657E+02  0.32819835606E+02  0.47000000000E+01 0.  1.
         13    1    6    6    0    0 -0.19365181341E+02 -0.84428587860E+02  0.99989412433E+02  0.13229164484E+03  0.00000000000E+00 0. -1.
        -14    1    6    6    0    0 -0.49263329304E+02 -0.10326721670E+02  0.99240930678E+02  0.11127568969E+03  0.00000000000E+00 0.  1.
</event>
<event>
12    1  0.1683022E-002  0.2172012E+03  0.7818608E-02  0.1136129E+00
         21   -1    0    0  501  502  0.00000000000E+00  0.00000000000E+00  0.33230466527E+03  0.33230466527E+03  0.00000000000E+00 0. -1.
         21   -1    0    0  502  503 -0.00000000000E+00 -0.00000000000E+00 -0.17214860924E+03  0.17214860924E+03  0.00000000000E+00 0.  1.
          6    2    1    2  501    0 -0.11817332496E+03 -0.62359283333E+02  0.18665013249E+03  0.28638196819E+03  0.17123885306E+03 0.  0.
         24    2    3    3    0    0 -0.12464583418E+03 -0.97849430612E+02  0.13316093964E+03  0.22169326994E+03  0.79403872968E+02 0.  0.
         -6    2    1    2    0  503  0.11817332496E+03  0.62359283333E+02 -0.26494076459E+02  0.21807130632E+03  0.17029252363E+03 0.  0.
        -24    2    5    5    0    0  0.66632283728E+02  0.64340313070E+01  0.45580605058E+02  0.11318583325E+03  0.79070748687E+02 0.  0.
          5    1    3    3  501    0  0.64725092218E+01  0.35490147278E+02  0.53489192851E+02  0.64688698250E+02  0.47000000000E+01 0. -1.
        -13    1    4    4    0    0 -0.31868208730E+02 -0.75052231027E+02  0.66172596880E+02  0.10501063131E+03  0.00000000000E+00 0.  1.
         14    1    4    4    0    0 -0.92777625447E+02 -0.22797199585E+02  0.66988342756E+02  0.11668263863E+03  0.00000000000E+00 0. -1.
         -5    1    5    5    0  503  0.51541041227E+02  0.55925252026E+02 -0.72074681517E+02  0.10488547307E+03  0.47000000000E+01 0.  1.
         11    1    6    6    0    0 -0.16610723516E+02  0.74099711199E+01 -0.17923481436E+00  0.18189445644E+02  0.00000000000E+00 0. -1.
        -12    1    6    6    0    0  0.83243007243E+02 -0.97593981299E+00  0.45759839872E+02  0.94996387608E+02  0.00000000000E+00 0.  1.
</event>
<event>
12    1  0.1683022E-002  0.2010077E+03  0.7818608E-02  0.1149329E+00
         21   -1    0    0  503  502  0.00000000000E+00  0.00000000000E+00  0.74165307893E+02  0.74165307893E+02  0.00000000000E+00 0.  1.
         21   -1    0    0  501  503 -0.00000000000E+00 -0.00000000000E+00 -0.87058615630E+03  0.87058615630E+03  0.00000000000E+00 0.  1.
          6    2    1    2  501    0  0.10013072228E+03  0.27579907932E+00 -0.69094282559E+03  0.71958744377E+03  0.17429246510E+03 0.  0.
         24    2    3    3    0    0  0.13665845900E+02  0.38717126670E+02 -0.47057268256E+03  0.47971455982E+03  0.83675791557E+02 0.  0.
         -6    2    1    2    0  502 -0.10013072228E+03 -0.27579907932E+00 -0.10547802282E+03  0.22516402042E+03  0.17189236512E+03 0.  0.
        -24    2    5    5    0    0 -0.38916488266E+02 -0.16223646351E+02  0.18289073240E+02  0.86088859643E+02  0.72794929733E+02 0.  0.
          5    1    3    3  501    0  0.86464876385E+02 -0.38441327591E+02 -0.22037014303E+03  0.23987288395E+03  0.47000000000E+01 0. -1.
        -11    1    4    4    0    0  0.10560084693E+02  0.41890497414E+02 -0.47278431778E+03  0.47475397871E+03  0.00000000000E+00 0.  1.
         12    1    4    4    0    0  0.31057612062E+01 -0.31733707434E+01  0.22116352261E+01  0.49605811070E+01  0.00000000000E+00 0. -1.
         -5    1    5    5    0  502 -0.61214234018E+02  0.15947847272E+02 -0.12376709606E+03  0.13907516078E+03  0.47000000000E+01 0.  1.
         11    1    6    6    0    0  0.16655098503E+02 -0.17096196741E+02 -0.72200610642E+01  0.24935948566E+02  0.00000000000E+00 0. -1.
        -12    1    6    6    0    0 -0.55571586769E+02  0.87255038999E+00  0.25509134304E+02  0.61152911077E+02  0.00000000000E+00 0.  1.
</event>
<event>
12    1  0.1683022E-002  0.2448720E+03  0.7818608E-02  0.1116837E+00
         21   -1    0    0  503  502  0.00000000000E+00  0.00000000000E+00  0.31983050853E+02  0.31983050853E+02  0.00000000000E+00 0.  1.
         21   -1    0    0  501  503 -0.00000000000E+00 -0.00000000000E+00 -0.18810047423E+04  0.18810047423E+04  0.00000000000E+00 0. -1.
          6    2    1    2  501    0 -0.72326596598E+02  0.15768929192E+03 -0.83423812951E+03  0.86943404052E+03  0.17281563793E+03 0.  0.
         24    2    3    3    0    0 -0.22477110434E+02  0.62364543396E+01 -0.34379133589E+03  0.35369856505E+03  0.79787708497E+02 0.  0.
         -6    2    1    2    0  502  0.72326596598E+02 -0.15768929192E+03 -0.10147835619E+04  0.10435537526E+04  0.17065083566E+03 0.  0.
        -24    2    5    5    0    0  0.12412872026E+02 -0.10824076029E+02 -0.43113268909E+03  0.43871536315E+03  0.79526940372E+02 0.  0.
          5    1    3    3  501    0 -0.49849486164E+02  0.15145283758E+03 -0.49044679362E+03  0.51573547547E+03  0.47000000000E+01 0. -1.
        -13    1    4    4    0    0  0.45595623002E+01 -0.26844677152E+02 -0.23879777751E+03  0.24034517853E+03  0.00000000000E+00 0.  1.
         14    1    4    4    0    0 -0.27036672734E+02  0.33081131492E+02 -0.10499355839E+03  0.11335338652E+03  0.00000000000E+00 0. -1.
         -5    1    5    5    0  502  0.59913724573E+02 -0.14686521589E+03 -0.58365087284E+03  0.60483838949E+03  0.47000000000E+01 0.  1.
         11    1    6    6    0    0  0.89337769399E+01  0.29937474560E+02 -0.92789237055E+02  0.97907646620E+02  0.00000000000E+00 0. -1.
        -12    1    6    6    0    0  0.34790950857E+01 -0.40761550588E+02 -0.33834345204E+03  0.34080771653E+03  0.00000000000E+00 0.  1.
</event>
<event>
12    1  0.1683022E-002  0.1760982E+03  0.7818608E-02  0.1171716E+00
         21   -1    0    0  503  502  0.00000000000E+00  0.00000000000E+00  0.75270988662E+02  0.75270988662E+02  0.00000000000E+00 0. -1.
         21   -1    0    0  501  503 -0.00000000000E+00 -0.00000000000E+00 -0.41212556674E+03  0.41212556674E+03  0.00000000000E+00 0. -1.
          6    2    1    2  501    0 -0.32516425190E+02  0.58419019107E+01 -0.18004407579E+03  0.25184609315E+03  0.17297149963E+03 0.  0.
         24    2    3    3    0    0 -0.20228224499E+02  0.57590077950E+02 -0.49466907340E+02  0.11077391120E+03  0.78090244823E+02 0.  0.
         -6    2    1    2    0  502  0.32516425190E+02 -0.58419019107E+01 -0.15681050229E+03  0.23555046225E+03  0.17263557256E+03 0.  0.
        -24    2    5    5    0    0  0.69472912557E+02 -0.52844754770E+02 -0.10815383750E+03  0.15831956711E+03  0.75820703498E+02 0.  0.
          5    1    3    3  501    0 -0.12288200690E+02 -0.51748176039E+02 -0.13057716845E+03  0.14107218195E+03  0.47000000000E+01 0. -1.
        -11    1    4    4    0    0 -0.13867049298E+02 -0.17618833246E+02 -0.43484516584E+01  0.22839163142E+02  0.00000000000E+00 0.  1.
         12    1    4    4    0    0 -0.63611752007E+01  0.75208911196E+02 -0.45118455681E+02  0.87934748060E+02  0.00000000000E+00 0. -1.
         -5    1    5    5    0  502 -0.36956487367E+02  0.47002852859E+02 -0.48656664789E+02  0.77230895138E+02  0.47000000000E+01 0.  1.
         11    1    6    6    0    0  0.31381743022E+02  0.12334121074E+01  0.15855151978E+00  0.31406372588E+02  0.00000000000E+00 0. -1.
        -12    1    6    6    0    0  0.38091169535E+02 -0.54078166877E+02 -0.10831238902E+03  0.12691319453E+03  0.00000000000E+00 0.  1.
</event>
<event>
12    1  0.1683022E-002  0.2327739E+03  0.7818608E-02  0.1125775E+00
         21   -1    0    0  503  502  0.00000000000E+00  0.00000000000E+00  0.21639975855E+03  0.21639975855E+03  0.00000000000E+00 0.  1.
         21   -1    0    0  501  503 -0.00000000000E+00 -0.00000000000E+00 -0.25864072183E+03  0.25864072183E+03  0.00000000000E+00 0.  1.
          6    2    1    2  501    0 -0.13969576845E+03 -0.69659526668E+02 -0.77622577706E+02  0.23959294028E+03  0.16435374983E+03 0.  0.
         24    2    3    3    0    0 -0.13102088264E+03 -0.10731067954E+03 -0.70589098313E+02  0.20004015544E+03  0.79694349585E+02 0.  0.
         -6    2    1    2    0  502  0.13969576845E+03  0.69659526668E+02  0.35381614418E+02  0.23544754010E+03  0.17267405168E+03 0.  0.
        -24    2    5    5    0    0  0.13158106826E+03  0.11067019057E+03  0.17995939973E+02  0.18992749409E+03  0.78658315201E+02 0.  0.
          5    1    3    3  501    0 -0.86748858097E+01  0.37651152872E+02 -0.70334793934E+01  0.39552784842E+02  0.47000000000E+01 0. -1.
        -13    1    4    4    0    0 -0.53625672798E+02  0.91877715146E+00 -0.13853559378E+02  0.55393844802E+02  0.00000000000E+00 0.  1.
         14    1    4    4    0    0 -0.77395209838E+02 -0.10822945669E+03 -0.56735538935E+02  0.14464631063E+03  0.00000000000E+00 0. -1.
         -5    1    5    5    0  502  0.81147001887E+01 -0.41010663906E+02  0.17385674445E+02  0.45520046013E+02  0.47000000000E+01 0.  1.
         11    1    6    6    0    0  0.34430897043E+01 -0.48550267004E+01 -0.13313119608E+02  0.14583048538E+02  0.00000000000E+00 0. -1.
        -12    1    6    6    0    0  0.12813797855E+03  0.11552521727E+03  0.31309059581E+02  0.17534444555E+03  0.00000000000E+00 0.  1.
</event>
<event>
12    1  0.1683022E-002  0.1772680E+03  0.7818608E-02  0.1170766E+00
         21   -1    0    0  503  502  0.00000000000E+00  0.00000000000E+00  0.26333903776E+03  0.26333903776E+03  0.00000000000E+00 0. -1.
         21   -1    0    0  501  503 -0.00000000000E+00 -0.00000000000E+00 -0.12100371849E+03  0.12100371849E+03  0.00000000000E+00 0. -1.
          6    2    1    2  501    0  0.19151010796E+00 -0.38130823931E+02  0.43949592157E+02  0.18263490875E+03  0.17311830300E+03 0.  0.
         24    2    3    3    0    0 -0.19667265631E+02  0.35906671680E+02 -0.81180856538E+01  0.89849916411E+02  0.79567667779E+02 0.  0.
         -6    2    1    2    0  502 -0.19151010796E+00  0.38130823931E+02  0.98385727120E+02  0.20170784750E+03  0.17190784750E+03 0.  0.
        -24    2    5    5    0    0  0.10936850852E+02 -0.43168755063E+02  0.53194431690E+02  0.10791123165E+03  0.82656096166E+02 0.  0.
          5    1    3    3  501    0  0.19858775739E+02 -0.74037495611E+02  0.52067677811E+02  0.92784992336E+02  0.47000000000E+01 0. -1.
        -11    1    4    4    0    0  0.20544331071E+02  0.43647700312E+02 -0.80001026752E+01  0.48899825403E+02  0.00000000000E+00 0.  1.
         12    1    4    4    0    0 -0.40211596701E+02 -0.77410286318E+01 -0.11798297859E+00  0.40950091008E+02  0.00000000000E+00 0. -1.
         -5    1    5    5    0  502 -0.11128360959E+02  0.81299578994E+02  0.45191295430E+02  0.93796615850E+02  0.47000000000E+01 0.  1.
         11    1    6    6    0    0 -0.37697100921E+01  0.16997796877E+02 -0.94557098289E+01  0.19812780249E+02  0.00000000000E+00 0. -1.
        -12    1    6    6    0    0  0.14706560944E+02 -0.60166551940E+02  0.62650141519E+02  0.88098451402E+02  0.00000000000E+00 0.  1.
</event>
<event>
12    1  0.1683022E-002  0.2333811E+03  0.7818608E-02  0.1124727E+00
         21   -1    0    0  501  502  0.00000000000E+00  0.00000000000E+00  0.81269983675E+02  0.81269983675E+02  0.00000000000E+00 0.  1.
         21   -1    0    0  502  503 -0.00000000000E+00 -0.00000000000E+00 -0.10483916038E+04  0.10483916038E+04  0.00000000000E+00 0. -1.
          6    2    1    2  501    0 -0.48974276093E+02 -0.14744326739E+03 -0.14273265557E+03  0.27356779908E+03  0.17415146543E+03 0.  0.
         24    2    3    3    0    0 -0.97768760760E+02 -0.77560995914E+02 -0.82798836866E+02  0.16926733779E+03  0.78875506907E+02 0.  0.
         -6    2    1    2    0  503  0.48974276093E+02  0.14744326739E+03 -0.82438896456E+03  0.85609378840E+03  0.17070856110E+03 0.  0.
        -24    2    5    5    0    0  0.24251370631E+02  0.17399224465E+03 -0.72366586813E+03  0.74893361669E+03  0.79673353931E+02 0.  0.
          5    1    3    3  501    0  0.48794484667E+02 -0.69882271473E+02 -0.59933818706E+02  0.10430046129E+03  0.47000000000E+01 0. -1.
        -11    1    4    4    0    0 -0.45248256788E+02 -0.71370346470E+02 -0.19392735054E+02  0.86701841217E+02  0.00000000000E+00 0.  1.
         12    1    4    4    0    0 -0.52520503972E+02 -0.61906494444E+01 -0.63406101812E+02  0.82565496577E+02  0.00000000000E+00 0. -1.
         -5    1    5    5    0  503  0.24722905462E+02 -0.26548977259E+02 -0.10072309642E+03  0.10716017171E+03  0.47000000000E+01 0.  1.
         13    1    6    6    0    0  0.32256689530E+02  0.15124712117E+03 -0.48515058657E+03  0.50920258968E+03  0.00000000000E+00 0. -1.
        -14    1    6    6    0    0 -0.80053188991E+01  0.22745123473E+02 -0.23851528156E+03  0.23973102701E+03  0.00000000000E+00 0.  1.
</event>
<event>
12    1  0.1683022E-002  0.1787556E+03  0.7818608E-02  0.1169912E+00
         21   -1    0    0  501  502  0.00000000000E+00  0.00000000000E+00  0.33520391596E+03  0.33520391596E+03  0.00000000000E+00 0.  1.
         21   -1    0    0  502  503 -0.00000000000E+00 -0.00000000000E+00 -0.12959172204E+03  0.12959172204E+03  0.00000000000E+00 0.  1.
          6    2    1    2  501    0 -0.45381793181E+02  0.98391419376E+01  0.22638769245E+03  0.28845266835E+03  0.17261876699E+03 0.  0.
         24    2    3    3    0    0  0.17233798539E+02 -0.27588945536E+01  0.20552107948E+03  0.22109594347E+03  0.79623406085E+02 0.  0.
         -6    2    1    2    0  503  0.45381793181E+02 -0.98391419376E+01 -0.20775498540E+02  0.17634296965E+03  0.16884580462E+03 0.  0.
        -24    2    5    5    0    0  0.84751014172E+02 -0.40088323015E+02 -0.26037591099E+02  0.12619590458E+03  0.80359455799E+02 0.  0.
          5    1    3    3  501    0 -0.62615591720E+02  0.12598036491E+02  0.20866612973E+02  0.67356724882E+02  0.47000000000E+01 0. -1.
        -13    1    4    4    0    0 -0.17381258598E+02  0.20428323289E+02  0.28090722715E+02  0.38839583488E+02  0.00000000000E+00 0.  1.
         14    1    4    4    0    0  0.34615057137E+02 -0.23187217843E+02  0.17743035676E+03  0.18225635998E+03  0.00000000000E+00 0. -1.
         -5    1    5    5    0  503 -0.39369220991E+02  0.30249181078E+02  0.52620925593E+01  0.50147065073E+02  0.47000000000E+01 0.  1.
         11    1    6    6    0    0  0.54180229863E+02  0.10519763866E+02  0.11206589261E+02  0.56318295275E+02  0.00000000000E+00 0. -1.
        -12    1    6    6    0    0  0.30570784309E+02 -0.50608086882E+02 -0.37244180360E+02  0.69877609302E+02  0.00000000000E+00 0.  1.
</event>
<event>
12    1  0.1683022E-002  0.1982757E+03  0.7818608E-02  0.1151545E+00
         21   -1    0    0  501  502  0.00000000000E+00  0.00000000000E+00  0.30764861457E+02  0.30764861457E+02  0.00000000000E+00 0. -1.
         21   -1    0    0  502  503 -0.00000000000E+00 -0.00000000000E+00 -0.13950141123E+04  0.13950141123E+04  0.00000000000E+00 0.  1.
          6    2    1    2  501    0 -0.84573033966E+02 -0.46766776001E+02 -0.46414273796E+03  0.50409302084E+03  0.17129379163E+03 0.  0.
         24    2    3    3    0    0 -0.97889794948E+01 -0.22192749611E+02 -0.96353878022E+02  0.12794508044E+03  0.80607267313E+02 0.  0.
         -6    2    1    2    0  503  0.84573033966E+02  0.46766776001E+02 -0.90010651293E+03  0.92168595296E+03  0.17312865694E+03 0.  0.
        -24    2    5    5    0    0  0.40630897310E+02  0.95917077537E+02 -0.65417644685E+03  0.66702863240E+03  0.78290594860E+02 0.  0.
          5    1    3    3  501    0 -0.74784054471E+02 -0.24574026390E+02 -0.36778885994E+03  0.37614794040E+03  0.47000000000E+01 0. -1.
        -13    1    4    4    0    0  0.33520867128E+00  0.25692827309E+02 -0.79501049192E+01  0.26896801078E+02  0.00000000000E+00 0.  1.
         14    1    4    4    0    0 -0.10124188166E+02 -0.47885576920E+02 -0.88403773103E+02  0.10104827936E+03  0.00000000000E+00 0. -1.
         -5    1    5    5    0  503  0.43942136656E+02 -0.49150301536E+02 -0.24593006607E+03  0.25465732056E+03  0.47000000000E+01 0.  1.
         13    1    6    6    0    0  0.80215850007E+01 -0.13008820630E+02 -0.51482653653E+02  0.53703248200E+02  0.00000000000E+00 0. -1.
        -14    1    6    6    0    0  0.32609312309E+02  0.10892589817E+03 -0.60269379320E+03  0.61332538420E+03  0.00000000000E+00 0.  1.
</event>
<event>
12    1  0.1683022E-002  0.2309845E+03  0.7818608E-02  0.1125991E+00
         21   -1    0    0  503  502  0.00000000000E+00  0.00000000000E+00  0.17974607588E+03  0.17974607588E+03  0.00000000000E+00 0. -1.
         21   -1    0    0  501  503 -0.00000000000E+00 -0.00000000000E+00 -0.30409977019E+03  0.30409977019E+03  0.00000000000E+00 0. -1.
          6    2    1    2  501    0  0.15021624790E+03  0.38128399506E+02 -0.24004846743E+02  0.23222852606E+03  0.17127509938E+03 0.  0.
         24    2    3    3    0    0  0.48547000287E+02  0.29721720633E+02  0.44308648804E+02  0.10936220914E+03  0.82198810911E+02 0.  0.
         -6    2    1    2    0  502 -0.15021624790E+03 -0.38128399506E+02 -0.10034884756E+03  0.25161732001E+03  0.17094644934E+03 0.  0.
        -24    2    5    5    0    0 -0.10396950571E+02 -0.33415387433E+02 -0.14419117957E+02  0.87368554968E+02  0.78744325104E+02 0.  0.
          5    1    3    3  501    0  0.10166924761E+03  0.84066788733E+01 -0.68313495547E+02  0.12286631692E+03  0.47000000000E+01 0. -1.
        -11    1    4    4    0    0 -0.13538973166E+02 -0.16402133817E+02  0.17374135502E+02  0.27462599523E+02  0.00000000000E+00 0.  1.
         12    1    4    4    0    0  0.62085973452E+02  0.46123854450E+02  0.26934513302E+02  0.81899609618E+02  0.00000000000E+00 0. -1.
         -5    1    5    5    0  502 -0.13981929733E+03 -0.47130120729E+01 -0.85929729607E+02  0.16424876504E+03  0.47000000000E+01 0.  1.
         11    1    6    6    0    0 -0.26656487811E+02 -0.43505008531E+02 -0.32945220377E+02  0.60734188521E+02  0.00000000000E+00 0. -1.
        -12    1    6    6    0    0  0.16259537239E+02  0.10089621097E+02  0.18526102421E+02  0.26634366447E+02  0.00000000000E+00 0.  1.
</event>
<event>
12    1  0.1683022E-002  0.1995941E+03  0.7818608E-02  0.1150223E+00
         21   -1    0    0  501  502  0.00000000000E+00  0.00000000000E+00  0.14621612588E+03  0.14621612588E+03  0.00000000000E+00 0.  1.
         21   -1    0    0  502  503 -0.00000000000E+00 -0.00000000000E+00 -0.31088440336E+03  0.31088440336E+03  0.00000000000E+00 0.  1.
          6    2    1    2  501    0  0.97019513454E+02  0.25694759612E+02 -0.11612504099E+01  0.19959744020E+03  0.17252473147E+03 0.  0.
         24    2    3    3    0    0  0.28554022843E+02  0.53454816854E+02  0.38759911149E+02  0.11549076197E+03  0.90349519767E+02 0.  0.
         -6    2    1    2    0  503 -0.97019513454E+02 -0.25694759612E+02 -0.16350702707E+03  0.25750308904E+03  0.17175647383E+03 0.  0.
        -24    2    5    5    0    0  0.11321417409E+02 -0.10784130009E+02 -0.25419455048E+02  0.81291989157E+02  0.75615916671E+02 0.  0.
          5    1    3    3  501    0  0.68465490612E+02 -0.27760057242E+02 -0.39921161559E+02  0.84106678231E+02  0.47000000000E+01 0. -1.
        -11    1    4    4    0    0  0.47804270066E+02 -0.23203532226E+01  0.66636052216E+01  0.48322209285E+02  0.00000000000E+00 0.  1.
         12    1    4    4    0    0 -0.19250247224E+02  0.55775170077E+02  0.32096305927E+02  0.67168552682E+02  0.00000000000E+00 0. -1.
         -5    1    5    5    0  503 -0.10834093086E+03 -0.14910629603E+02 -0.13808757203E+03  0.17621109989E+03  0.47000000000E+01 0.  1.
         13    1    6    6    0    0  0.28524007897E+02 -0.33347336451E+02 -0.10576484346E+01  0.43895130654E+02  0.00000000000E+00 0. -1.
        -14    1    6    6    0    0 -0.17202590488E+02  0.22563206442E+02 -0.24361806613E+02  0.37396858503E+02  0.00000000000E+00 0.  1.
</event>
<event>
12    1  0.1683022E-002  0.3227364E+03  0.7818608E-02  0.1074571E+00
         21   -1    0    0  503  502  0.00000000000E+00  0.00000000000E+00  0.75426876222E+03  0.75426876222E+03  0.00000000000E+00 0. -1.
         21   -1    0    0  501  503 -0.00000000000E+00 -0.00000000000E+00 -0.15262033137E+03  0.15262033137E+03  0.00000000000E+00 0.  1.
          6    2    1    2  501    0  0.30946483072E+02  0.26974859000E+03  0.15718217828E+03  0.35760861994E+03  0.17162663334E+03 0.  0.
         24    2    3    3    0    0  0.66029557471E+02  0.25398549256E+03  0.10763947443E+03  0.29471293762E+03  0.80005788889E+02 0.  0.
         -6    2    1    2    0  502 -0.30946483072E+02 -0.26974859000E+03  0.44446625258E+03  0.54928047365E+03  0.17446146403E+03 0.  0.
        -24    2    5    5    0    0  0.44192784146E+02 -0.19315083218E+03  0.32292135181E+03  0.38708189510E+03  0.79334405632E+02 0.  0.
          5    1    3    3  501    0 -0.35083074399E+02  0.15763097436E+02  0.49542703851E+02  0.62895682323E+02  0.47000000000E+01 0. -1.
        -11    1    4    4    0    0 -0.34514014299E+01  0.14501460218E+03  0.53847870351E+02  0.15472795532E+03  0.00000000000E+00 0.  1.
         12    1    4    4    0    0  0.69480958901E+02  0.10897089038E+03  0.53791604075E+02  0.13998498230E+03  0.00000000000E+00 0. -1.
         -5    1    5    5    0  502 -0.75139267218E+02 -0.76597757819E+02  0.12154490077E+03  0.16219857855E+03  0.47000000000E+01 0.  1.
         11    1    6    6    0    0  0.27152101750E+02 -0.16883414975E+03  0.31133831912E+03  0.35520945329E+03  0.00000000000E+00 0. -1.
        -12    1    6    6    0    0  0.17040682395E+02 -0.24316682430E+02  0.11583032691E+02  0.31872441814E+02  0.00000000000E+00 0.  1.
</event>
<event>
12    1  0.1683022E-002  0.1851221E+03  0.7818608E-02  0.1164153E+00
         21   -1    0    0  501  502  0.00000000000E+00  0.00000000000E+00  0.51497622521E+03  0.51497622521E+03  0.00000000000E+00 0.  1.
         21   -1    0    0  502  503 -0.00000000000E+00 -0.00000000000E+00 -0.67429546770E+02  0.67429546770E+02  0.00000000000E+00 0.  1.
          6    2    1    2  501    0  0.50902735796E+01 -0.56295098363E+02  0.16229623639E+03  0.24234990399E+03  0.17087527215E+03 0.  0.
         24    2    3    3    0    0 -0.28694367267E+02 -0.63858184214E+02  0.17522495028E+03  0.20509612743E+03  0.80370416711E+02 0.  0.
         -6    2    1    2    0  503 -0.50902735796E+01  0.56295098363E+02  0.28525044205E+03  0.34005586799E+03  0.17628139347E+03 0.  0.
        -24    2    5    5    0    0 -0.44118078326E+02  0.72844792517E+02  0.27275233695E+03  0.29561090708E+03  0.75757523963E+02 0.  0.
          5    1    3    3  501    0  0.33784640846E+02  0.75630858509E+01 -0.12928713890E+02  0.37253776554E+02  0.47000000000E+01 0. -1.
        -11    1    4    4    0    0  0.20294996820E+02 -0.89972274742E+01  0.10217044448E+02  0.24438187237E+02  0.00000000000E+00 0.  1.
         12    1    4    4    0    0 -0.48989364087E+02 -0.54860956739E+02  0.16500790584E+03  0.18065794020E+03  0.00000000000E+00 0. -1.
         -5    1    5    5    0  503  0.39027804747E+02 -0.16549694155E+02  0.12498105096E+02  0.44444960917E+02  0.47000000000E+01 0.  1.
         11    1    6    6    0    0 -0.35153175306E+01  0.66119582929E+02  0.11621600965E+03  0.13375469189E+03  0.00000000000E+00 0. -1.
        -12    1    6    6    0    0 -0.40602760796E+02  0.67252095884E+01  0.15653632731E+03  0.16185621519E+03  0.00000000000E+00 0.  1.
</event>
<event>
12    1  0.1683022E-002  0.1975592E+03  0.7818608E-02  0.1152674E+00
         21   -1    0    0  501  502  0.00000000000E+00  0.00000000000E+00  0.37681443015E+03  0.37681443015E+03  0.00000000000E+00 0. -1.
         21   -1    0    0  502  503 -0.00000000000E+00 -0.00000000000E+00 -0.10224164763E+03  0.10224164763E+03  0.00000000000E+00 0. -1.
          6    2    1    2  501    0  0.97637689114E+02 -0.12991974043E+02  0.11839834710E+03  0.23032108585E+03  0.17125339198E+03 0.  0.
         24    2    3    3    0    0  0.15548600629E+02  0.28519671564E+02  0.10954716609E+03  0.13778855873E+03  0.77006328764E+02 0.  0.
         -6    2    1    2    0  503 -0.97637689114E+02  0.12991974043E+02  0.15617443542E+03  0.24873499193E+03  0.16666352993E+03 0.  0.
        -24    2    5    5    0    0 -0.25010890517E+02 -0.43034321548E+01  0.95368344516E+01  0.84118896222E+02  0.79630228666E+02 0.  0.
          5    1    3    3  501    0  0.82089088484E+02 -0.41511645607E+02  0.88511810099E+01  0.92532527116E+02  0.47000000000E+01 0. -1.
        -11    1    4    4    0    0 -0.26230244775E+02  0.44768199373E+01  0.12435865393E+02  0.29372068463E+02  0.00000000000E+00 0.  1.
         12    1    4    4    0    0  0.41778845405E+02  0.24042851627E+02  0.97111300702E+02  0.10841649027E+03  0.00000000000E+00 0. -1.
         -5    1    5    5    0  503 -0.72626798597E+02  0.17295406198E+02  0.14663760097E+03  0.16461609571E+03  0.47000000000E+01 0.  1.
         11    1    6    6    0    0 -0.11572937216E+02 -0.16040886607E+02  0.42365157248E+02  0.46755207920E+02  0.00000000000E+00 0. -1.
        -12    1    6    6    0    0 -0.13437953301E+02  0.11737454452E+02 -0.32828322797E+02  0.37363688302E+02  0.00000000000E+00 0.  1.
</event>
<event>
12    1  0.1683022E-002  0.3196755E+03  0.7818608E-02  0.1075833E+00
         21   -1    0    0  501  502  0.00000000000E+00  0.00000000000E+00  0.67648028768E+03  0.67648028768E+03  0.00000000000E+00 0. -1.
         21   -1    0    0  502  503 -0.00000000000E+00 -0.00000000000E+00 -0.21573574340E+03  0.21573574340E+03  0.00000000000E+00 0.  1.
          6    2    1    2  501    0  0.10960719736E+03  0.24564907289E+03  0.47496218870E+03  0.57252203798E+03  0.17272868483E+03 0.  0.
         24    2    3    3    0    0  0.92327013072E+01  0.70082904410E+02  0.96992851562E+02  0.14382467528E+03  0.79253187333E+02 0.  0.
         -6    2    1    2    0  503 -0.10960719736E+03 -0.24564907289E+03 -0.14217644413E+02  0.31969399310E+03  0.17217695284E+03 0.  0.
        -24    2    5    5    0    0 -0.89092979535E+02 -0.25516599868E+03 -0.39220442742E+02  0.28565526613E+03  0.83746295768E+02 0.  0.
          5    1    3    3  501    0  0.10037449605E+03  0.17556616848E+03  0.37796933713E+03  0.42869736270E+03  0.47000000000E+01 0. -1.
        -11    1    4    4    0    0  0.16975161097E+01  0.83516085941E+02  0.57433558127E+02  0.10137273682E+03  0.00000000000E+00 0.  1.
         12    1    4    4    0    0  0.75351851975E+01 -0.13433181531E+02  0.39559293435E+02  0.42451938461E+02  0.00000000000E+00 0. -1.
         -5    1    5    5    0  503 -0.20514217825E+02  0.95169257904E+01  0.25002798329E+02  0.34038726970E+02  0.47000000000E+01 0.  1.
         11    1    6    6    0    0 -0.78066652156E+02 -0.14909694536E+03  0.91725504270E+01  0.16854802573E+03  0.00000000000E+00 0. -1.
        -12    1    6    6    0    0 -0.11026327379E+02 -0.10606905332E+03 -0.48392993169E+02  0.11710724040E+03  0.00000000000E+00 0.  1.
</event>
<event>
12    1  0.1683022E-002  0.1815249E+03  0.7818608E-02  0.1166597E+00
         21   -1    0    0  503  502  0.00000000000E+00  0.00000000000E+00  0.51243501189E+02  0.51243501189E+02  0.00000000000E+00 0. -1.
         21   -1    0    0  501  503 -0.00000000000E+00 -0.00000000000E+00 -0.71929931695E+03  0.71929931695E+03  0.00000000000E+00 0.  1.
          6    2    1    2  501    0  0.47580807987E+02 -0.30056715618E+02 -0.46171991137E+03  0.49572328347E+03  0.17143207920E+03 0.  0.
         24    2    3    3    0    0  0.50485500440E+02 -0.83168437531E+02 -0.32276093044E+03  0.34685763726E+03  0.81669012166E+02 0.  0.
         -6    2    1    2    0  502 -0.47580807987E+02  0.30056715618E+02 -0.20633590439E+03  0.27481953466E+03  0.17258021830E+03 0.  0.
        -24    2    5    5    0    0 -0.69278738179E+02  0.83011102746E+02 -0.15764798151E+03  0.19953626212E+03  0.57196565312E+02 0.  0.
          5    1    3    3  501    0 -0.29046924532E+01  0.53111721913E+02 -0.13895898093E+03  0.14886564622E+03  0.47000000000E+01 0. -1.
        -13    1    4    4    0    0  0.27398369955E+02  0.17205465975E+01 -0.15517704371E+03  0.15758662967E+03  0.00000000000E+00 0.  1.
         14    1    4    4    0    0  0.23087130485E+02 -0.84888984128E+02 -0.16758388673E+03  0.18927100759E+03  0.00000000000E+00 0. -1.
         -5    1    5    5    0  502  0.21697930192E+02 -0.52954387127E+02 -0.48687922877E+02  0.75283272542E+02  0.47000000000E+01 0.  1.
         13    1    6    6    0    0 -0.33745054240E+02  0.34882981701E+02 -0.26290576225E+02  0.55197332329E+02  0.00000000000E+00 0. -1.
        -14    1    6    6    0    0 -0.35533683939E+02  0.48128121044E+02 -0.13135740529E+03  0.14433892979E+03  0.00000000000E+00 0.  1.
</event>
<event>
12    1  0.1683022E-002  0.1890489E+03  0.7818608E-02  0.1159447E+00
         21   -1    0    0  503  502  0.00000000000E+00  0.00000000000E+00  0.26663113390E+03  0.26663113390E+03  0.00000000000E+00 0. -1.
         21   -1    0    0  501  503 -0.00000000000E+00 -0.00000000000E+00 -0.17790283935E+03  0.17790283935E+03  0.00000000000E+00 0. -1.
          6    2    1    2  501    0  0.11771488071E+02  0.76267681381E+02  0.15526570327E+03  0.24463631054E+03  0.17258087574E+03 0.  0.
         24    2    3    3    0    0  0.32364477361E+02  0.77134309473E+02  0.17875965912E+03  0.21303127592E+03  0.80188201723E+02 0.  0.
         -6    2    1    2    0  502 -0.11771488071E+02 -0.76267681381E+02 -0.66537408720E+02  0.19989766271E+03  0.17197825921E+03 0.  0.
        -24    2    5    5    0    0 -0.58266682235E+02 -0.78406725780E+02 -0.94900258297E+01  0.12612183681E+03  0.79208814062E+02 0.  0.
          5    1    3    3  501    0 -0.20592989291E+02 -0.86662809240E+00 -0.23493955854E+02  0.31605034628E+02  0.47000000000E+01 0. -1.
        -11    1    4    4    0    0  0.12109764596E+02 -0.51465985628E+01 -0.20815147423E+01  0.13321658266E+02  0.00000000000E+00 0.  1.
         12    1    4    4    0    0  0.20254712765E+02  0.82280908036E+02  0.18084117387E+03  0.19970961765E+03  0.00000000000E+00 0. -1.
         -5    1    5    5    0  502  0.46495194165E+02  0.21390443986E+01 -0.57047382890E+02  0.73775825891E+02  0.47000000000E+01 0.  1.
         11    1    6    6    0    0 -0.40210080467E+02 -0.49998447865E+01  0.19740108656E+02  0.45072396307E+02  0.00000000000E+00 0. -1.
        -12    1    6    6    0    0 -0.18056601768E+02 -0.73406880993E+02 -0.29230134486E+02  0.81049440508E+02  0.00000000000E+00 0.  1.
</event>
<event>
12    1  0.1683022E-002  0.2282759E+03  0.7818608E-02  0.1127964E+00
         21   -1    0    0  501  502  0.00000000000E+00  0.00000000000E+00  0.12143930880E+03  0.12143930880E+03  0.00000000000E+00 0. -1.
         21   -1    0    0  502  503 -0.00000000000E+00 -0.00000000000E+00 -0.53746528455E+03  0.53746528455E+03  0.00000000000E+00 0. -1.
          6    2    1    2  501    0 -0.54058386430E+02 -0.14081277282E+03 -0.59540827977E+02  0.23591310779E+03  0.17134566846E+03 0.  0.
         24    2    3    3    0    0 -0.94630071610E+02 -0.87799469556E+02 -0.71424547015E+02  0.16794410942E+03  0.80250611625E+02 0.  0.
         -6    2    1    2    0  503  0.54058386430E+02  0.14081277282E+03 -0.35648514778E+03  0.42299148556E+03  0.17055670650E+03 0.  0.
        -24    2    5    5    0    0  0.66249283561E+02  0.42445680446E+02 -0.26408729087E+03  0.28740329729E+03  0.81657545478E+02 0.  0.
          5    1    3    3  501    0  0.40571685181E+02 -0.53013303265E+02  0.11883719038E+02  0.67968998372E+02  0.47000000000E+01 0. -1.
        -13    1    4    4    0    0 -0.55183760332E+02 -0.81749905438E+02 -0.80152489823E+02  0.12709333605E+03  0.00000000000E+00 0.  1.
         14    1    4    4    0    0 -0.39446311278E+02 -0.60495641176E+01  0.87279428077E+01  0.40850773372E+02  0.00000000000E+00 0. -1.
         -5    1    5    5    0  503 -0.12190897131E+02  0.98367092375E+02 -0.92397856908E+02  0.13558818826E+03  0.47000000000E+01 0.  1.
         13    1    6    6    0    0  0.10141201371E+02  0.45312366041E+02 -0.18270044252E+03  0.18850863688E+03  0.00000000000E+00 0. -1.
        -14    1    6    6    0    0  0.56108082189E+02 -0.28666855941E+01 -0.81386848350E+02  0.98894660410E+02  0.00000000000E+00 0.  1.
</event>
<event>
12    1  0.1683022E-002  0.2198288E+03  0.7818608E-02  0.1134393E+00
         21   -1    0    0  503  502  0.00000000000E+00  0.00000000000E+00  0.10314054226E+04  0.10314054226E+04  0.00000000000E+00 0. -1.
         21   -1    0    0  501  503 -0.00000000000E+00 -0.00000000000E+00 -0.49045127685E+02  0.49045127685E+02  0.00000000000E+00 0. -1.
          6    2    1    2  501    0 -0.12533645487E+03 -0.49246344008E+02  0.61832216636E+03  0.65623701339E+03  0.17375352374E+03 0.  0.
         24    2    3    3    0    0 -0.13790251893E+02  0.35731569678E+02  0.18930466158E+03  0.20485922193E+03  0.68294434584E+02 0.  0.
         -6    2    1    2    0  502  0.12533645487E+03  0.49246344008E+02  0.36403812853E+03  0.42421353687E+03  0.17116932121E+03 0.  0.
        -24    2    5    5    0    0  0.53139261102E+02  0.52136108250E+02  0.91947214495E+02  0.14265299094E+03  0.79709665138E+02 0.  0.
          5    1    3    3  501    0 -0.11154620298E+03 -0.84977913686E+02  0.42901750479E+03  0.45137779146E+03  0.47000000000E+01 0. -1.
        -13    1    4    4    0    0  0.49907614420E+01  0.28124009136E+02  0.21284495440E+02  0.35621585250E+02  0.00000000000E+00 0.  1.
         14    1    4    4    0    0 -0.18781013335E+02  0.76075605423E+01  0.16802016614E+03  0.16923763668E+03  0.00000000000E+00 0. -1.
         -5    1    5    5    0  502  0.72197193769E+02 -0.28897642417E+01  0.27209091404E+03  0.28156054593E+03  0.47000000000E+01 0.  1.
         11    1    6    6    0    0 -0.70168419394E+01 -0.13625955148E+02  0.31296921295E+02  0.34848242525E+02  0.00000000000E+00 0. -1.
        -12    1    6    6    0    0  0.60156103042E+02  0.65762063397E+02  0.60650293199E+02  0.10780474841E+03  0.00000000000E+00 0.  1.
</event>
<event>
12    1  0.1683022E-002  0.2118239E+03  0.7818608E-02  0.1140768E+00
         21   -1    0    0  501  502  0.00000000000E+00  0.00000000000E+00  0.32094256848E+02  0.32094256848E+02  0.00000000000E+00 0.  1.
         21   -1    0    0  502  503 -0.00000000000E+00 -0.00000000000E+00 -0.13879788166E+04  0.13879788166E+04  0.00000000000E+00 0.  1.
          6    2    1    2  501    0 -0.17144077476E+01  0.12377935560E+03 -0.61932567601E+03  0.65454842741E+03  0.17188683138E+03 0.  0.
         24    2    3    3    0    0  0.60936901612E-01  0.88935567188E+02 -0.16513928181E+03  0.19899973395E+03  0.66485884910E+02 0.  0.
         -6    2    1    2    0  503  0.17144077476E+01 -0.12377935560E+03 -0.73655888372E+03  0.76552464601E+03  0.16788307358E+03 0.  0.
        -24    2    5    5    0    0 -0.52933646168E+02 -0.11802586965E+03 -0.55797410547E+03  0.57861791681E+03  0.82045807182E+02 0.  0.
          5    1    3    3  501    0 -0.17753446492E+01  0.34843788413E+02 -0.45418639420E+03  0.45554869346E+03  0.47000000000E+01 0. -1.
        -13    1    4    4    0    0  0.16451196088E+02  0.11632791202E+02 -0.55198023967E+01  0.20890952644E+02  0.00000000000E+00 0.  1.
         14    1    4    4    0    0 -0.16390259186E+02  0.77302775986E+02 -0.15961947941E+03  0.17810878131E+03  0.00000000000E+00 0. -1.
         -5    1    5    5    0  503  0.54648053915E+02 -0.57534859536E+01 -0.17858477825E+03  0.18690672920E+03  0.47000000000E+01 0.  1.
         13    1    6    6    0    0 -0.23012272655E+02 -0.49977980909E+02 -0.95570219881E+02  0.11027706106E+03  0.00000000000E+00 0. -1.
        -14    1    6    6    0    0 -0.29921373512E+02 -0.68047888739E+02 -0.46240388559E+03  0.46834085575E+03  0.00000000000E+00 0.  1.
</event>
<event>
12    1  0.1683022E-002  0.2165951E+03  0.7818608E-02  0.1137013E+00
         21   -1    0    0  503  502  0.00000000000E+00  0.00000000000E+00  0.22916569598E+03  0.22916569598E+03  0.00000000000E+00 0. -1.
         21   -1    0    0  501  503 -0.00000000000E+00 -0.00000000000E+00 -0.21087301180E+03  0.21087301180E+03  0.00000000000E+00 0. -1.
          6    2    1    2  501    0  0.63956182245E+02 -0.11060094881E+03 -0.36091468646E+02  0.21958150683E+03  0.17490134622E+03 0.  0.
         24    2    3    3    0    0  0.10473819742E+03 -0.11097308959E+03 -0.50603977921E+02  0.17603826194E+03  0.71718829284E+02 0.  0.
         -6    2    1    2    0  502 -0.63956182245E+02  0.11060094881E+03  0.54384152828E+02  0.22045720095E+03  0.17123311084E+03 0.  0.
        -24    2    5    5    0    0 -0.93567306813E+02  0.10502201807E+03  0.81647206328E+02  0.17955112252E+03  0.76078079066E+02 0.  0.
          5    1    3    3  501    0 -0.40782015170E+02  0.37214078303E+00  0.14512509275E+02  0.43543244890E+02  0.47000000000E+01 0. -1.
        -13    1    4    4    0    0 -0.94097588953E+01 -0.30015096363E+01 -0.93251154298E+01  0.13583460544E+02  0.00000000000E+00 0.  1.
         14    1    4    4    0    0  0.11414795631E+03 -0.10797157996E+03 -0.41278862491E+02  0.16245480140E+03  0.00000000000E+00 0. -1.
         -5    1    5    5    0  502  0.29611124568E+02  0.55789307374E+01 -0.27263053500E+02  0.40906078430E+02  0.47000000000E+01 0.  1.
         13    1    6    6    0    0 -0.62490892646E+02  0.10242874353E+03  0.86602407191E+02  0.14797545775E+03  0.00000000000E+00 0. -1.
        -14    1    6    6    0    0 -0.31076414168E+02  0.25932745412E+01 -0.49552008630E+01  0.31575664775E+02  0.00000000000E+00 0.  1.
</event>
<event>
12    1  0.1683022E-002  0.1728069E+03  0.7818608E-02  0.1176301E+00
         21   -1    0    0  501  502  0.00000000000E+00  0.00000000000E+00  0.22062249078E+03  0.22062249078E+03  0.00000000000E+00 0. -1.
         21   -1    0    0  502  503 -0.00000000000E+00 -0.00000000000E+00 -0.14106787257E+03  0.14106787257E+03  0.00000000000E+00 0. -1.
          6    2    1    2  501    0  0.86473455000E+01 -0.21309945082E+02  0.86762893524E+02  0.18873322668E+03  0.16602271175E+03 0.  0.
         24    2    3    3    0    0 -0.48958783241E+02 -0.33302114723E+02  0.83647415951E+02  0.12962253051E+03  0.79366976247E+02 0.  0.
         -6    2    1    2    0  503 -0.86473455000E+01  0.21309945082E+02 -0.72082753163E+01  0.17295713667E+03  0.17126973331E+03 0.  0.
        -24    2    5    5    0    0 -0.61127449000E+02  0.27434021049E+02 -0.38570957566E+02  0.11133430480E+03  0.80115030586E+02 0.  0.
          5    1    3    3  501    0  0.57606128742E+02  0.11992169641E+02  0.31154775725E+01  0.59110696171E+02  0.47000000000E+01 0. -1.
        -13    1    4    4    0    0 -0.43156638847E+02 -0.22203547651E+02  0.36716173419E+01  0.48672104729E+02  0.00000000000E+00 0.  1.
         14    1    4    4    0    0 -0.58021443942E+01 -0.11098567073E+02  0.79975798609E+02  0.80950425779E+02  0.00000000000E+00 0. -1.
         -5    1    5    5    0  503  0.52480103500E+02 -0.61240759666E+01  0.31362682250E+02  0.61622831871E+02  0.47000000000E+01 0.  1.
         13    1    6    6    0    0  0.14807837332E+02 -0.11813613980E+02 -0.78039113319E+01  0.20487424284E+02  0.00000000000E+00 0. -1.
        -14    1    6    6    0    0 -0.75935286332E+02  0.39247635029E+02 -0.30767046234E+02  0.90846880517E+02  0.00000000000E+00 0.  1.
</event>
<event>
12    1  0.1683022E-002  0.2337517E+03  0.7818608E-02  0.1124857E+00
         21   -1    0    0  503  502  0.00000000000E+00  0.00000000000E+00  0.41578971198E+03  0.41578971198E+03  0.00000000000E+00 0. -1.
         21   -1    0    0  501  503 -0.00000000000E+00 -0.00000000000E+00 -0.14968501534E+03  0.14968501534E+03  0.00000000000E+00 0.  1.
          6    2    1    2  501    0 -0.14568514403E+03  0.61787746800E+02  0.23761404725E+03  0.32999312054E+03  0.16550872276E+03 0.  0.
         24    2    3    3    0    0 -0.17153779170E+03  0.69743714467E+02  0.20707252007E+03  0.28892571624E+03  0.79433250274E+02 0.  0.
         -6    2    1    2    0  502  0.14568514403E+03 -0.61787746800E+02  0.28490649381E+02  0.23548160678E+03  0.17204064399E+03 0.  0.
        -24    2    5    5    0    0  0.17238273173E+03 -0.53202274189E+02  0.73114186806E+01  0.20002569977E+03  0.86084467516E+02 0.  0.
          5    1    3    3  501    0  0.25852647675E+02 -0.79559676668E+01  0.30541527180E+02  0.41067404298E+02  0.47000000000E+01 0. -1.
        -11    1    4    4    0    0 -0.31552946936E+02  0.47898211960E+02  0.40313092567E+02  0.70106865581E+02  0.00000000000E+00 0.  1.
         12    1    4    4    0    0 -0.13998484477E+03  0.21845502507E+02  0.16675942750E+03  0.21881885066E+03  0.00000000000E+00 0. -1.
         -5    1    5    5    0  502 -0.26697587699E+02 -0.85854726106E+01  0.21179230700E+02  0.35455907011E+02  0.47000000000E+01 0.  1.
         11    1    6    6    0    0  0.11862687255E+03 -0.74449414176E+02  0.18120768689E+02  0.14122114721E+03  0.00000000000E+00 0. -1.
        -12    1    6    6    0    0  0.53755859176E+02  0.21247139987E+02 -0.10809350009E+02  0.58804552553E+02  0.00000000000E+00 0.  1.
</event>
<event>
12    1  0.1683022E-002  0.2171481E+03  0.7818608E-02  0.1139260E+00
         21   -1    0    0  501  502  0.00000000000E+00  0.00000000000E+00  0.49416200308E+03  0.49416200308E+03  0.00000000000E+00 0. -1.
         21   -1    0    0  502  503 -0.00000000000E+00 -0.00000000000E+00 -0.15795623886E+03  0.15795623886E+03  0.00000000000E+00 0. -1.
          6    2    1    2  501    0 -0.11219835114E+03  0.67814502660E+02 -0.44540849715E+02  0.22166906891E+03  0.17310693818E+03 0.  0.
         24    2    3    3    0    0 -0.53238474734E+02  0.79386184077E+02  0.27481350678E+02  0.12775709850E+03  0.80188217133E+02 0.  0.
         -6    2    1    2    0  503  0.11219835114E+03 -0.67814502660E+02  0.38074661393E+03  0.43044917303E+03  0.15208954526E+03 0.  0.
        -24    2    5    5    0    0  0.77423014404E+02 -0.10026242383E+03  0.23913362438E+03  0.28098840747E+03  0.75648648589E+02 0.  0.
          5    1    3    3  501    0 -0.58959876409E+02 -0.11571681418E+02 -0.72022200392E+02  0.93911970410E+02  0.47000000000E+01 0. -1.
        -13    1    4    4    0    0  0.13977841254E+02 -0.66289824106E+01  0.14864014895E+01  0.15541326949E+02  0.00000000000E+00 0.  1.
         14    1    4    4    0    0 -0.67216315989E+02  0.86015166488E+02  0.25994949188E+02  0.11221577155E+03  0.00000000000E+00 0. -1.
         -5    1    5    5    0  503  0.34775336740E+02  0.32447921167E+02  0.14161298955E+03  0.14946076556E+03  0.47000000000E+01 0.  1.
         11    1    6    6    0    0  0.32634696835E+02 -0.50406628526E+02  0.18602724910E+03  0.19547887110E+03  0.00000000000E+00 0. -1.
        -12    1    6    6    0    0  0.44788317569E+02 -0.49855795300E+02  0.53106375275E+02  0.85509536372E+02  0.00000000000E+00 0.  1.
</event>
<event>
12    1  0.1683022E-002  0.1796284E+03  0.7818608E-02  0.1168494E+00
         21   -1    0    0  503  502  0.00000000000E+00  0.00000000000E+00  0.45611842721E+02  0.45611842721E+02  0.00000000000E+00 0.  1.
         21   -1    0    0  501  503 -0.00000000000E+00 -0.00000000000E+00 -0.81569047573E+03  0.81569047573E+03  0.00000000000E+00 0.  1.
          6    2    1    2  501    0  0.51898367302E+01  0.51669254243E+02 -0.54450610685E+03  0.57294607040E+03  0.17053930031E+03 0.  0.
         24    2    3    3    0    0 -0.34150710858E+02 -0.48656394163E+01 -0.43943826909E+03  0.44722728335E+03  0.75606250628E+02 0.  0.
         -6    2    1    2    0  502 -0.51898367302E+01 -0.51669254243E+02 -0.22557252616E+03  0.28835624805E+03  0.17195846880E+03 0.  0.
        -24    2    5    5    0    0  0.41078277894E+02 -0.83254637048E+02 -0.16485930261E+03  0.20561230355E+03  0.80492671775E+02 0.  0.
          5    1    3    3  501    0  0.39340547588E+02  0.56534893659E+02 -0.10506783776E+03  0.12571878705E+03  0.47000000000E+01 0. -1.
        -11    1    4    4    0    0 -0.20006941194E+02  0.34784842122E+02 -0.24698026919E+03  0.25021893675E+03  0.00000000000E+00 0.  1.
         12    1    4    4    0    0 -0.14143769664E+02 -0.39650481538E+02 -0.19245799990E+03  0.19700834660E+03  0.00000000000E+00 0. -1.
         -5    1    5    5    0  502 -0.46268114624E+02  0.31585382805E+02 -0.60713223548E+02  0.82743944500E+02  0.47000000000E+01 0.  1.
         13    1    6    6    0    0  0.12928518581E+02 -0.25892642441E+02 -0.12927540121E+03  0.13247529915E+03  0.00000000000E+00 0. -1.
        -14    1    6    6    0    0  0.28149759313E+02 -0.57361994607E+02 -0.35583901401E+02  0.73137004406E+02  0.00000000000E+00 0.  1.
</event>
<event>
12    1  0.1683022E-002  0.1947700E+03  0.7818608E-02  0.1154461E+00
         21   -1    0    0  501  502  0.00000000000E+00  0.00000000000E+00  0.32649350243E+02  0.32649350243E+02  0.00000000000E+00 0. -1.
         21   -1    0    0  502  503 -0.00000000000E+00 -0.00000000000E+00 -0.11883267162E+04  0.11883267162E+04  0.00000000000E+00 0.  1.
          6    2    1    2  501    0  0.14182828184E+02  0.89290762858E+02 -0.47491368284E+03  0.51289799438E+03  0.17131069303E+03 0.  0.
         24    2    3    3    0    0 -0.40598688584E+02  0.89577407219E+02 -0.40909286331E+03  0.42713339196E+03  0.73577158975E+02 0.  0.
         -6    2    1    2    0  503 -0.14182828184E+02 -0.89290762858E+02 -0.68076368308E+03  0.70807807202E+03  0.17251484264E+03 0.  0.
        -24    2    5    5    0    0  0.21393719170E+02 -0.50922739560E+02 -0.62255339599E+03  0.62966682630E+03  0.76529501841E+02 0.  0.
          5    1    3    3  501    0  0.54781516768E+02 -0.28664436136E+00 -0.65820819530E+02  0.85764602418E+02  0.47000000000E+01 0. -1.
        -13    1    4    4    0    0 -0.40619072542E+02  0.81403681253E+02 -0.22275595942E+03  0.24061730161E+03  0.00000000000E+00 0.  1.
         14    1    4    4    0    0  0.20383958367E-01  0.81737259663E+01 -0.18633690388E+03  0.18651609035E+03  0.00000000000E+00 0. -1.
         -5    1    5    5    0  503 -0.35576547354E+02 -0.38368023298E+02 -0.58210287089E+02  0.78411245727E+02  0.47000000000E+01 0.  1.
         11    1    6    6    0    0  0.19253829436E+02 -0.40844522753E+02 -0.14207832263E+03  0.14908130248E+03  0.00000000000E+00 0. -1.
        -12    1    6    6    0    0  0.21398897340E+01 -0.10078216807E+02 -0.48047507336E+03  0.48058552382E+03  0.00000000000E+00 0.  1.
</event>
<event>
12    1  0.1683022E-002  0.2291408E+03  0.7818608E-02  0.1128358E+00
         21   -1    0    0  501  502  0.00000000000E+00  0.00000000000E+00  0.37065954287E+03  0.37065954287E+03  0.00000000000E+00 0. -1.
         21   -1    0    0  502  503 -0.00000000000E+00 -0.00000000000E+00 -0.14258378126E+03  0.14258378126E+03  0.00000000000E+00 0. -1.
          6    2    1    2  501    0  0.68903917690E+02  0.12349204971E+03  0.15929252094E+03  0.27400153798E+03  0.17235051311E+03 0.  0.
         24    2    3    3    0    0  0.78318654477E+02  0.42438043930E+02  0.33543955933E+02  0.12402427062E+03  0.79511153377E+02 0.  0.
         -6    2    1    2    0  503 -0.68903917690E+02 -0.12349204971E+03  0.68783240669E+02  0.23924178614E+03  0.18029825796E+03 0.  0.
        -24    2    5    5    0    0 -0.11084904373E+03 -0.11042332233E+03  0.79098496975E+02  0.19386910994E+03  0.82751670398E+02 0.  0.
          5    1    3    3  501    0 -0.94147367866E+01  0.81054005785E+02  0.12574856501E+03  0.14997726736E+03  0.47000000000E+01 0. -1.
        -11    1    4    4    0    0  0.57182306846E+02 -0.91979428318E+01  0.35968179446E+02  0.68177183142E+02  0.00000000000E+00 0.  1.
         12    1    4    4    0    0  0.21136347631E+02  0.51635986762E+02 -0.24242235126E+01  0.55847087477E+02  0.00000000000E+00 0. -1.
         -5    1    5    5    0  503  0.41945126037E+02 -0.13068727385E+02 -0.10315256306E+02  0.45372676209E+02  0.47000000000E+01 0.  1.
         11    1    6    6    0    0 -0.40000117465E+02 -0.58376176590E+02 -0.66320030012E+01  0.71075810613E+02  0.00000000000E+00 0. -1.
        -12    1    6    6    0    0 -0.70848926263E+02 -0.52047145740E+02  0.85730499977E+02  0.12279329932E+03  0.00000000000E+00 0.  1.
</event>
<event>
12    1  0.1683022E-002  0.1769839E+03  0.7818608E-02  0.1171111E+00
         21   -1    0    0  503  502  0.00000000000E+00  0.00000000000E+00  0.54020663465E+03  0.54020663465E+03  0.00000000000E+00 0.  1.
         21   -1    0    0  501  503 -0.00000000000E+00 -0.00000000000E+00 -0.74909108904E+02  0.74909108904E+02  0.00000000000E+00 0.  1.
          6    2    1    2  501    0 -0.41864711545E+02  0.59631421856E+01  0.83714041597E+02  0.19448615728E+03  0.17037784913E+03 0.  0.
         24    2    3    3    0    0 -0.77457478472E+02  0.45309983028E+02  0.75326976577E+02  0.14056536536E+03  0.77664747501E+02 0.  0.
         -6    2    1    2    0  502  0.41864711545E+02 -0.59631421856E+01  0.38158348415E+03  0.42062958628E+03  0.17185773284E+03 0.  0.
        -24    2    5    5    0    0  0.94224312787E+02  0.22658336355E+01  0.26083020264E+03  0.28867243839E+03  0.80100105806E+02 0.  0.
          5    1    3    3  501    0  0.35592766927E+02 -0.39346840842E+02  0.83870650193E+01  0.53920791921E+02  0.47000000000E+01 0. -1.
        -11    1    4    4    0    0 -0.36094537721E+01  0.43980320253E+02  0.35608236229E+02  0.56703114671E+02  0.00000000000E+00 0.  1.
         12    1    4    4    0    0 -0.73848024700E+02  0.13296627744E+01  0.39718740349E+02  0.83862250685E+02  0.00000000000E+00 0. -1.
         -5    1    5    5    0  502 -0.52359601241E+02 -0.82289758211E+01  0.12075328151E+03  0.13195714789E+03  0.47000000000E+01 0.  1.
         11    1    6    6    0    0  0.70698309161E+02 -0.24596570543E+02  0.10592477875E+03  0.12970466821E+03  0.00000000000E+00 0. -1.
        -12    1    6    6    0    0  0.23526003626E+02  0.26862404179E+02  0.15490542389E+03  0.15896777018E+03  0.00000000000E+00 0.  1.
</event>
<event>
12    1  0.1683022E-002  0.1741502E+03  0.7818608E-02  0.1173685E+00
         21   -1    0    0  503  502  0.00000000000E+00  0.00000000000E+00  0.17462544971E+03  0.17462544971E+03  0.00000000000E+00 0.  1.
         21   -1    0    0  501  503 -0.00000000000E+00 -0.00000000000E+00 -0.18908338689E+03  0.18908338689E+03  0.00000000000E+00 0.  1.
          6    2    1    2  501    0 -0.20263817988E+02  0.15451119856E+02  0.45315046416E+02  0.17994926714E+03  0.17227572635E+03 0.  0.
         24    2    3    3    0    0 -0.74824034751E+02  0.33053920037E+02  0.23712925206E+02  0.11850484129E+03  0.82400829979E+02 0.  0.
         -6    2    1    2    0  502  0.20263817988E+02 -0.15451119856E+02 -0.59772983590E+02  0.18375956946E+03  0.17188778426E+03 0.  0.
        -24    2    5    5    0    0 -0.26143939750E+02 -0.59016155747E+02 -0.26951191065E+01  0.98135011393E+02  0.73870187283E+02 0.  0.
          5    1    3    3  501    0  0.54560216763E+02 -0.17602800181E+02  0.21602121209E+02  0.61444425851E+02  0.47000000000E+01 0. -1.
        -13    1    4    4    0    0 -0.28551906603E+02 -0.27392362168E+02  0.12899221766E+02  0.41616616849E+02  0.00000000000E+00 0.  1.
         14    1    4    4    0    0 -0.46272128148E+02  0.60446282205E+02  0.10813703440E+02  0.76888224442E+02  0.00000000000E+00 0. -1.
         -5    1    5    5    0  502  0.46407757738E+02  0.43565035891E+02 -0.57077864483E+02  0.85624558068E+02  0.47000000000E+01 0.  1.
         11    1    6    6    0    0 -0.18540160389E+02  0.13411545951E+02 -0.99432602648E+01  0.24949459649E+02  0.00000000000E+00 0. -1.
        -12    1    6    6    0    0 -0.76037793603E+01 -0.72427701699E+02  0.72481411583E+01  0.73185551745E+02  0.00000000000E+00 0.  1.
</event>
<event>
12    1  0.1683022E-002  0.1969353E+03  0.7818608E-02  0.1152817E+00
         21   -1    0    0  503  502  0.00000000000E+00  0.00000000000E+00  0.45336029133E+03  0.45336029133E+03  0.00000000000E+00 0. -1.
         21   -1    0    0  501  503 -0.00000000000E+00 -0.00000000000E+00 -0.99573584460E+02  0.99573584460E+02  0.00000000000E+00 0. -1.
          6    2    1    2  501    0  0.49020711389E+02  0.78141374173E+02  0.28322602697E+03  0.34373939198E+03  0.17155373134E+03 0.  0.
         24    2    3    3    0    0  0.60624674564E+02 -0.11233865914E+02  0.17582219034E+03  0.20345304330E+03  0.81719932095E+02 0.  0.
         -6    2    1    2    0  502 -0.49020711389E+02 -0.78141374173E+02  0.70560679898E+02  0.20919448382E+03  0.17399545399E+03 0.  0.
        -24    2    5    5    0    0 -0.72073569774E+02  0.72588592364E+01  0.45598392583E+02  0.11716275052E+03  0.80003788692E+02 0.  0.
          5    1    3    3  501    0 -0.11603963175E+02  0.89375240087E+02  0.10740383663E+03  0.14028634868E+03  0.47000000000E+01 0. -1.
        -13    1    4    4    0    0  0.31873029140E+02 -0.14405953393E+02  0.11821794953E+02  0.36921217689E+02  0.00000000000E+00 0.  1.
         14    1    4    4    0    0  0.28751645425E+02  0.31720874784E+01  0.16400039539E+03  0.16653182561E+03  0.00000000000E+00 0. -1.
         -5    1    5    5    0  502  0.23052858384E+02 -0.85400233409E+02  0.24962287315E+02  0.92031733299E+02  0.47000000000E+01 0.  1.
         11    1    6    6    0    0  0.10530778962E+02 -0.11851026050E+02 -0.70603342591E+01  0.17354896826E+02  0.00000000000E+00 0. -1.
        -12    1    6    6    0    0 -0.82604348736E+02  0.19109885286E+02  0.52658726842E+02  0.99807853691E+02  0.00000000000E+00 0.  1.
</event>
<event>
12    1  0.1683022E-002  0.2021970E+03  0.7818608E-02  0.1149249E+00
         21   -1    0    0  501  502  0.00000000000E+00  0.00000000000E+00  0.12157647455E+04  0.12157647455E+04  0.00000000000E+00 0.  1.
         21   -1    0    0  502  503 -0.00000000000E+00 -0.00000000000E+00 -0.37019197096E+02  0.37019197096E+02  0.00000000000E+00 0.  1.
          6    2    1    2  501    0  0.29808865406E+02  0.10131854381E+03  0.79807231187E+03  0.82174362020E+03  0.16489131752E+03 0.  0.
         24    2    3    3    0    0  0.35059470304E+02  0.13313741282E+03  0.59089352785E+03  0.61201725604E+03  0.80344404194E+02 0.  0.
         -6    2    1    2    0  503 -0.29808865406E+02 -0.10131854381E+03  0.38067323652E+03  0.43104032238E+03  0.17242282545E+03 0.  0.
        -24    2    5    5    0    0 -0.19975839136E+02 -0.13797362729E+03  0.33445094369E+03  0.37104970724E+03  0.79904289805E+02 0.  0.
          5    1    3    3  501    0 -0.52506048975E+01 -0.31818869009E+02  0.20717878402E+03  0.20972636416E+03  0.47000000000E+01 0. -1.
        -11    1    4    4    0    0  0.69443223584E+01  0.10652947815E+03  0.52370710540E+03  0.53447720772E+03  0.00000000000E+00 0.  1.
         12    1    4    4    0    0  0.28115147945E+02  0.26607934678E+02  0.67186422453E+02  0.77540048323E+02  0.00000000000E+00 0. -1.
         -5    1    5    5    0  503 -0.98330262702E+01  0.36655083479E+02  0.46222292828E+02  0.59990615138E+02  0.47000000000E+01 0.  1.
         11    1    6    6    0    0  0.30063619972E+02 -0.38412467794E+02  0.89023050893E+02  0.10151080001E+03  0.00000000000E+00 0. -1.
        -12    1    6    6    0    0 -0.50039459108E+02 -0.99561159499E+02  0.24542789280E+03  0.26953890723E+03  0.00000000000E+00 0.  1.
</event>
<event>
12    1  0.1683022E-002  0.1966097E+03  0.7818608E-02  0.1153531E+00
         21   -1    0    0  501  502  0.00000000000E+00  0.00000000000E+00  0.34881815648E+03  0.34881815648E+03  0.00000000000E+00 0. -1.
         21   -1    0    0  502  503 -0.00000000000E+00 -0.00000000000E+00 -0.10917017939E+03  0.10917017939E+03  0.00000000000E+00 0. -1.
          6    2    1    2  501    0  0.74903942763E+02  0.56329149839E+02  0.10071291743E+03  0.21724300361E+03  0.16813047646E+03 0.  0.
         24    2    3    3    0    0  0.56842619468E+02  0.10056967325E+03  0.94230749681E+02  0.16879154532E+03  0.79156863386E+02 0.  0.
         -6    2    1    2    0  503 -0.74903942763E+02 -0.56329149839E+02  0.13893505966E+03  0.24074533227E+03  0.17283457537E+03 0.  0.
        -24    2    5    5    0    0 -0.18147594979E+02 -0.79156164386E+02  0.13186064136E+03  0.17898375035E+03  0.89738066542E+02 0.  0.
          5    1    3    3  501    0  0.18061323296E+02 -0.44240523412E+02  0.64821677530E+01  0.48451458283E+02  0.47000000000E+01 0. -1.
        -13    1    4    4    0    0 -0.96900267370E+01  0.69989767607E+01 -0.85483280165E+01  0.14695448470E+02  0.00000000000E+00 0.  1.
         14    1    4    4    0    0  0.66532646205E+02  0.93570696490E+02  0.10277907770E+03  0.15409609685E+03  0.00000000000E+00 0. -1.
         -5    1    5    5    0  503 -0.56756347784E+02  0.22827014546E+02  0.70744183041E+01  0.61761581920E+02  0.47000000000E+01 0.  1.
         11    1    6    6    0    0 -0.22020350063E+02  0.15044579601E+02  0.26434692680E+02  0.37550341801E+02  0.00000000000E+00 0. -1.
        -12    1    6    6    0    0  0.38727550844E+01 -0.94200743986E+02  0.10542594868E+03  0.14143340855E+03  0.00000000000E+00 0.  1.
</event>
<event>
12    1  0.1683022E-002  0.1798264E+03  0.7818608E-02  0.1168470E+00
         21   -1    0    0  503  502  0.00000000000E+00  0.00000000000E+00  0.15356863802E+03  0.15356863802E+03  0.00000000000E+00 0. -1.
         21   -1    0    0  501  503 -0.00000000000E+00 -0.00000000000E+00 -0.33098682830E+03  0.33098682830E+03  0.00000000000E+00 0. -1.
          6    2    1    2  501    0 -0.48572291408E+02 -0.50836931638E+01 -0.23660330965E+03  0.29718457720E+03  0.17306771900E+03 0.  0.
         24    2    3    3    0    0 -0.32319696019E+02  0.53423440641E+02 -0.83523288152E+02  0.13243381227E+03  0.81633009307E+02 0.  0.
         -6    2    1    2    0  502  0.48572291408E+02  0.50836931638E+01  0.59185119374E+02  0.18737088911E+03  0.17093817684E+03 0.  0.
        -24    2    5    5    0    0  0.80423167703E+02  0.43315477490E+02  0.29069748216E+02  0.12901702691E+03  0.86349443998E+02 0.  0.
          5    1    3    3  501    0 -0.16252595389E+02 -0.58507133805E+02 -0.15308002150E+03  0.16475076493E+03  0.47000000000E+01 0. -1.
        -13    1    4    4    0    0 -0.44485503078E+02  0.22214033396E+02 -0.87324850356E+01  0.50484448682E+02  0.00000000000E+00 0.  1.
         14    1    4    4    0    0  0.12165807059E+02  0.31209407246E+02 -0.74790803117E+02  0.81949363590E+02  0.00000000000E+00 0. -1.
         -5    1    5    5    0  502 -0.31850876295E+02 -0.38231784326E+02  0.30115371158E+02  0.58353862199E+02  0.47000000000E+01 0.  1.
         13    1    6    6    0    0  0.38412950277E+02 -0.23811202771E+02  0.16807529955E+01  0.45225579676E+02  0.00000000000E+00 0. -1.
        -14    1    6    6    0    0  0.42010217426E+02  0.67126680261E+02  0.27388995220E+02  0.83791447238E+02  0.00000000000E+00 0.  1.
</event>
<event>
12    1  0.1683022E-002  0.2720410E+03  0.7818608E-02  0.1100563E+00
         21   -1    0    0  501  502  0.00000000000E+00  0.00000000000E+00  0.20423648703E+03  0.20423648703E+03  0.00000000000E+00 0.  1.
         21   -1    0    0  502  503 -0.00000000000E+00 -0.00000000000E+00 -0.35836478783E+03  0.35836478783E+03  0.00000000000E+00 0.  1.
          6    2    1    2  501    0  0.10875942934E+03 -0.17694145744E+03 -0.70607557368E+02  0.27802786710E+03  0.17081327494E+03 0.  0.
         24    2    3    3    0    0  0.12574702753E+03 -0.12852220609E+03 -0.92624195919E+02  0.22199372781E+03  0.91497000627E+02 0.  0.
         -6    2    1    2    0  503 -0.10875942934E+03  0.17694145744E+03 -0.83520743430E+02  0.28457340775E+03  0.17569694642E+03 0.  0.
        -24    2    5    5    0    0  0.26626502963E+01  0.10618376669E+03 -0.11000441633E+02  0.13389887505E+03  0.80782529100E+02 0.  0.
          5    1    3    3  501    0 -0.16987598188E+02 -0.48419251351E+02  0.22016638551E+02  0.56034139296E+02  0.47000000000E+01 0. -1.
        -13    1    4    4    0    0  0.35436263050E+01 -0.61002042936E+02 -0.38681685334E+02  0.72319287261E+02  0.00000000000E+00 0.  1.
         14    1    4    4    0    0  0.12220340123E+03 -0.67520163157E+02 -0.53942510586E+02  0.14967444055E+03  0.00000000000E+00 0. -1.
         -5    1    5    5    0  503 -0.11142207964E+03  0.70757690755E+02 -0.72520301797E+02  0.15067453270E+03  0.47000000000E+01 0.  1.
         11    1    6    6    0    0 -0.10683469193E+02 -0.37776730155E+01 -0.19766404722E+02  0.22784162987E+02  0.00000000000E+00 0. -1.
        -12    1    6    6    0    0  0.13346119489E+02  0.10996143970E+03  0.87659630884E+01  0.11111471206E+03  0.00000000000E+00 0.  1.
</event>
<event>
12    1  0.1683022E-002  0.2378431E+03  0.7818608E-02  0.1121968E+00
         21   -1    0    0  501  502  0.00000000000E+00  0.00000000000E+00  0.11106634581E+03  0.11106634581E+03  0.00000000000E+00 0. -1.
         21   -1    0    0  502  503 -0.00000000000E+00 -0.00000000000E+00 -0.70522894568E+03  0.70522894568E+03  0.00000000000E+00 0. -1.
          6    2    1    2  501    0  0.15143880286E+03 -0.53362290528E+02 -0.75090535392E+02  0.24532667649E+03  0.16960349239E+03 0.  0.
         24    2    3    3    0    0  0.17513929472E+03 -0.29533433061E+02 -0.44719026021E+02  0.19978497753E+03  0.79801314123E+02 0.  0.
         -6    2    1    2    0  503 -0.15143880286E+03  0.53362290528E+02 -0.51907206448E+03  0.57096861500E+03  0.17546539866E+03 0.  0.
        -24    2    5    5    0    0 -0.10751047968E+03  0.10327109403E+03 -0.33869841421E+03  0.37867371139E+03  0.80335184079E+02 0.  0.
          5    1    3    3  501    0 -0.23700491861E+02 -0.23828857466E+02 -0.30371509371E+02  0.45541698959E+02  0.47000000000E+01 0. -1.
        -13    1    4    4    0    0  0.71784132298E+01 -0.92237386003E+01 -0.27311663444E+02  0.29707472635E+02  0.00000000000E+00 0.  1.
         14    1    4    4    0    0  0.16796088149E+03 -0.20309694461E+02 -0.17407362576E+02  0.17007750490E+03  0.00000000000E+00 0. -1.
         -5    1    5    5    0  503 -0.43928323179E+02 -0.49908803502E+02 -0.18037365027E+03  0.19229490361E+03  0.47000000000E+01 0.  1.
         11    1    6    6    0    0 -0.13773335105E+02  0.65976434492E+02 -0.15681375285E+03  0.17068435122E+03  0.00000000000E+00 0. -1.
        -12    1    6    6    0    0 -0.93737144577E+02  0.37294659538E+02 -0.18188466136E+03  0.20798936016E+03  0.00000000000E+00 0.  1.
</event>
<event>
12    1  0.1683022E-002  0.1804561E+03  0.7818608E-02  0.1167600E+00
         21   -1    0    0  501  502  0.00000000000E+00  0.00000000000E+00  0.85599631932E+02  0.85599631932E+02  0.00000000000E+00 0. -1.
         21   -1    0    0  502  503 -0.00000000000E+00 -0.00000000000E+00 -0.39592382319E+03  0.39592382319E+03  0.00000000000E+00 0. -1.
          6    2    1    2  501    0 -0.44456838068E+02  0.26411018039E+02 -0.10405130871E+03  0.20745614894E+03  0.17186455878E+03 0.  0.
         24    2    3    3    0    0 -0.70652810309E+02  0.69654133983E+02 -0.82633721548E+02  0.15234717437E+03  0.80856735139E+02 0.  0.
         -6    2    1    2    0  503  0.44456838068E+02 -0.26411018039E+02 -0.20627288255E+03  0.27406730618E+03  0.17288850140E+03 0.  0.
        -24    2    5    5    0    0 -0.66132068330E+01  0.16072479277E+02 -0.18820843264E+03  0.20506432522E+03  0.79541839722E+02 0.  0.
          5    1    3    3  501    0  0.26195972241E+02 -0.43243115943E+02 -0.21417587160E+02  0.55108974568E+02  0.47000000000E+01 0. -1.
        -13    1    4    4    0    0 -0.66185122737E+01 -0.85674539360E+01 -0.42040767300E+02  0.43412349473E+02  0.00000000000E+00 0.  1.
         14    1    4    4    0    0 -0.64034298035E+02  0.78221587919E+02 -0.40592954249E+02  0.10893482490E+03  0.00000000000E+00 0. -1.
         -5    1    5    5    0  503  0.51070044901E+02 -0.42483497317E+02 -0.18064449906E+02  0.69002980957E+02  0.47000000000E+01 0.  1.
         13    1    6    6    0    0 -0.19602472269E+02 -0.27301719029E+02 -0.10614247572E+03  0.11133672320E+03  0.00000000000E+00 0. -1.
        -14    1    6    6    0    0  0.12989265436E+02  0.43374198306E+02 -0.82065956925E+02  0.93727602024E+02  0.00000000000E+00 0.  1.
</event>
<event>
12    1  0.1683022E-002  0.2013239E+03  0.7818608E-02  0.1149488E+00
         21   -1    0    0  503  502  0.00000000000E+00  0.00000000000E+00  0.15609994438E+04  0.15609994438E+04  0.00000000000E+00 0. -1.
         21   -1    0    0  501  503 -0.00000000000E+00 -0.00000000000E+00 -0.25514973852E+02  0.25514973852E+02  0.00000000000E+00 0. -1.
          6    2    1    2  501    0  0.96626055537E+02 -0.37351665454E+01  0.80219108846E+03  0.82608656762E+03  0.17192419469E+03 0.  0.
         24    2    3    3    0    0  0.42122969970E+02  0.23929500391E+02  0.20900142664E+03  0.22973768900E+03  0.82163518820E+02 0.  0.
         -6    2    1    2    0  502 -0.96626055537E+02  0.37351665454E+01  0.73329338149E+03  0.76042785003E+03  0.17658081914E+03 0.  0.
        -24    2    5    5    0    0 -0.68039920556E+02  0.54604270168E+01  0.72155660752E+03  0.72912312994E+03  0.79481782186E+02 0.  0.
          5    1    3    3  501    0  0.54503085567E+02 -0.27664666936E+02  0.59318966182E+03  0.59634887862E+03  0.47000000000E+01 0. -1.
        -13    1    4    4    0    0 -0.59204463765E+01 -0.13155574127E+02  0.12648531243E+03  0.12730536154E+03  0.00000000000E+00 0.  1.
         14    1    4    4    0    0  0.48043416346E+02  0.37085074518E+02  0.82516114204E+02  0.10243232746E+03  0.00000000000E+00 0. -1.
         -5    1    5    5    0  502 -0.28586134982E+02 -0.17252604714E+01  0.11736773965E+02  0.31304720091E+02  0.47000000000E+01 0.  1.
         13    1    6    6    0    0 -0.62225099480E+02  0.32244174047E+02  0.61945576549E+03  0.62340764766E+03  0.00000000000E+00 0. -1.
        -14    1    6    6    0    0 -0.58148210752E+01 -0.26783747030E+02  0.10210084203E+03  0.10571548228E+03  0.00000000000E+00 0.  1.
</event>
<event>
12    1  0.1683022E-002  0.2871130E+03  0.7818608E-02  0.1092495E+00
         21   -1    0    0  503  502  0.00000000000E+00  0.00000000000E+00  0.50785352553E+03  0.50785352553E+03  0.00000000000E+00 0. -1.
         21   -1    0    0  501  503 -0.00000000000E+00 -0.00000000000E+00 -0.16940701693E+03  0.16940701693E+03  0.00000000000E+00 0.  1.
          6    2    1    2  501    0  0.19118798047E+03  0.11782595429E+03  0.86694237104E+02  0.29540571754E+03  0.17120995249E+03 0.  0.
         24    2    3    3    0    0  0.16765109725E+03  0.11459622134E+03  0.11707823375E+02  0.21660553804E+03  0.74442606254E+02 0.  0.
         -6    2    1    2    0  502 -0.19118798047E+03 -0.11782595429E+03  0.25175227150E+03  0.38185482491E+03  0.17888013228E+03 0.  0.
        -24    2    5    5    0    0 -0.14716299413E+03 -0.88702269693E+02  0.26644460361E+03  0.32686079752E+03  0.79499777795E+02 0.  0.
          5    1    3    3  501    0  0.23536883214E+02  0.32297329584E+01  0.74986413729E+02  0.78800179507E+02  0.47000000000E+01 0. -1.
        -11    1    4    4    0    0  0.13184386255E+03  0.11609843743E+03  0.26821051264E+02  0.17771049507E+03  0.00000000000E+00 0.  1.
         12    1    4    4    0    0  0.35807234707E+02 -0.15022160987E+01 -0.15113227889E+02  0.38895042972E+02  0.00000000000E+00 0. -1.
         -5    1    5    5    0  502 -0.44024986333E+02 -0.29123684601E+02 -0.14692332110E+02  0.54994027396E+02  0.47000000000E+01 0.  1.
         11    1    6    6    0    0 -0.53845050592E+02  0.39182297717E+01  0.49843405371E+02  0.73477935850E+02  0.00000000000E+00 0. -1.
        -12    1    6    6    0    0 -0.93317943541E+02 -0.92620499464E+02  0.21660119824E+03  0.25338286167E+03  0.00000000000E+00 0.  1.
</event>
<event>
12    1  0.1683022E-002  0.2223547E+03  0.7818608E-02  0.1132224E+00
         21   -1    0    0  501  502  0.00000000000E+00  0.00000000000E+00  0.34966923712E+02  0.34966923712E+02  0.00000000000E+00 0. -1.
         21   -1    0    0  502  503 -0.00000000000E+00 -0.00000000000E+00 -0.16382915636E+04  0.16382915636E+04  0.00000000000E+00 0. -1.
          6    2    1    2  501    0  0.35902547101E+02 -0.13648090980E+03 -0.49078524498E+03  0.53880589401E+03  0.17183015772E+03 0.  0.
         24    2    3    3    0    0 -0.10353951545E+02 -0.39164251970E+02 -0.35324230797E+03  0.36401932393E+03  0.78031385420E+02 0.  0.
         -6    2    1    2    0  503 -0.35902547101E+02  0.13648090980E+03 -0.11125393949E+04  0.11344525933E+04  0.17123886707E+03 0.  0.
        -24    2    5    5    0    0 -0.40327960043E+02  0.15028731144E+03 -0.11021673788E+04  0.11160170373E+04  0.80675128712E+02 0.  0.
          5    1    3    3  501    0  0.46256498645E+02 -0.97316657832E+02 -0.13754293701E+03  0.17478657008E+03  0.47000000000E+01 0. -1.
        -11    1    4    4    0    0 -0.58991345675E+01  0.23728208874E+02 -0.83492966670E+02  0.86999443495E+02  0.00000000000E+00 0.  1.
         12    1    4    4    0    0 -0.44548169773E+01 -0.62892460844E+02 -0.26974934130E+03  0.27701988044E+03  0.00000000000E+00 0. -1.
         -5    1    5    5    0  503  0.44254129423E+01 -0.13806401636E+02 -0.10372016125E+02  0.18435555981E+02  0.47000000000E+01 0.  1.
         13    1    6    6    0    0  0.20193492529E+02  0.28269986366E+02 -0.13944060684E+03  0.14370334758E+03  0.00000000000E+00 0. -1.
        -14    1    6    6    0    0 -0.60521452572E+02  0.12201732507E+03 -0.96272677194E+03  0.97231368974E+03  0.00000000000E+00 0.  1.
</event>
<event>
12    1  0.1683022E-002  0.1859560E+03  0.7818608E-02  0.1162347E+00
         21   -1    0    0  503  502  0.00000000000E+00  0.00000000000E+00  0.29186273653E+02  0.29186273653E+02  0.00000000000E+00 0.  1.
         21   -1    0    0  501  503 -0.00000000000E+00 -0.00000000000E+00 -0.12582472050E+04  0.12582472050E+04  0.00000000000E+00 0.  1.
          6    2    1    2  501    0  0.29783111619E+02  0.62801481580E+02 -0.77414105699E+03  0.79597469309E+03  0.17161082741E+03 0.  0.
         24    2    3    3    0    0 -0.21721262970E+02 -0.22771500211E+02 -0.37949153276E+03  0.38885582495E+03  0.78769757363E+02 0.  0.
         -6    2    1    2    0  502 -0.29783111619E+02 -0.62801481580E+02 -0.45491987439E+03  0.49145878561E+03  0.17247778409E+03 0.  0.
        -24    2    5    5    0    0 -0.51559618991E+02 -0.93256908056E+02 -0.41691483888E+03  0.43790300161E+03  0.81153008139E+02 0.  0.
          5    1    3    3  501    0  0.51504374589E+02  0.85572981791E+02 -0.39464952424E+03  0.40711886814E+03  0.47000000000E+01 0. -1.
        -11    1    4    4    0    0 -0.33498729024E+02  0.67715396256E+01 -0.71734152522E+02  0.79459469122E+02  0.00000000000E+00 0.  1.
         12    1    4    4    0    0  0.11777466053E+02 -0.29543039837E+02 -0.30775738024E+03  0.30939635583E+03  0.00000000000E+00 0. -1.
         -5    1    5    5    0  502  0.21776507371E+02  0.30455426476E+02 -0.38005035512E+02  0.53555783996E+02  0.47000000000E+01 0.  1.
         13    1    6    6    0    0 -0.52731215106E+02 -0.57665543322E+02 -0.15504232713E+03  0.17362033042E+03  0.00000000000E+00 0. -1.
        -14    1    6    6    0    0  0.11715961151E+01 -0.35591364735E+02 -0.26187251175E+03  0.26428267119E+03  0.00000000000E+00 0.  1.
</event>
<event>
12    1  0.1683022E-002  0.3615419E+03  0.7818608E-02  0.1058603E+00
         21   -1    0    0  501  502  0.00000000000E+00  0.00000000000E+00  0.11380775959E+03  0.11380775959E+03  0.00000000000E+00 0. -1.
         21   -1    0    0  502  503 -0.00000000000E+00 -0.00000000000E+00 -0.22230670459E+04  0.22230670459E+04  0.00000000000E+00 0. -1.
          6    2    1    2  501    0  0.31865566653E+03 -0.43073963155E+01 -0.23950295257E+03  0.43367524297E+03  0.17074122115E+03 0.  0.
         24    2    3    3    0    0  0.14457576852E+03 -0.36906489368E+02 -0.18031528040E+03  0.24688182152E+03  0.78567115586E+02 0.  0.
         -6    2    1    2    0  503 -0.31865566653E+03  0.43073963155E+01 -0.18697563337E+04  0.19031995625E+04  0.15690710545E+03 0.  0.
        -24    2    5    5    0    0 -0.87176510686E+02  0.29284536457E+02 -0.62750302387E+03  0.63930801930E+03  0.80606268333E+02 0.  0.
          5    1    3    3  501    0  0.17407989801E+03  0.32599093052E+02 -0.59187672173E+02  0.18679342145E+03  0.47000000000E+01 0. -1.
        -13    1    4    4    0    0  0.25925486619E+01  0.15018501281E+02 -0.30224938161E+02  0.33850015895E+02  0.00000000000E+00 0.  1.
         14    1    4    4    0    0  0.14198321985E+03 -0.51924990648E+02 -0.15009034224E+03  0.21303180563E+03  0.00000000000E+00 0. -1.
         -5    1    5    5    0  503 -0.23147915584E+03 -0.24977140141E+02 -0.12422533099E+04  0.12638915432E+04  0.47000000000E+01 0.  1.
         13    1    6    6    0    0 -0.22277700187E+02 -0.27124356387E+02 -0.22512701880E+03  0.22784688111E+03  0.00000000000E+00 0. -1.
        -14    1    6    6    0    0 -0.64898810499E+02  0.56408892843E+02 -0.40237600506E+03  0.41146113820E+03  0.00000000000E+00 0.  1.
</event>
<event>
12    1  0.1683022E-002  0.1758228E+03  0.7818608E-02  0.1173058E+00
         21   -1    0    0  503  502  0.00000000000E+00  0.00000000000E+00  0.62324842203E+02  0.62324842203E+02  0.00000000000E+00 0.  1.
         21   -1    0    0  501  503 -0.00000000000E+00 -0.00000000000E+00 -0.58124142449E+03  0.58124142449E+03  0.00000000000E+00 0.  1.
          6    2    1    2  501    0  0.25338960891E+02 -0.11053474710E+02 -0.39438537715E+03  0.43180261283E+03  0.17363590785E+03 0.  0.
         24    2    3    3    0    0  0.47357838833E+02 -0.37551418127E+02 -0.38264085735E+03  0.39510117231E+03  0.77704805144E+02 0.  0.
         -6    2    1    2    0  502 -0.25338960891E+02  0.11053474710E+02 -0.12453120513E+03  0.21176365385E+03  0.16903130420E+03 0.  0.
        -24    2    5    5    0    0 -0.57275251228E+02 -0.39268820016E+02 -0.52710381427E+02  0.11831537562E+03  0.79985305963E+02 0.  0.
          5    1    3    3  501    0 -0.22018877942E+02  0.26497943417E+02 -0.11744519800E+02  0.36701440523E+02  0.47000000000E+01 0. -1.
        -13    1    4    4    0    0  0.26051990200E+02  0.22489804747E+02 -0.11946214236E+03  0.12432095949E+03  0.00000000000E+00 0.  1.
         14    1    4    4    0    0  0.21305848634E+02 -0.60041222873E+02 -0.26317871499E+03  0.27078021282E+03  0.00000000000E+00 0. -1.
         -5    1    5    5    0  502  0.31936290337E+02  0.50322294726E+02 -0.71820823701E+02  0.93448278230E+02  0.47000000000E+01 0.  1.
         11    1    6    6    0    0 -0.58272344405E+02  0.77709678600E+01 -0.31650377494E+02  0.66766761637E+02  0.00000000000E+00 0. -1.
        -12    1    6    6    0    0  0.99709317730E+00 -0.47039787876E+02 -0.21060003933E+02  0.51548613986E+02  0.00000000000E+00 0.  1.
</event>
<event>
12    1  0.1683022E-002  0.1802071E+03  0.7818608E-02  0.1171088E+00
         21   -1    0    0  501  502  0.00000000000E+00  0.00000000000E+00  0.53226279007E+02  0.53226279007E+02  0.00000000000E+00 0. -1.
         21   -1    0    0  502  503 -0.00000000000E+00 -0.00000000000E+00 -0.58067856005E+03  0.58067856005E+03  0.00000000000E+00 0. -1.
          6    2    1    2  501    0 -0.23360425329E+01 -0.13360859624E+02 -0.22062342379E+03  0.28486713729E+03  0.17969591292E+03 0.  0.
         24    2    3    3    0    0  0.47624422921E+02  0.35617829125E+02 -0.16076802030E+03  0.19267321457E+03  0.87976677886E+02 0.  0.
         -6    2    1    2    0  503  0.23360425329E+01  0.13360859624E+02 -0.30682885725E+03  0.34903770176E+03  0.16582943028E+03 0.  0.
        -24    2    5    5    0    0 -0.13219054674E+02  0.68110977895E+02 -0.21662462001E+03  0.24227426740E+03  0.83407109628E+02 0.  0.
          5    1    3    3  501    0 -0.49960465454E+02 -0.48978688749E+02 -0.59855403498E+02  0.92193922727E+02  0.47000000000E+01 0. -1.
        -13    1    4    4    0    0  0.26120029591E+02  0.26639289093E+02 -0.16484641107E+03  0.16901552269E+03  0.00000000000E+00 0.  1.
         14    1    4    4    0    0  0.21504393330E+02  0.89785400313E+01  0.40783907710E+01  0.23657691875E+02  0.00000000000E+00 0. -1.
         -5    1    5    5    0  503  0.15555097207E+02 -0.54750118271E+02 -0.90204237243E+02  0.10676343436E+03  0.47000000000E+01 0.  1.
         13    1    6    6    0    0  0.19391133594E+02  0.26364784960E+02 -0.16532286329E+03  0.16853120505E+03  0.00000000000E+00 0. -1.
        -14    1    6    6    0    0 -0.32610188268E+02  0.41746192935E+02 -0.51301756715E+02  0.73743062355E+02  0.00000000000E+00 0.  1.
</event>
<event>
12    1  0.1683022E-002  0.1906263E+03  0.7818608E-02  0.1158027E+00
         21   -1    0    0  501  502  0.00000000000E+00  0.00000000000E+00  0.32811456583E+03  0.32811456583E+03  0.00000000000E+00 0.  1.
         21   -1    0    0  502  503 -0.00000000000E+00 -0.00000000000E+00 -0.23404277329E+03  0.23404277329E+03  0.00000000000E+00 0. -1.
          6    2    1    2  501    0  0.73746805834E+02  0.30403807678E+02  0.25135534011E+03  0.31546458043E+03  0.17313408564E+03 0.  0.
         24    2    3    3    0    0  0.35198968003E+02  0.20377799053E+02  0.37291230960E+02  0.97675715984E+02  0.80595828327E+02 0.  0.
         -6    2    1    2    0  503 -0.73746805834E+02 -0.30403807678E+02 -0.15728354756E+03  0.24669275869E+03  0.17249991295E+03 0.  0.
        -24    2    5    5    0    0 -0.47211729700E+02 -0.87603637816E+02 -0.95641980248E+02  0.15838815149E+03  0.77692170554E+02 0.  0.
          5    1    3    3  501    0  0.38547837831E+02  0.10026008625E+02  0.21406410915E+03  0.21778886444E+03  0.47000000000E+01 0. -1.
        -13    1    4    4    0    0  0.37234942795E+02  0.32503323351E+02  0.56375279367E+02  0.74973856227E+02  0.00000000000E+00 0.  1.
         14    1    4    4    0    0 -0.20359747916E+01 -0.12125524298E+02 -0.19084048407E+02  0.22701859757E+02  0.00000000000E+00 0. -1.
         -5    1    5    5    0  503 -0.26535076135E+02  0.57199830138E+02 -0.61641567312E+02  0.88304607207E+02  0.47000000000E+01 0.  1.
         13    1    6    6    0    0  0.17602685029E+02 -0.40547336532E+02 -0.47739728577E+02  0.65061683844E+02  0.00000000000E+00 0. -1.
        -14    1    6    6    0    0 -0.64814414729E+02 -0.47056301284E+02 -0.47902251671E+02  0.93326467641E+02  0.00000000000E+00 0.  1.
</event>
<event>
12    1  0.1683022E-002  0.2164030E+03  0.7818608E-02  0.1136641E+00
         21   -1    0    0  501  502  0.00000000000E+00  0.00000000000E+00  0.43854829135E+03  0.43854829135E+03  0.00000000000E+00 0.  1.
         21   -1    0    0  502  503 -0.00000000000E+00 -0.00000000000E+00 -0.11401444563E+03  0.11401444563E+03  0.00000000000E+00 0.  1.
          6    2    1    2  501    0  0.27190527729E+02 -0.12876396099E+03  0.23233965763E+03  0.31733942065E+03  0.17147334762E+03 0.  0.
         24    2    3    3    0    0  0.79152423356E+02 -0.10512727395E+03  0.19753420588E+03  0.25031523812E+03  0.79505384054E+02 0.  0.
         -6    2    1    2    0  503 -0.27190527729E+02  0.12876396099E+03  0.92194188091E+02  0.23522331633E+03  0.17178695463E+03 0.  0.
        -24    2    5    5    0    0 -0.47722856416E+02 -0.15920844297E+01  0.23308431462E+02  0.86288389049E+02  0.67988214788E+02 0.  0.
          5    1    3    3  501    0 -0.51961895627E+02 -0.23636687042E+02  0.34805451746E+02  0.67024182522E+02  0.47000000000E+01 0. -1.
        -11    1    4    4    0    0  0.33437098467E+02 -0.99081375084E+02  0.15855921635E+03  0.18993731475E+03  0.00000000000E+00 0.  1.
         12    1    4    4    0    0  0.45715324889E+02 -0.60458988633E+01  0.38974989526E+02  0.60377923377E+02  0.00000000000E+00 0. -1.
         -5    1    5    5    0  503  0.20532328687E+02  0.13035604542E+03  0.68885756628E+02  0.14893492728E+03  0.47000000000E+01 0.  1.
         13    1    6    6    0    0 -0.30711843100E+02  0.29568167746E+02  0.27206854915E+02  0.50573775861E+02  0.00000000000E+00 0. -1.
        -14    1    6    6    0    0 -0.17011013317E+02 -0.31160252176E+02 -0.38984234530E+01  0.35714613188E+02  0.00000000000E+00 0.  1.
</event>
<event>
12    1  0.1683022E-002  0.2660317E+03  0.7818608E-02  0.1103614E+00
         21   -1    0    0  503  502  0.00000000000E+00  0.00000000000E+00  0.13641306331E+03  0.13641306331E+03  0.00000000000E+00 0.  1.
         21   -1    0    0  501  503 -0.00000000000E+00 -0.00000000000E+00 -0.51839046395E+03  0.51839046395E+03  0.00000000000E+00 0.  1.
          6    2    1    2  501    0 -0.14486950941E+03 -0.14297125301E+03 -0.18578341348E+03  0.32425106603E+03  0.17086638976E+03 0.  0.
         24    2    3    3    0    0 -0.91324343259E+02 -0.93161814181E+02 -0.19793462420E+03  0.24996912383E+03  0.79291790985E+02 0.  0.
         -6    2    1    2    0  502  0.14486950941E+03  0.14297125301E+03 -0.19619398716E+03  0.33055246123E+03  0.17130351743E+03 0.  0.
        -24    2    5    5    0    0  0.15860992439E+03  0.13313570334E+03 -0.21237456036E+03  0.30668956135E+03  0.77931441239E+02 0.  0.
          5    1    3    3  501    0 -0.53545166153E+02 -0.49809438832E+02  0.12151210718E+02  0.74281942200E+02  0.47000000000E+01 0. -1.
        -11    1    4    4    0    0 -0.47245277684E+02 -0.17006398604E+02 -0.12823837587E+03  0.13771860768E+03  0.00000000000E+00 0.  1.
         12    1    4    4    0    0 -0.44079065574E+02 -0.76155415577E+02 -0.69696248334E+02  0.11225051615E+03  0.00000000000E+00 0. -1.
         -5    1    5    5    0  502 -0.13740414982E+02  0.98355496713E+01  0.16180573205E+02  0.23862899875E+02  0.47000000000E+01 0.  1.
         13    1    6    6    0    0  0.31976931076E+02  0.36566346693E+02 -0.10185086362E+03  0.11284157147E+03  0.00000000000E+00 0. -1.
        -14    1    6    6    0    0  0.12663299332E+03  0.96569356648E+02 -0.11052369674E+03  0.19384798988E+03  0.00000000000E+00 0.  1.
</event>
<event>
12    1  0.1683022E-002  0.4128981E+03  0.7818608E-02  0.1039465E+00
         21   -1    0    0  503  502  0.00000000000E+00  0.00000000000E+00  0.60344715748E+03  0.60344715748E+03  0.00000000000E+00 0.  1.
         21   -1    0    0  501  503 -0.00000000000E+00 -0.00000000000E+00 -0.28485166609E+03  0.28485166609E+03  0.00000000000E+00 0. -1.
          6    2    1    2  501    0  0.26880037593E+03  0.26153411564E+03  0.11477041404E+03  0.42783220165E+03  0.17092223111E+03 0.  0.
         24    2    3    3    0    0  0.18342864707E+03  0.91393176493E+02  0.58138748797E+02  0.22917292860E+03  0.84506424688E+02 0.  0.
         -6    2    1    2    0  502 -0.26880037593E+03 -0.26153411564E+03  0.20382507735E+03  0.46046662192E+03  0.17271685498E+03 0.  0.
        -24    2    5    5    0    0 -0.56347367888E+02 -0.14165276415E+03  0.84291964748E+02  0.18877180402E+03  0.72726385943E+02 0.  0.
          5    1    3    3  501    0  0.85371728859E+02  0.17014093915E+03  0.56631665248E+02  0.19865927306E+03  0.47000000000E+01 0. -1.
        -11    1    4    4    0    0  0.13792882950E+03  0.59426302992E+02  0.79104500373E+02  0.16974501311E+03  0.00000000000E+00 0.  1.
         12    1    4    4    0    0  0.45499817567E+02  0.31966873501E+02 -0.20965751576E+02  0.59427915488E+02  0.00000000000E+00 0. -1.
         -5    1    5    5    0  502 -0.21245300804E+03 -0.11988135149E+03  0.11953311260E+03  0.27169481789E+03  0.47000000000E+01 0.  1.
         13    1    6    6    0    0 -0.63457909275E+02 -0.13899779620E+03  0.61432635426E+02  0.16468534329E+03  0.00000000000E+00 0. -1.
        -14    1    6    6    0    0  0.71105413876E+01 -0.26549679523E+01  0.22859329322E+02  0.24086460734E+02  0.00000000000E+00 0.  1.
</event>
<event>
12    1  0.1683022E-002  0.2013846E+03  0.7818608E-02  0.1148804E+00
         21   -1    0    0  503  502  0.00000000000E+00  0.00000000000E+00  0.87495450527E+02  0.87495450527E+02  0.00000000000E+00 0.  1.
         21   -1    0    0  501  503 -0.00000000000E+00 -0.00000000000E+00 -0.55413726661E+03  0.55413726661E+03  0.00000000000E+00 0.  1.
          6    2    1    2  501    0  0.10373185724E+03  0.28922815659E+02 -0.36430705879E+03  0.41573860871E+03  0.16888496149E+03 0.  0.
         24    2    3    3    0    0  0.70862918572E+02 -0.41291303376E+02 -0.15988240059E+03  0.19705637230E+03  0.80884528086E+02 0.  0.
         -6    2    1    2    0  502 -0.10373185724E+03 -0.28922815659E+02 -0.10233475729E+03  0.22589410843E+03  0.17017320059E+03 0.  0.
        -24    2    5    5    0    0 -0.13333845273E+03  0.45313828669E+01 -0.83716870132E+02  0.17726850182E+03  0.81338373387E+02 0.  0.
          5    1    3    3  501    0  0.32868938670E+02  0.70214119036E+02 -0.20442465820E+03  0.21868223641E+03  0.47000000000E+01 0. -1.
        -13    1    4    4    0    0 -0.13881556510E+02 -0.81466832259E+01 -0.59189087585E+02  0.61338520914E+02  0.00000000000E+00 0.  1.
         14    1    4    4    0    0  0.84744475082E+02 -0.33144620150E+02 -0.10069331301E+03  0.13571785139E+03  0.00000000000E+00 0. -1.
         -5    1    5    5    0  502  0.29606595489E+02 -0.33454198526E+02 -0.18617887163E+02  0.48625606607E+02  0.47000000000E+01 0.  1.
         13    1    6    6    0    0 -0.43648653946E+02 -0.99501638357E+01 -0.73207722936E+02  0.85811313060E+02  0.00000000000E+00 0. -1.
        -14    1    6    6    0    0 -0.89689798785E+02  0.14481546703E+02 -0.10509147196E+02  0.91457188759E+02  0.00000000000E+00 0.  1.
</event>
<event>
12    1  0.1683022E-002  0.1883848E+03  0.7818608E-02  0.1160473E+00
         21   -1    0    0  501  502  0.00000000000E+00  0.00000000000E+00  0.91966842107E+02  0.91966842107E+02  0.00000000000E+00 0.  1.
         21   -1    0    0  502  503 -0.00000000000E+00 -0.00000000000E+00 -0.46957933629E+03  0.46957933629E+03  0.00000000000E+00 0.  1.
          6    2    1    2  501    0  0.10297784146E+01  0.67698792034E+02 -0.67853319512E+02  0.20023211560E+03  0.17579715659E+03 0.  0.
         24    2    3    3    0    0 -0.28350525128E+01  0.23613670664E+02  0.31080508419E+02  0.91749733839E+02  0.82984171327E+02 0.  0.
         -6    2    1    2    0  503 -0.10297784146E+01 -0.67698792034E+02 -0.30975917467E+03  0.36131406279E+03  0.17324237008E+03 0.  0.
        -24    2    5    5    0    0 -0.17236955342E+02 -0.11201230598E+03 -0.22523235701E+03  0.26439537003E+03  0.79570269131E+02 0.  0.
          5    1    3    3  501    0  0.38648309274E+01  0.44085121370E+02 -0.98933827931E+02  0.10848238177E+03  0.47000000000E+01 0. -1.
        -13    1    4    4    0    0  0.36234979315E+02  0.24819384350E+02  0.38030847894E+01  0.44084453262E+02  0.00000000000E+00 0.  1.
         14    1    4    4    0    0 -0.39070031828E+02 -0.12057136866E+01  0.27277423630E+02  0.47665280576E+02  0.00000000000E+00 0. -1.
         -5    1    5    5    0  503  0.16207176927E+02  0.44313513948E+02 -0.84526817663E+02  0.96918692761E+02  0.47000000000E+01 0.  1.
         11    1    6    6    0    0  0.89554341774E+01 -0.36854845255E+02 -0.17176274098E+02  0.41635367321E+02  0.00000000000E+00 0. -1.
        -12    1    6    6    0    0 -0.26192389519E+02 -0.75157460727E+02 -0.20805608291E+03  0.22276000271E+03  0.00000000000E+00 0.  1.
</event>
<event>
12    1  0.1683022E-002  0.1833578E+03  0.7818608E-02  0.1164882E+00
         21   -1    0    0  503  502  0.00000000000E+00  0.00000000000E+00  0.18702424762E+04  0.18702424762E+04  0.00000000000E+00 0.  1.
         21   -1    0    0  501  503 -0.00000000000E+00 -0.00000000000E+00 -0.18056486641E+02  0.18056486641E+02  0.00000000000E+00 0.  1.
          6    2    1    2  501    0  0.63402628812E+01  0.59733667964E+02  0.10223557182E+04  0.10384528908E+04  0.17194441493E+03 0.  0.
         24    2    3    3    0    0 -0.54992079031E+02  0.25784581678E+02  0.43378397607E+03  0.44570253671E+03  0.82421113350E+02 0.  0.
         -6    2    1    2    0  502 -0.63402628812E+01 -0.59733667964E+02  0.82983027142E+03  0.84984607212E+03  0.17323901669E+03 0.  0.
        -24    2    5    5    0    0 -0.29199780119E+02  0.28560703805E+02  0.34457598351E+03  0.35607257389E+03  0.79917010106E+02 0.  0.
          5    1    3    3  501    0  0.61332341913E+02  0.33949086286E+02  0.58857174211E+03  0.59275035405E+03  0.47000000000E+01 0. -1.
        -11    1    4    4    0    0  0.95455676012E+00 -0.12377797936E+02  0.84656793730E+01  0.15026269916E+02  0.00000000000E+00 0.  1.
         12    1    4    4    0    0 -0.55946635792E+02  0.38162379613E+02  0.42531829669E+03  0.43067626679E+03  0.00000000000E+00 0. -1.
         -5    1    5    5    0  502  0.22859517238E+02 -0.88294371769E+02  0.48525428791E+03  0.49377349822E+03  0.47000000000E+01 0.  1.
         11    1    6    6    0    0 -0.15908230544E+02  0.13467894445E+02  0.14515408275E+02  0.25399863331E+02  0.00000000000E+00 0. -1.
        -12    1    6    6    0    0 -0.13291549575E+02  0.15092809360E+02  0.33006057524E+03  0.33067271056E+03  0.00000000000E+00 0.  1.
</event>
<event>
12    1  0.1683022E-002  0.2320478E+03  0.7818608E-02  0.1125787E+00
         21   -1    0    0  501  502  0.00000000000E+00  0.00000000000E+00  0.54328583664E+02  0.54328583664E+02  0.00000000000E+00 0.  1.
         21   -1    0    0  502  503 -0.00000000000E+00 -0.00000000000E+00 -0.10181668249E+04  0.10181668249E+04  0.00000000000E+00 0.  1.
          6    2    1    2  501    0  0.15428982918E+03 -0.30423563322E+01 -0.37744496360E+03  0.44306984437E+03  0.17329621786E+03 0.  0.
         24    2    3    3    0    0  0.18004127849E+03 -0.23601680309E+02 -0.33323886701E+03  0.38773367247E+03  0.79481803033E+02 0.  0.
         -6    2    1    2    0  503 -0.15428982918E+03  0.30423563322E+01 -0.58639327767E+03  0.62942556423E+03  0.16883381618E+03 0.  0.
        -24    2    5    5    0    0 -0.14108179017E+02 -0.44168521979E+01 -0.29581045715E+03  0.30667643500E+03  0.79549103878E+02 0.  0.
          5    1    3    3  501    0 -0.25751449311E+02  0.20559323976E+02 -0.44206096592E+02  0.55336171894E+02  0.47000000000E+01 0. -1.
        -11    1    4    4    0    0  0.53760409560E+02 -0.40539530054E+02 -0.15142444112E+03  0.16571963222E+03  0.00000000000E+00 0.  1.
         12    1    4    4    0    0  0.12628086893E+03  0.16937849745E+02 -0.18181442588E+03  0.22201404026E+03  0.00000000000E+00 0. -1.
         -5    1    5    5    0  503 -0.14018165016E+03  0.74592085302E+01 -0.29058282052E+03  0.32274912923E+03  0.47000000000E+01 0.  1.
         11    1    6    6    0    0 -0.30539866905E+02  0.15013785628E+02 -0.26281000511E+03  0.26500414339E+03  0.00000000000E+00 0. -1.
        -12    1    6    6    0    0  0.16431687888E+02 -0.19430637826E+02 -0.33000452045E+02  0.41672291614E+02  0.00000000000E+00 0.  1.
</event>
<event>
12    1  0.1683022E-002  0.2292666E+03  0.7818608E-02  0.1127691E+00
         21   -1    0    0  501  502  0.00000000000E+00  0.00000000000E+00  0.97359258821E+03  0.97359258821E+03  0.00000000000E+00 0. -1.
         21   -1    0    0  502  503 -0.00000000000E+00 -0.00000000000E+00 -0.81142380813E+02  0.81142380813E+02  0.00000000000E+00 0. -1.
          6    2    1    2  501    0  0.14231510225E+03  0.34713288969E+02  0.75715271166E+03  0.79110264166E+03  0.17636484945E+03 0.  0.
         24    2    3    3    0    0  0.13944404453E+03  0.84774044157E+02  0.61962583628E+03  0.64464427340E+03  0.70702065949E+02 0.  0.
         -6    2    1    2    0  503 -0.14231510225E+03 -0.34713288969E+02  0.13529749574E+03  0.26363232736E+03  0.17244706700E+03 0.  0.
        -24    2    5    5    0    0 -0.85058720286E+02 -0.36041169510E+02  0.15847833163E+03  0.20166864691E+03  0.83790869162E+02 0.  0.
          5    1    3    3  501    0  0.28710577147E+01 -0.50060755188E+02  0.13752687538E+03  0.14645836826E+03  0.47000000000E+01 0. -1.
        -13    1    4    4    0    0  0.42487727909E+01  0.31229808428E+02  0.13756050764E+03  0.14112493142E+03  0.00000000000E+00 0.  1.
         14    1    4    4    0    0  0.13519527174E+03  0.53544235729E+02  0.48206532863E+03  0.50351934198E+03  0.00000000000E+00 0. -1.
         -5    1    5    5    0  503 -0.57256381962E+02  0.13278805403E+01 -0.23180835889E+02  0.61963680447E+02  0.47000000000E+01 0.  1.
         13    1    6    6    0    0 -0.37087430308E+02 -0.22524779583E+02  0.92892602429E+01  0.44374920146E+02  0.00000000000E+00 0. -1.
        -14    1    6    6    0    0 -0.47971289978E+02 -0.13516389927E+02  0.14918907139E+03  0.15729372677E+03  0.00000000000E+00 0.  1.
</event>
<event>
12    1  0.1683022E-002  0.2101133E+03  0.7818608E-02  0.1141740E+00
         21   -1    0    0  501  502  0.00000000000E+00  0.00000000000E+00  0.46035909357E+02  0.46035909357E+02  0.00000000000E+00 0. -1.
         21   -1    0    0  502  503 -0.00000000000E+00 -0.00000000000E+00 -0.11186887374E+04  0.11186887374E+04  0.00000000000E+00 0.  1.
          6    2    1    2  501    0 -0.78018290711E+02 -0.89753241683E+02 -0.76194268205E+03  0.79038234354E+03  0.17321980309E+03 0.  0.
         24    2    3    3    0    0 -0.59798757237E+02 -0.12787415566E+03 -0.66604322255E+03  0.68548262088E+03  0.79656501129E+02 0.  0.
         -6    2    1    2    0  503  0.78018290711E+02  0.89753241683E+02 -0.31071014601E+03  0.37434230323E+03  0.17160672211E+03 0.  0.
        -24    2    5    5    0    0  0.32105040745E+02  0.58000307235E+01 -0.54546058783E+02  0.10084952867E+03  0.78300580494E+02 0.  0.
          5    1    3    3  501    0 -0.18219533474E+02  0.38120913979E+02 -0.95899459493E+02  0.10489972266E+03  0.47000000000E+01 0. -1.
        -13    1    4    4    0    0 -0.73273343414E+02 -0.65776794439E+02 -0.41528252138E+03  0.42679637077E+03  0.00000000000E+00 0.  1.
         14    1    4    4    0    0  0.13474586177E+02 -0.62097361223E+02 -0.25076070118E+03  0.25868625011E+03  0.00000000000E+00 0. -1.
         -5    1    5    5    0  503  0.45913249966E+02  0.83953210960E+02 -0.25616408723E+03  0.27349277456E+03  0.47000000000E+01 0.  1.
         11    1    6    6    0    0 -0.14751600220E+02  0.16174379525E+02  0.68357575830E+01  0.22933552795E+02  0.00000000000E+00 0. -1.
        -12    1    6    6    0    0  0.46856640965E+02 -0.10374348801E+02 -0.61381816366E+02  0.77915975871E+02  0.00000000000E+00 0.  1.
</event>
<event>
12    1  0.1683022E-002  0.1811644E+03  0.7818608E-02  0.1167192E+00
         21   -1    0    0  503  502  0.00000000000E+00  0.00000000000E+00  0.25723464944E+03  0.25723464944E+03  0.00000000000E+00 0.  1.
         21   -1    0    0  501  503 -0.00000000000E+00 -0.00000000000E+00 -0.15757983533E+03  0.15757983533E+03  0.00000000000E+00 0.  1.
          6    2    1    2  501    0 -0.37828332040E+02 -0.43548171869E+02 -0.42634561472E+02  0.18611355541E+03  0.17173562151E+03 0.  0.
         24    2    3    3    0    0 -0.85361242262E+01  0.29331738500E+02 -0.61404015990E+02  0.10521919716E+03  0.79796052349E+02 0.  0.
         -6    2    1    2    0  502  0.37828332040E+02  0.43548171869E+02  0.14228937559E+03  0.22870092936E+03  0.16950050946E+03 0.  0.
        -24    2    5    5    0    0  0.27264255760E+02  0.76311326277E+02  0.15446476838E+03  0.19188579410E+03  0.79962710980E+02 0.  0.
          5    1    3    3  501    0 -0.29292207813E+02 -0.72879910369E+02  0.18769454517E+02  0.80894358251E+02  0.47000000000E+01 0. -1.
        -13    1    4    4    0    0 -0.41847107862E+02  0.24996578316E+02 -0.22112312152E+02  0.53525355792E+02  0.00000000000E+00 0.  1.
         14    1    4    4    0    0  0.33310983636E+02  0.43351601845E+01 -0.39291703838E+02  0.51693841366E+02  0.00000000000E+00 0. -1.
         -5    1    5    5    0  502  0.10564076280E+02 -0.32763154408E+02 -0.12175392794E+02  0.36815135259E+02  0.47000000000E+01 0.  1.
         11    1    6    6    0    0 -0.27475628790E+02  0.21482741685E+02  0.34356082512E+02  0.48956703047E+02  0.00000000000E+00 0. -1.
        -12    1    6    6    0    0  0.54739884550E+02  0.54828584593E+02  0.12010868587E+03  0.14292909106E+03  0.00000000000E+00 0.  1.
</event>
<event>
12    1  0.1683022E-002  0.1841042E+03  0.7818608E-02  0.1164060E+00
         21   -1    0    0  503  502  0.00000000000E+00  0.00000000000E+00  0.27347664490E+03  0.27347664490E+03  0.00000000000E+00 0. -1.
         21   -1    0    0  501  503 -0.00000000000E+00 -0.00000000000E+00 -0.12822736436E+03  0.12822736436E+03  0.00000000000E+00 0.  1.
          6    2    1    2  501    0 -0.36744018302E+02 -0.49121926945E+02  0.11125589900E+03  0.21448781719E+03  0.17281221622E+03 0.  0.
         24    2    3    3    0    0  0.25553199919E+02  0.14274839591E+02  0.88714913981E+02  0.12267126416E+03  0.79505760902E+02 0.  0.
         -6    2    1    2    0  502  0.36744018302E+02  0.49121926945E+02  0.33993381537E+02  0.18721619207E+03  0.17358359945E+03 0.  0.
        -24    2    5    5    0    0 -0.27753351809E+02  0.72053237578E+02  0.37892696404E+02  0.11849173926E+03  0.81501645684E+02 0.  0.
          5    1    3    3  501    0 -0.62297218221E+02 -0.63396766536E+02  0.22540985022E+02  0.91816553034E+02  0.47000000000E+01 0. -1.
        -13    1    4    4    0    0  0.93363381925E+01  0.28125962240E+02 -0.17884818759E+01  0.29688981630E+02  0.00000000000E+00 0.  1.
         14    1    4    4    0    0  0.16216861727E+02 -0.13851122650E+02  0.90503395857E+02  0.92982282530E+02  0.00000000000E+00 0. -1.
         -5    1    5    5    0  502  0.64497370112E+02 -0.22931310633E+02 -0.38993148672E+01  0.68724452818E+02  0.47000000000E+01 0.  1.
         13    1    6    6    0    0  0.58129743887E+01  0.48789178905E+02  0.55406782538E+02  0.74054616336E+02  0.00000000000E+00 0. -1.
        -14    1    6    6    0    0 -0.33566326198E+02  0.23264058673E+02 -0.17514086133E+02  0.44437122920E+02  0.00000000000E+00 0.  1.
</event>
<event>
12    1  0.1683022E-002  0.2203392E+03  0.7818608E-02  0.1133789E+00
         21   -1    0    0  501  502  0.00000000000E+00  0.00000000000E+00  0.27356617861E+02  0.27356617861E+02  0.00000000000E+00 0. -1.
         21   -1    0    0  502  503 -0.00000000000E+00 -0.00000000000E+00 -0.17680818336E+04  0.17680818336E+04  0.00000000000E+00 0. -1.
          6    2    1    2  501    0  0.22605719816E+02 -0.13485901670E+03 -0.86134939341E+03  0.88908500669E+03  0.17277557303E+03 0.  0.
         24    2    3    3    0    0  0.62993801104E+02 -0.48722842537E+02 -0.61148631203E+03  0.62168215135E+03  0.78937020069E+02 0.  0.
         -6    2    1    2    0  503 -0.22605719816E+02  0.13485901670E+03 -0.87937582237E+03  0.90635344482E+03  0.17168796406E+03 0.  0.
        -24    2    5    5    0    0 -0.83937524211E+02  0.87955593984E+02 -0.60562660463E+03  0.62188508891E+03  0.71942929466E+02 0.  0.
          5    1    3    3  501    0 -0.40388081288E+02 -0.86136174159E+02 -0.24986308138E+03  0.26740285534E+03  0.47000000000E+01 0. -1.
        -13    1    4    4    0    0 -0.32190460972E+01 -0.96786316729E+01 -0.71008600566E+01  0.12428209138E+02  0.00000000000E+00 0.  1.
         14    1    4    4    0    0  0.66212847202E+02 -0.39044210864E+02 -0.60438545198E+03  0.60925394221E+03  0.00000000000E+00 0. -1.
         -5    1    5    5    0  503  0.61331804395E+02  0.46903422712E+02 -0.27374921775E+03  0.28446835590E+03  0.47000000000E+01 0.  1.
         11    1    6    6    0    0 -0.15356333804E+02  0.65206627567E+00 -0.17157582337E+02  0.23035294874E+02  0.00000000000E+00 0. -1.
        -12    1    6    6    0    0 -0.68581190408E+02  0.87303527708E+02 -0.58846902229E+03  0.59884979404E+03  0.00000000000E+00 0.  1.
</event>
<event>
12    1  0.1683022E-002  0.2266354E+03  0.7818608E-02  0.1130006E+00
         21   -1    0    0  503  502  0.00000000000E+00  0.00000000000E+00  0.85736744619E+02  0.85736744619E+02  0.00000000000E+00 0. -1.
         21   -1    0    0  501  503 -0.00000000000E+00 -0.00000000000E+00 -0.61577793033E+03  0.61577793033E+03  0.00000000000E+00 0. -1.
          6    2    1    2  501    0 -0.12077907784E+03  0.72143182004E+02 -0.18960043551E+03  0.29548594345E+03  0.17768340744E+03 0.  0.
         24    2    3    3    0    0 -0.28761634847E+02  0.55516221815E+02 -0.17281642140E+03  0.20036781295E+03  0.79827704704E+02 0.  0.
         -6    2    1    2    0  502  0.12077907784E+03 -0.72143182004E+02 -0.34044075020E+03  0.40602873150E+03  0.17078408020E+03 0.  0.
        -24    2    5    5    0    0  0.93193696403E+02 -0.11225783409E+03 -0.21841585110E+03  0.27456655222E+03  0.79965125015E+02 0.  0.
          5    1    3    3  501    0 -0.92017442991E+02  0.16626960189E+02 -0.16784014106E+02  0.95118130497E+02  0.47000000000E+01 0. -1.
        -13    1    4    4    0    0 -0.28079248809E+02  0.57173084102E+02 -0.59899205246E+02  0.87436380006E+02  0.00000000000E+00 0.  1.
         14    1    4    4    0    0 -0.68238603723E+00 -0.16568622873E+01 -0.11291721616E+03  0.11293143295E+03  0.00000000000E+00 0. -1.
         -5    1    5    5    0  502  0.27585381435E+02  0.40114652088E+02 -0.12202489910E+03  0.13146217928E+03  0.47000000000E+01 0.  1.
         13    1    6    6    0    0  0.96805625736E+02 -0.76596741404E+02 -0.19796482573E+03  0.23329908314E+03  0.00000000000E+00 0. -1.
        -14    1    6    6    0    0 -0.36119293334E+01 -0.35661092688E+02 -0.20451025376E+02  0.41267469079E+02  0.00000000000E+00 0.  1.
</event>
<event>
12    1  0.1683022E-002  0.2005121E+03  0.7818608E-02  0.1149664E+00
         21   -1    0    0  501  502  0.00000000000E+00  0.00000000000E+00  0.51223381161E+02  0.51223381161E+02  0.00000000000E+00 0.  1.
         21   -1    0    0  502  503 -0.00000000000E+00 -0.00000000000E+00 -0.77981360439E+03  0.77981360439E+03  0.00000000000E+00 0.  1.
          6    2    1    2  501    0 -0.52743975773E+02  0.87254306416E+02 -0.34758359587E+03  0.40127230226E+03  0.17265533143E+03 0.  0.
         24    2    3    3    0    0 -0.95720018044E+02  0.85690103018E+02 -0.29401869245E+03  0.33241973644E+03  0.86895190050E+02 0.  0.
         -6    2    1    2    0  503  0.52743975773E+02 -0.87254306416E+02 -0.38100662736E+03  0.42976468329E+03  0.17069385445E+03 0.  0.
        -24    2    5    5    0    0  0.14369922443E+02 -0.12038540154E+03 -0.30429083789E+03  0.33769058385E+03  0.82115021931E+02 0.  0.
          5    1    3    3  501    0  0.42976042271E+02  0.15642033988E+01 -0.53564903424E+02  0.68852565823E+02  0.47000000000E+01 0. -1.
        -11    1    4    4    0    0 -0.24229601234E+02  0.78977144690E+02 -0.14164674160E+03  0.16397640795E+03  0.00000000000E+00 0.  1.
         12    1    4    4    0    0 -0.71490416810E+02  0.67129583279E+01 -0.15237195085E+03  0.16844332848E+03  0.00000000000E+00 0. -1.
         -5    1    5    5    0  503  0.38374053330E+02  0.33131095126E+02 -0.76715789471E+02  0.92074099438E+02  0.47000000000E+01 0.  1.
         11    1    6    6    0    0 -0.18897410874E+01 -0.57233127923E+01 -0.11921856511E+03  0.11937082432E+03  0.00000000000E+00 0. -1.
        -12    1    6    6    0    0  0.16259663531E+02 -0.11466208875E+03 -0.18507227277E+03  0.21831975954E+03  0.00000000000E+00 0.  1.
</event>
<event>
12    1  0.1683022E-002  0.1770876E+03  0.7818608E-02  0.1170703E+00
         21   -1    0    0  503  502  0.00000000000E+00  0.00000000000E+00  0.81890280348E+02  0.81890280348E+02  0.00000000000E+00 0.  1.
         21   -1    0    0  501  503 -0.00000000000E+00 -0.00000000000E+00 -0.38746379212E+03  0.38746379212E+03  0.00000000000E+00 0. -1.
          6    2    1    2  501    0 -0.42250284586E+02  0.83770290092E+01 -0.12631611577E+03  0.21752190717E+03  0.17176949040E+03 0.  0.
         24    2    3    3    0    0 -0.51567460592E+02  0.10805324102E+02 -0.15876837294E+03  0.18334669128E+03  0.75051015552E+02 0.  0.
         -6    2    1    2    0  502  0.42250284586E+02 -0.83770290092E+01 -0.17925739600E+03  0.25183216530E+03  0.17155455195E+03 0.  0.
        -24    2    5    5    0    0 -0.36284012138E+02 -0.12341592703E+02 -0.54151348117E+02  0.10399114682E+03  0.80080869545E+02 0.  0.
          5    1    3    3  501    0  0.93171760065E+01 -0.24282950925E+01  0.32452257170E+02  0.34175215891E+02  0.47000000000E+01 0. -1.
        -13    1    4    4    0    0 -0.41687835799E+02  0.38524721883E+02 -0.71756291115E+02  0.91493142718E+02  0.00000000000E+00 0.  1.
         14    1    4    4    0    0 -0.98796247931E+01 -0.27719397781E+02 -0.87012081828E+02  0.91853548562E+02  0.00000000000E+00 0. -1.
         -5    1    5    5    0  502  0.78534296723E+02  0.39645636941E+01 -0.12510604788E+03  0.14784101847E+03  0.47000000000E+01 0.  1.
         13    1    6    6    0    0 -0.37950175164E+02 -0.40444090756E+02 -0.51550895344E+02  0.75719449832E+02  0.00000000000E+00 0. -1.
        -14    1    6    6    0    0  0.16661630261E+01  0.28102498053E+02 -0.26004527731E+01  0.28271696989E+02  0.00000000000E+00 0.  1.
</event>
<event>
12    1  0.1683022E-002  0.1816274E+03  0.7818608E-02  0.1166579E+00
         21   -1    0    0  501  502  0.00000000000E+00  0.00000000000E+00  0.60236572766E+03  0.60236572766E+03  0.00000000000E+00 0. -1.
         21   -1    0    0  502  503 -0.00000000000E+00 -0.00000000000E+00 -0.82513424733E+02  0.82513424733E+02  0.00000000000E+00 0. -1.
          6    2    1    2  501    0 -0.17965689159E+02  0.52799476161E+02  0.46070749176E+03  0.49521701596E+03  0.17285239155E+03 0.  0.
         24    2    3    3    0    0  0.32692726986E+02  0.41185628079E+02  0.13760176825E+03  0.16792424922E+03  0.80617842282E+02 0.  0.
         -6    2    1    2    0  503  0.17965689159E+02 -0.52799476161E+02  0.59144811167E+02  0.18966213643E+03  0.17135654828E+03 0.  0.
        -24    2    5    5    0    0  0.26377007354E+02 -0.93668559211E+02  0.71175038028E+02  0.14598321037E+03  0.82314434766E+02 0.  0.
          5    1    3    3  501    0 -0.50658416146E+02  0.11613848082E+02  0.32310572351E+03  0.32729276674E+03  0.47000000000E+01 0. -1.
        -11    1    4    4    0    0  0.42307749043E+02 -0.79716797273E+01  0.42818615090E+02  0.60720071682E+02  0.00000000000E+00 0.  1.
         12    1    4    4    0    0 -0.96150220569E+01  0.49157307806E+02  0.94783153155E+02  0.10720417754E+03  0.00000000000E+00 0. -1.
         -5    1    5    5    0  503 -0.84113181941E+01  0.40869083050E+02 -0.12030226862E+02  0.43678926057E+02  0.47000000000E+01 0.  1.
         11    1    6    6    0    0  0.13029561376E+02 -0.57272298665E+01 -0.16016929321E+02  0.21426914301E+02  0.00000000000E+00 0. -1.
        -12    1    6    6    0    0  0.13347445978E+02 -0.87941329345E+02  0.87191967349E+02  0.12455629607E+03  0.00000000000E+00 0.  1.
</event>
<event>
12    1  0.1683022E-002  0.2460776E+03  0.7818608E-02  0.1115968E+00
         21   -1    0    0  503  502  0.00000000000E+00  0.00000000000E+00  0.17476674780E+04  0.17476674780E+04  0.00000000000E+00 0. -1.
         21   -1    0    0  501  503 -0.00000000000E+00 -0.00000000000E+00 -0.37449620365E+02  0.37449620365E+02  0.00000000000E+00 0.  1.
          6    2    1    2  501    0 -0.40061432012E+02  0.17129995504E+03  0.11067355952E+04  0.11337626912E+04  0.17206268960E+03 0.  0.
         24    2    3    3    0    0 -0.73215765387E+02  0.52381037684E+02  0.56430865261E+03  0.57744443977E+03  0.83027129345E+02 0.  0.
         -6    2    1    2    0  502  0.40061432012E+02 -0.17129995504E+03  0.60348226238E+03  0.65135440720E+03  0.17065500236E+03 0.  0.
        -24    2    5    5    0    0  0.20596983408E+02 -0.13783950937E+03  0.58848657141E+03  0.60957610025E+03  0.76436975298E+02 0.  0.
          5    1    3    3  501    0  0.33154333375E+02  0.11891891736E+03  0.54242694263E+03  0.55631825138E+03  0.47000000000E+01 0. -1.
        -11    1    4    4    0    0 -0.50053614928E+02  0.29765041141E+02  0.51610006975E+03  0.51937520545E+03  0.00000000000E+00 0.  1.
         12    1    4    4    0    0 -0.23162150459E+02  0.22615996543E+02  0.48208582853E+02  0.58069234317E+02  0.00000000000E+00 0. -1.
         -5    1    5    5    0  502  0.19464448604E+02 -0.33460445668E+02  0.14995690971E+02  0.41778306948E+02  0.47000000000E+01 0.  1.
         11    1    6    6    0    0 -0.25638258002E+01 -0.21640041845E+02  0.25006027005E+03  0.25100797452E+03  0.00000000000E+00 0. -1.
        -12    1    6    6    0    0  0.23160809209E+02 -0.11619946753E+03  0.33842630136E+03  0.35856812573E+03  0.00000000000E+00 0.  1.
</event>
<event>
12    1  0.1683022E-002  0.1926362E+03  0.7818608E-02  0.1156906E+00
         21   -1    0    0  501  502  0.00000000000E+00  0.00000000000E+00  0.87760175714E+02  0.87760175714E+02  0.00000000000E+00 0. -1.
         21   -1    0    0  502  503 -0.00000000000E+00 -0.00000000000E+00 -0.41630663451E+03  0.41630663451E+03  0.00000000000E+00 0. -1.
          6    2    1    2  501    0 -0.70984846066E+02  0.33406884754E+02 -0.17674729504E+03  0.25880835648E+03  0.17200956590E+03 0.  0.
         24    2    3    3    0    0  0.60314995965E+01 -0.27832725514E+01 -0.23114271369E+02  0.83119879493E+02  0.79564560154E+02 0.  0.
         -6    2    1    2    0  503  0.70984846066E+02 -0.33406884754E+02 -0.15179916376E+03  0.24525845374E+03  0.17593707595E+03 0.  0.
        -24    2    5    5    0    0  0.13284288809E+02 -0.82960651705E+02 -0.94985858845E+02  0.15020703744E+03  0.80504028806E+02 0.  0.
          5    1    3    3  501    0 -0.77016345663E+02  0.36190157306E+02 -0.15363302367E+03  0.17568847699E+03  0.47000000000E+01 0. -1.
        -13    1    4    4    0    0  0.33673008489E+02 -0.26564118110E+02 -0.79072854362E+01  0.43612487141E+02  0.00000000000E+00 0.  1.
         14    1    4    4    0    0 -0.27641508893E+02  0.23780845558E+02 -0.15206985933E+02  0.39507392352E+02  0.00000000000E+00 0. -1.
         -5    1    5    5    0  503  0.57700557257E+02  0.49553766950E+02 -0.56813304912E+02  0.95051416306E+02  0.47000000000E+01 0.  1.
         11    1    6    6    0    0 -0.24723331548E+02 -0.52144620347E+02 -0.80742590359E+02  0.99245505953E+02  0.00000000000E+00 0. -1.
        -12    1    6    6    0    0  0.38007620357E+02 -0.30816031358E+02 -0.14243268486E+02  0.50961531483E+02  0.00000000000E+00 0.  1.
</event>
<event>
12    1  0.1683022E-002  0.2337306E+03  0.7818608E-02  0.1124392E+00
         21   -1    0    0  501  502  0.00000000000E+00  0.00000000000E+00  0.20365625639E+03  0.20365625639E+03  0.00000000000E+00 0. -1.
         21   -1    0    0  502  503 -0.00000000000E+00 -0.00000000000E+00 -0.27395737046E+03  0.27395737046E+03  0.00000000000E+00 0. -1.
          6    2    1    2  501    0 -0.13345434917E+03 -0.80938755271E+02  0.55830276407E+01  0.23379727682E+03  0.17397945578E+03 0.  0.
         24    2    3    3    0    0 -0.87033195737E+02  0.85425850364E+01  0.44044575571E+02  0.12580091383E+03  0.78982228152E+02 0.  0.
         -6    2    1    2    0  503  0.13345434917E+03  0.80938755271E+02 -0.75884141704E+02  0.24381635004E+03  0.17125088078E+03 0.  0.
        -24    2    5    5    0    0  0.13214504140E+03  0.72388262861E+02 -0.53679686922E+01  0.17261630886E+03  0.84054758527E+02 0.  0.
          5    1    3    3  501    0 -0.46421153429E+02 -0.89481340308E+02 -0.38461547930E+02  0.10799636299E+03  0.47000000000E+01 0. -1.
        -13    1    4    4    0    0 -0.17489033450E+02 -0.32533999355E+02  0.16608535927E+02  0.40499023083E+02  0.00000000000E+00 0.  1.
         14    1    4    4    0    0 -0.69544162287E+02  0.41076584392E+02  0.27436039644E+02  0.85301890746E+02  0.00000000000E+00 0. -1.
         -5    1    5    5    0  503  0.13093077706E+01  0.85504924106E+01 -0.70516173012E+02  0.71200041176E+02  0.47000000000E+01 0.  1.
         13    1    6    6    0    0  0.36838395396E+02  0.66043038536E+02  0.84944125231E+01  0.76097998387E+02  0.00000000000E+00 0. -1.
        -14    1    6    6    0    0  0.95306646000E+02  0.63452243243E+01 -0.13862381215E+02  0.96518310472E+02  0.00000000000E+00 0.  1.
</event>
<event>
12    1  0.1683022E-002  0.1854306E+03  0.7818608E-02  0.1162893E+00
         21   -1    0    0  501  502  0.00000000000E+00  0.00000000000E+00  0.30136980038E+02  0.30136980038E+02  0.00000000000E+00 0. -1.
         21   -1    0    0  502  503 -0.00000000000E+00 -0.00000000000E+00 -0.11921748250E+04  0.11921748250E+04  0.00000000000E+00 0. -1.
          6    2    1    2  501    0 -0.62652277243E+02 -0.23086859006E+02 -0.44503577535E+03  0.48171982786E+03  0.17186867171E+03 0.  0.
         24    2    3    3    0    0 -0.31663274237E+02  0.28929755757E+02 -0.38714372743E+03  0.39781735036E+03  0.80863371537E+02 0.  0.
         -6    2    1    2    0  503  0.62652277243E+02  0.23086859006E+02 -0.71700206963E+03  0.74059197719E+03  0.17299190132E+03 0.  0.
        -24    2    5    5    0    0 -0.22828997191E+02  0.41632298247E+02 -0.47274715737E+03  0.48110491825E+03  0.75615184923E+02 0.  0.
          5    1    3    3  501    0 -0.30989003006E+02 -0.52016614763E+02 -0.57892047914E+02  0.83902477498E+02  0.47000000000E+01 0. -1.
        -11    1    4    4    0    0 -0.30752162841E+01 -0.27415408406E+02 -0.14254233832E+03  0.14518739541E+03  0.00000000000E+00 0.  1.
         12    1    4    4    0    0 -0.28588057953E+02  0.56345164163E+02 -0.24460138911E+03  0.25262995495E+03  0.00000000000E+00 0. -1.
         -5    1    5    5    0  503  0.85481274434E+02 -0.18545439241E+02 -0.24425491226E+03  0.25948705894E+03  0.47000000000E+01 0.  1.
         13    1    6    6    0    0 -0.15508792406E+02  0.16262273029E+02 -0.43178707221E+03  0.43237143742E+03  0.00000000000E+00 0. -1.
        -14    1    6    6    0    0 -0.73202047846E+01  0.25370025217E+02 -0.40960085159E+02  0.48733480830E+02  0.00000000000E+00 0.  1.
</event>
<event>
12    1  0.1683022E-002  0.1869616E+03  0.7818608E-02  0.1161568E+00
         21   -1    0    0  503  502  0.00000000000E+00  0.00000000000E+00  0.58381161949E+02  0.58381161949E+02  0.00000000000E+00 0. -1.
         21   -1    0    0  501  503 -0.00000000000E+00 -0.00000000000E+00 -0.60826021806E+03  0.60826021806E+03  0.00000000000E+00 0. -1.
          6    2    1    2  501    0 -0.83587726908E+01  0.71501972476E+02 -0.22508380493E+03  0.29260445274E+03  0.17254635717E+03 0.  0.
         24    2    3    3    0    0  0.16110668907E+02  0.20386463336E+02 -0.22029762470E+03  0.23553829493E+03  0.79196485954E+02 0.  0.
         -6    2    1    2    0  502  0.83587726908E+01 -0.71501972476E+02 -0.32479525118E+03  0.37403692727E+03  0.17096568843E+03 0.  0.
        -24    2    5    5    0    0 -0.51154609907E+02 -0.42665344976E+02 -0.11667564382E+03  0.15561244429E+03  0.78516884692E+02 0.  0.
          5    1    3    3  501    0 -0.24469441598E+02  0.51115509140E+02 -0.47861802285E+01  0.57066157817E+02  0.47000000000E+01 0. -1.
        -13    1    4    4    0    0 -0.18075626800E+02 -0.76222591127E+01 -0.15767797104E+03  0.15889357970E+03  0.00000000000E+00 0.  1.
         14    1    4    4    0    0  0.34186295708E+02  0.28008722449E+02 -0.62619653658E+02  0.76644715224E+02  0.00000000000E+00 0. -1.
         -5    1    5    5    0  502  0.59513382598E+02 -0.28836627500E+02 -0.20811960736E+03  0.21842448297E+03  0.47000000000E+01 0.  1.
         13    1    6    6    0    0 -0.26695501235E+02 -0.47112404373E+02 -0.11890297663E+03  0.13065276990E+03  0.00000000000E+00 0. -1.
        -14    1    6    6    0    0 -0.24459108672E+02  0.44470593971E+01  0.22273328086E+01  0.24959674392E+02  0.00000000000E+00 0.  1.
</event>
<event>
12    1  0.1683022E-002  0.2087372E+03  0.7818608E-02  0.1144355E+00
         21   -1    0    0  503  502  0.00000000000E+00  0.00000000000E+00  0.89929943527E+02  0.89929943527E+02  0.00000000000E+00 0.  1.
         21   -1    0    0  501  503 -0.00000000000E+00 -0.00000000000E+00 -0.64020513885E+03  0.64020513885E+03  0.00000000000E+00 0.  1.
          6    2    1    2  501    0  0.57952081907E+02 -0.10147682156E+03 -0.47067491296E+03  0.51488454957E+03  0.17296021677E+03 0.  0.
         24    2    3    3    0    0 -0.25723716558E+01 -0.84458961101E+02 -0.41773399177E+03  0.43255807636E+03  0.73924747846E+02 0.  0.
         -6    2    1    2    0  502 -0.57952081907E+02  0.10147682156E+03 -0.79600282362E+02  0.21525053281E+03  0.16229786754E+03 0.  0.
        -24    2    5    5    0    0 -0.20081336965E+02  0.12723787166E+03 -0.46815907521E+02  0.15872858788E+03  0.80064344954E+02 0.  0.
          5    1    3    3  501    0  0.60524453563E+02 -0.17017860462E+02 -0.52940921192E+02  0.82326473205E+02  0.47000000000E+01 0. -1.
        -11    1    4    4    0    0 -0.11472130617E+02 -0.80917761104E+02 -0.22159922825E+03  0.23618956752E+03  0.00000000000E+00 0.  1.
         12    1    4    4    0    0  0.88997589612E+01 -0.35411999978E+01 -0.19613476352E+03  0.19636850885E+03  0.00000000000E+00 0. -1.
         -5    1    5    5    0  502 -0.37870744942E+02 -0.25761050100E+02 -0.32784374841E+02  0.56521944928E+02  0.47000000000E+01 0.  1.
         11    1    6    6    0    0  0.20495627129E+02  0.35621375412E+02 -0.41472627120E+02  0.58386059277E+02  0.00000000000E+00 0. -1.
        -12    1    6    6    0    0 -0.40576964094E+02  0.91616496251E+02 -0.53432804006E+01  0.10034252860E+03  0.00000000000E+00 0.  1.
</event>
<event>
12    1  0.1683022E-002  0.2302968E+03  0.7818608E-02  0.1126602E+00
         21   -1    0    0  503  502  0.00000000000E+00  0.00000000000E+00  0.14458185297E+04  0.14458185297E+04  0.00000000000E+00 0. -1.
         21   -1    0    0  501  503 -0.00000000000E+00 -0.00000000000E+00 -0.50948843405E+02  0.50948843405E+02  0.00000000000E+00 0.  1.
          6    2    1    2  501    0  0.86110442432E+02 -0.12523984630E+03  0.29823087720E+03  0.37620800121E+03  0.17172878811E+03 0.  0.
         24    2    3    3    0    0  0.12280983004E+03 -0.84666718894E+02  0.18904239977E+03  0.25399001022E+03  0.80766259914E+02 0.  0.
         -6    2    1    2    0  502 -0.86110442432E+02  0.12523984630E+03  0.10966388091E+04  0.11205593719E+04  0.17302196660E+03 0.  0.
        -24    2    5    5    0    0 -0.91026736570E+02  0.49559150738E+02  0.90670926006E+03  0.91599382928E+03  0.78619570116E+02 0.  0.
          5    1    3    3  501    0 -0.36699387606E+02 -0.40573127401E+02  0.10918847743E+03  0.12221799099E+03  0.47000000000E+01 0. -1.
        -13    1    4    4    0    0  0.74291475910E+02 -0.42263524355E+02  0.45908611849E+02  0.97020768528E+02  0.00000000000E+00 0.  1.
         14    1    4    4    0    0  0.48518354128E+02 -0.42403194539E+02  0.14313378792E+03  0.15696924169E+03  0.00000000000E+00 0. -1.
         -5    1    5    5    0  502  0.49162941380E+01  0.75680695557E+02  0.18992954904E+03  0.20456554262E+03  0.47000000000E+01 0.  1.
         13    1    6    6    0    0 -0.43557121342E+02  0.50635711160E+02  0.29603355176E+03  0.30347497728E+03  0.00000000000E+00 0. -1.
        -14    1    6    6    0    0 -0.47469615227E+02 -0.10765604219E+01  0.61067570830E+03  0.61251885200E+03  0.00000000000E+00 0.  1.
</event>
<event>
12    1  0.1683022E-002  0.1836672E+03  0.7818608E-02  0.1164511E+00
         21   -1    0    0  503  502  0.00000000000E+00  0.00000000000E+00  0.44213396480E+02  0.44213396480E+02  0.00000000000E+00 0. -1.
         21   -1    0    0  501  503 -0.00000000000E+00 -0.00000000000E+00 -0.12985165951E+04  0.12985165951E+04  0.00000000000E+00 0. -1.
          6    2    1    2  501    0  0.39334633241E+02 -0.48177414061E+02 -0.10588979821E+04  0.10745568296E+04  0.17186962200E+03 0.  0.
         24    2    3    3    0    0  0.86881066081E+02 -0.42291454995E+01 -0.68259257716E+03  0.69269303010E+03  0.79528625325E+02 0.  0.
         -6    2    1    2    0  502 -0.39334633241E+02  0.48177414061E+02 -0.19540521651E+03  0.26817316196E+03  0.17281599914E+03 0.  0.
        -24    2    5    5    0    0  0.82704534298E+01  0.84264506332E+02 -0.89901031916E+02  0.14683996175E+03  0.79440993204E+02 0.  0.
          5    1    3    3  501    0 -0.47546432841E+02 -0.43948268562E+02 -0.37630540494E+03  0.38186379951E+03  0.47000000000E+01 0. -1.
        -13    1    4    4    0    0 -0.46959539328E+01  0.11695471172E+02 -0.20190713237E+02  0.23801280013E+02  0.00000000000E+00 0.  1.
         14    1    4    4    0    0  0.91577020014E+02 -0.15924616671E+02 -0.66240186392E+03  0.66889175009E+03  0.00000000000E+00 0. -1.
         -5    1    5    5    0  502 -0.47605086670E+02 -0.36087092271E+02 -0.10550418459E+03  0.12133320021E+03  0.47000000000E+01 0.  1.
         11    1    6    6    0    0  0.73391337261E+00  0.95270132685E+01 -0.67898200266E+02  0.68567253190E+02  0.00000000000E+00 0. -1.
        -12    1    6    6    0    0  0.75365400572E+01  0.74737493063E+02 -0.22002831650E+02  0.78272708564E+02  0.00000000000E+00 0.  1.
</event>
<event>
12    1  0.1683022E-002  0.2206219E+03  0.7818608E-02  0.1133953E+00
         21   -1    0    0  503  502  0.00000000000E+00  0.00000000000E+00  0.23556264405E+03  0.23556264405E+03  0.00000000000E+00 0. -1.
         21   -1    0    0  501  503 -0.00000000000E+00 -0.00000000000E+00 -0.22582887159E+03  0.22582887159E+03  0.00000000000E+00 0. -1.
          6    2    1    2  501    0  0.58659997145E+02  0.12054550906E+03  0.76609361196E+02  0.23085655755E+03  0.17162033948E+03 0.  0.
         24    2    3    3    0    0 -0.20503095842E+02  0.79755284323E+02  0.14844698202E+02  0.12237798216E+03  0.89301305339E+02 0.  0.
         -6    2    1    2    0  502 -0.58659997145E+02 -0.12054550906E+03 -0.66875588746E+02  0.23053495809E+03  0.17521931261E+03 0.  0.
        -24    2    5    5    0    0 -0.70385605136E+02 -0.62483057303E+01 -0.25768630205E+02  0.10841529296E+03  0.78081231480E+02 0.  0.
          5    1    3    3  501    0  0.79163092987E+02  0.40790224735E+02  0.61764662994E+02  0.10847857540E+03  0.47000000000E+01 0. -1.
        -13    1    4    4    0    0 -0.41389415594E+02  0.24603713673E+02  0.35574967427E+02  0.59866557919E+02  0.00000000000E+00 0.  1.
         14    1    4    4    0    0  0.20886319752E+02  0.55151570650E+02 -0.20730269224E+02  0.62511424236E+02  0.00000000000E+00 0. -1.
         -5    1    5    5    0  502  0.11725607991E+02 -0.11429720333E+03 -0.41106958541E+02  0.12211966513E+03  0.47000000000E+01 0.  1.
         13    1    6    6    0    0  0.30625813373E+01 -0.16064065929E+02  0.16396376061E+02  0.23157607099E+02  0.00000000000E+00 0. -1.
        -14    1    6    6    0    0 -0.73448186474E+02  0.98157601983E+01 -0.42165006266E+02  0.85257685858E+02  0.00000000000E+00 0.  1.
</event>
<event>
12    1  0.1683022E-002  0.2088239E+03  0.7818608E-02  0.1142659E+00
         21   -1    0    0  503  502  0.00000000000E+00  0.00000000000E+00  0.10178064532E+03  0.10178064532E+03  0.00000000000E+00 0. -1.
         21   -1    0    0  501  503 -0.00000000000E+00 -0.00000000000E+00 -0.50843910583E+03  0.50843910583E+03  0.00000000000E+00 0.  1.
          6    2    1    2  501    0 -0.20306274287E+02  0.11615495018E+03 -0.80756236683E+02  0.22315428771E+03  0.17138246449E+03 0.  0.
         24    2    3    3    0    0  0.26654179151E+02  0.95733357099E+02  0.64891582255E+00  0.12686714161E+03  0.78863994317E+02 0.  0.
         -6    2    1    2    0  502  0.20306274287E+02 -0.11615495018E+03 -0.32590222383E+03  0.38706546343E+03  0.17234586232E+03 0.  0.
        -24    2    5    5    0    0 -0.48242981120E+02 -0.89157419996E+02 -0.15992724117E+03  0.20541290517E+03  0.79632332478E+02 0.  0.
          5    1    3    3  501    0 -0.46960453437E+02  0.20421593083E+02 -0.81405152505E+02  0.96287146107E+02  0.47000000000E+01 0. -1.
        -13    1    4    4    0    0  0.20413874663E+02  0.15816667595E+01  0.22073037806E+02  0.30107257372E+02  0.00000000000E+00 0.  1.
         14    1    4    4    0    0  0.62403044877E+01  0.94151690340E+02 -0.21424121984E+02  0.96759884233E+02  0.00000000000E+00 0. -1.
         -5    1    5    5    0  502  0.68549255406E+02 -0.26997530187E+02 -0.16597498266E+03  0.18165255826E+03  0.47000000000E+01 0.  1.
         13    1    6    6    0    0 -0.64327811580E+02 -0.63144899378E+02 -0.14650199912E+03  0.17201215482E+03  0.00000000000E+00 0. -1.
        -14    1    6    6    0    0  0.16084830460E+02 -0.26012520618E+02 -0.13425242044E+02  0.33400750347E+02  0.00000000000E+00 0.  1.
</event>
<event>
12    1  0.1683022E-002  0.1926888E+03  0.7818608E-02  0.1156216E+00
         21   -1    0    0  503  502  0.00000000000E+00  0.00000000000E+00  0.37581826183E+03  0.37581826183E+03  0.00000000000E+00 0. -1.
         21   -1    0    0  501  503 -0.00000000000E+00 -0.00000000000E+00 -0.98991158835E+02  0.98991158835E+02  0.00000000000E+00 0. -1.
          6    2    1    2  501    0  0.28567434347E+02 -0.80955875082E+02  0.15652851049E+03  0.24825416255E+03  0.17250797840E+03 0.  0.
         24    2    3    3    0    0  0.53215786079E+02  0.11003559092E+02  0.81809655980E+02  0.12713820160E+03  0.80736016093E+02 0.  0.
         -6    2    1    2    0  502 -0.28567434347E+02  0.80955875082E+02  0.12029859250E+03  0.22655525811E+03  0.17171366167E+03 0.  0.
        -24    2    5    5    0    0 -0.37007444480E+02  0.10565001258E+03  0.42566769499E+02  0.14442511441E+03  0.80716836545E+02 0.  0.
          5    1    3    3  501    0 -0.24648351731E+02 -0.91959434174E+02  0.74718854512E+02  0.12111596095E+03  0.47000000000E+01 0. -1.
        -13    1    4    4    0    0  0.58188935399E+02 -0.20915516320E+02  0.68274481355E+02  0.92113060041E+02  0.00000000000E+00 0.  1.
         14    1    4    4    0    0 -0.49731493204E+01  0.31919075412E+02  0.13535174624E+02  0.35025141562E+02  0.00000000000E+00 0. -1.
         -5    1    5    5    0  502  0.84400101327E+01 -0.24694137495E+02  0.77731823001E+02  0.82130143704E+02  0.47000000000E+01 0.  1.
         11    1    6    6    0    0 -0.61941892012E+02  0.86085912709E+02  0.28985793038E+02  0.10994434297E+03  0.00000000000E+00 0. -1.
        -12    1    6    6    0    0  0.24934447532E+02  0.19564099869E+02  0.13580976461E+02  0.34480771439E+02  0.00000000000E+00 0.  1.
</event>
<event>
12    1  0.1683022E-002  0.1824215E+03  0.7818608E-02  0.1165527E+00
         21   -1    0    0  501  502  0.00000000000E+00  0.00000000000E+00  0.36676158118E+03  0.36676158118E+03  0.00000000000E+00 0.  1.
         21   -1    0    0  502  503 -0.00000000000E+00 -0.00000000000E+00 -0.47968169204E+03  0.47968169204E+03  0.00000000000E+00 0. -1.
          6    2    1    2  501    0 -0.39749638687E+02  0.43806369049E+02  0.32468068797E+03  0.37241798860E+03  0.17256470481E+03 0.  0.
         24    2    3    3    0    0 -0.24256005099E+02  0.57637615829E+02  0.33429775656E+03  0.34905275637E+03  0.78564547649E+02 0.  0.
         -6    2    1    2    0  503  0.39749638687E+02 -0.43806369049E+02 -0.43760079883E+03  0.47402528462E+03  0.17235567752E+03 0.  0.
        -24    2    5    5    0    0  0.66923970201E+02 -0.17193953059E+02 -0.41833747850E+03  0.43113203937E+03  0.78064970614E+02 0.  0.
          5    1    3    3  501    0 -0.15493633588E+02 -0.13831246779E+02 -0.96170685836E+01  0.23365232234E+02  0.47000000000E+01 0. -1.
        -13    1    4    4    0    0  0.13154340253E+02  0.35087809745E+02  0.26138113410E+03  0.26405357093E+03  0.00000000000E+00 0.  1.
         14    1    4    4    0    0 -0.37410345352E+02  0.22549806084E+02  0.72916622461E+02  0.84999185437E+02  0.00000000000E+00 0. -1.
         -5    1    5    5    0  503 -0.27174331515E+02 -0.26612415990E+02 -0.19263320326E+02  0.42893245250E+02  0.47000000000E+01 0.  1.
         11    1    6    6    0    0 -0.56865937663E+01 -0.29384428259E+02 -0.14466146965E+03  0.14772515959E+03  0.00000000000E+00 0. -1.
        -12    1    6    6    0    0  0.72610563968E+02  0.12190475200E+02 -0.27367600885E+03  0.28340687978E+03  0.00000000000E+00 0.  1.
</event>
<event>
12    1  0.1683022E-002  0.2195586E+03  0.7818608E-02  0.1134304E+00
         21   -1    0    0  501  502  0.00000000000E+00  0.00000000000E+00  0.66460864066E+03  0.66460864066E+03  0.00000000000E+00 0. -1.
         21   -1    0    0  502  503 -0.00000000000E+00 -0.00000000000E+00 -0.73331064265E+02  0.73331064265E+02  0.00000000000E+00 0. -1.
          6    2    1    2  501    0 -0.67081216697E+02  0.11907823084E+03  0.25310568448E+03  0.33474473289E+03  0.17120757573E+03 0.  0.
         24    2    3    3    0    0 -0.20938004470E+02 -0.70256830862E+01  0.11835719718E+03  0.14445380306E+03  0.79816757904E+02 0.  0.
         -6    2    1    2    0  503  0.67081216697E+02 -0.11907823084E+03  0.33817189191E+03  0.40319497204E+03  0.17183259965E+03 0.  0.
        -24    2    5    5    0    0  0.10438495392E+03 -0.54605855008E+02  0.24126275455E+03  0.28087683372E+03  0.82498854433E+02 0.  0.
          5    1    3    3  501    0 -0.46143212227E+02  0.12610391393E+03  0.13474848730E+03  0.19029092982E+03  0.47000000000E+01 0. -1.
        -11    1    4    4    0    0 -0.51177918454E+02 -0.17534890910E+01  0.63318782494E+02  0.81434159158E+02  0.00000000000E+00 0.  1.
         12    1    4    4    0    0  0.30239913984E+02 -0.52721939951E+01  0.55038414682E+02  0.63019643905E+02  0.00000000000E+00 0. -1.
         -5    1    5    5    0  503 -0.37303737222E+02 -0.64472375831E+02  0.96909137366E+02  0.12231813832E+03  0.47000000000E+01 0.  1.
         13    1    6    6    0    0  0.22597497756E+02 -0.65107132705E+01  0.14057378497E+03  0.14252727919E+03  0.00000000000E+00 0. -1.
        -14    1    6    6    0    0  0.81787456163E+02 -0.48095141738E+02  0.10068896958E+03  0.13834955453E+03  0.00000000000E+00 0.  1.
</event>
<event>
12    1  0.1683022E-002  0.4401295E+03  0.7818608E-02  0.1030717E+00
         21   -1    0    0  503  502  0.00000000000E+00  0.00000000000E+00  0.47579358839E+03  0.47579358839E+03  0.00000000000E+00 0.  1.
         21   -1    0    0  501  503 -0.00000000000E+00 -0.00000000000E+00 -0.57357269600E+03  0.57357269600E+03  0.00000000000E+00 0.  1.
          6    2    1    2  501    0  0.22620969361E+02 -0.40426619269E+03 -0.33163225741E+03  0.55108432920E+03  0.17254309874E+03 0.  0.
         24    2    3    3    0    0 -0.52377087665E+02 -0.24449460472E+03 -0.21719635392E+03  0.34068153718E+03  0.79804026024E+02 0.  0.
         -6    2    1    2    0  502 -0.22620969361E+02  0.40426619269E+03  0.23385314981E+03  0.49828195520E+03  0.17220554113E+03 0.  0.
        -24    2    5    5    0    0 -0.28218488050E+02  0.18500932007E+03  0.17854048034E+03  0.27203764077E+03  0.84279554443E+02 0.  0.
          5    1    3    3  501    0  0.74998057026E+02 -0.15977158797E+03 -0.11443590350E+03  0.21040279202E+03  0.47000000000E+01 0. -1.
        -11    1    4    4    0    0 -0.30599658601E+02 -0.23248390348E+03 -0.17856953715E+03  0.29474087616E+03  0.00000000000E+00 0.  1.
         12    1    4    4    0    0 -0.21777429064E+02 -0.12010701240E+02 -0.38626816764E+02  0.45940661012E+02  0.00000000000E+00 0. -1.
         -5    1    5    5    0  502  0.55975186892E+01  0.21925687262E+03  0.55312669468E+02  0.22624431443E+03  0.47000000000E+01 0.  1.
         13    1    6    6    0    0  0.28005033783E+02  0.33676236585E+02  0.36923577730E+02  0.57286310931E+02  0.00000000000E+00 0. -1.
        -14    1    6    6    0    0 -0.56223521833E+02  0.15133308348E+03  0.14161690261E+03  0.21475132984E+03  0.00000000000E+00 0.  1.
</event>
<event>
12    1  0.1683022E-002  0.1828925E+03  0.7818608E-02  0.1165135E+00
         21   -1    0    0  501  502  0.00000000000E+00  0.00000000000E+00  0.32192894582E+03  0.32192894582E+03  0.00000000000E+00 0. -1.
         21   -1    0    0  502  503 -0.00000000000E+00 -0.00000000000E+00 -0.17734148946E+03  0.17734148946E+03  0.00000000000E+00 0. -1.
          6    2    1    2  501    0 -0.94601480536E+01 -0.62742785662E+02 -0.88565950346E+02  0.20320823516E+03  0.17153281821E+03 0.  0.
         24    2    3    3    0    0 -0.12248605207E+02  0.10508179433E+02 -0.99012607440E+02  0.12901455601E+03  0.81122186033E+02 0.  0.
         -6    2    1    2    0  503  0.94601480536E+01  0.62742785662E+02  0.23315340670E+03  0.29606220012E+03  0.17107356233E+03 0.  0.
        -24    2    5    5    0    0  0.13951654571E+02  0.50815837030E+02  0.25377607860E+03  0.27136786209E+03  0.80382339755E+02 0.  0.
          5    1    3    3  501    0  0.27884571530E+01 -0.73250965095E+02  0.10446657093E+02  0.74193679145E+02  0.47000000000E+01 0. -1.
        -13    1    4    4    0    0 -0.40354893864E+02  0.23941730715E+02 -0.37510242231E+02  0.60072807497E+02  0.00000000000E+00 0.  1.
         14    1    4    4    0    0  0.28106288657E+02 -0.13433551282E+02 -0.61502365209E+02  0.68941748516E+02  0.00000000000E+00 0. -1.
         -5    1    5    5    0  503 -0.44915065174E+01  0.11926948633E+02 -0.20622671900E+02  0.24694338031E+02  0.47000000000E+01 0.  1.
         11    1    6    6    0    0  0.21749546386E+01  0.27525050606E+02  0.15494622352E+02  0.31661367001E+02  0.00000000000E+00 0. -1.
        -12    1    6    6    0    0  0.11776699932E+02  0.23290786424E+02  0.23828145625E+03  0.23970649509E+03  0.00000000000E+00 0.  1.
</event>
<event>
12    1  0.1683022E-002  0.1752460E+03  0.7818608E-02  0.1173150E+00
         21   -1    0    0  501  502  0.00000000000E+00  0.00000000000E+00  0.14011231523E+03  0.14011231523E+03  0.00000000000E+00 0.  1.
         21   -1    0    0  502  503 -0.00000000000E+00 -0.00000000000E+00 -0.24982250995E+03  0.24982250995E+03  0.00000000000E+00 0.  1.
          6    2    1    2  501    0  0.14452352347E+02 -0.19380875092E+02  0.16617319767E+02  0.17603204347E+03  0.17357032063E+03 0.  0.
         24    2    3    3    0    0  0.51965275971E+02 -0.64874191947E+02  0.16059784191E+02  0.11687748182E+03  0.80581501607E+02 0.  0.
         -6    2    1    2    0  503 -0.14452352347E+02  0.19380875092E+02 -0.12632751449E+03  0.21390278172E+03  0.17091304895E+03 0.  0.
        -24    2    5    5    0    0 -0.70597893354E+02  0.87552196824E+01 -0.11356956890E+03  0.15516538729E+03  0.78214666248E+02 0.  0.
          5    1    3    3  501    0 -0.37512923624E+02  0.45493316855E+02  0.55753557560E+00  0.59154561644E+02  0.47000000000E+01 0. -1.
        -13    1    4    4    0    0 -0.27794628684E+01  0.15136177548E+02  0.12566050561E+02  0.19867936765E+02  0.00000000000E+00 0.  1.
         14    1    4    4    0    0  0.54744738840E+02 -0.80010369495E+02  0.34937336305E+01  0.97009545056E+02  0.00000000000E+00 0. -1.
         -5    1    5    5    0  503  0.56145541006E+02  0.10625655409E+02 -0.12757945592E+02  0.58737394422E+02  0.47000000000E+01 0.  1.
         13    1    6    6    0    0  0.15603855596E+02 -0.28688680419E+01 -0.63214627713E+01  0.17078395852E+02  0.00000000000E+00 0. -1.
        -14    1    6    6    0    0 -0.86201748949E+02  0.11624087724E+02 -0.10724810613E+03  0.13808699144E+03  0.00000000000E+00 0.  1.
</event>
<event>
12    1  0.1683022E-002  0.2349872E+03  0.7818608E-02  0.1123182E+00
         21   -1    0    0  501  502  0.00000000000E+00  0.00000000000E+00  0.11507717467E+03  0.11507717467E+03  0.00000000000E+00 0.  1.
         21   -1    0    0  502  503 -0.00000000000E+00 -0.00000000000E+00 -0.66733885144E+03  0.66733885144E+03  0.00000000000E+00 0.  1.
          6    2    1    2  501    0 -0.77718197272E+02  0.13983488081E+03 -0.68727927295E+02  0.24480663224E+03  0.17208383747E+03 0.  0.
         24    2    3    3    0    0 -0.69389921416E+02  0.95938800749E+02  0.19950583301E+02  0.14539740598E+03  0.81994909652E+02 0.  0.
         -6    2    1    2    0  503  0.77718197272E+02 -0.13983488081E+03 -0.48353374948E+03  0.53760939388E+03  0.17211932320E+03 0.  0.
        -24    2    5    5    0    0 -0.25994570298E+02 -0.49099255274E+02 -0.20301504066E+03  0.22503599786E+03  0.79621850306E+02 0.  0.
          5    1    3    3  501    0 -0.83282758566E+01  0.43896080059E+02 -0.88678510596E+02  0.99409226256E+02  0.47000000000E+01 0. -1.
        -11    1    4    4    0    0  0.42322085011E+01  0.45365890001E+02  0.31418809371E+02  0.55345434741E+02  0.00000000000E+00 0.  1.
         12    1    4    4    0    0 -0.73622129917E+02  0.50572910748E+02 -0.11468226071E+02  0.90051971240E+02  0.00000000000E+00 0. -1.
         -5    1    5    5    0  503  0.10371276757E+03 -0.90735625535E+02 -0.28051870882E+03  0.31257339601E+03  0.47000000000E+01 0.  1.
         11    1    6    6    0    0 -0.13000813900E+02 -0.52395449096E+02 -0.57371594102E+02  0.78776925923E+02  0.00000000000E+00 0. -1.
        -12    1    6    6    0    0 -0.12993756398E+02  0.32961938226E+01 -0.14564344656E+03  0.14625907194E+03  0.00000000000E+00 0.  1.
</event>
<event>
12    1  0.1683022E-002  0.2000827E+03  0.7818608E-02  0.1149724E+00
         21   -1    0    0  503  502  0.00000000000E+00  0.00000000000E+00  0.27131637504E+03  0.27131637504E+03  0.00000000000E+00 0.  1.
         21   -1    0    0  501  503 -0.00000000000E+00 -0.00000000000E+00 -0.15716084430E+03  0.15716084430E+03  0.00000000000E+00 0.  1.
          6    2    1    2  501    0  0.84291906932E+02 -0.60253697695E+02  0.35423059270E+01  0.19985441685E+03  0.17086136586E+03 0.  0.
         24    2    3    3    0    0  0.68736350750E+02  0.19180300496E+02 -0.32043186295E+02  0.11130978035E+03  0.79186688102E+02 0.  0.
         -6    2    1    2    0  502 -0.84291906932E+02  0.60253697695E+02  0.11061322481E+03  0.22862280249E+03  0.17116502754E+03 0.  0.
        -24    2    5    5    0    0 -0.11947219913E+03  0.74023117513E+02  0.97354436480E+02  0.18830983498E+03  0.78928317819E+02 0.  0.
          5    1    3    3  501    0  0.15555556183E+02 -0.79433998191E+02  0.35585492222E+02  0.88544636503E+02  0.47000000000E+01 0. -1.
        -13    1    4    4    0    0  0.71343484201E+02 -0.13887697117E+02 -0.28017783636E+02  0.77895809060E+02  0.00000000000E+00 0.  1.
         14    1    4    4    0    0 -0.26071334514E+01  0.33067997613E+02 -0.40254026591E+01  0.33413971292E+02  0.00000000000E+00 0. -1.
         -5    1    5    5    0  502  0.35180292203E+02 -0.13769419818E+02  0.13258788330E+02  0.40312967511E+02  0.47000000000E+01 0.  1.
         11    1    6    6    0    0 -0.25543920405E+02 -0.51324200689E+00 -0.99309373335E+01  0.27411289706E+02  0.00000000000E+00 0. -1.
        -12    1    6    6    0    0 -0.93928278729E+02  0.74536359520E+02  0.10728537381E+03  0.16089854527E+03  0.00000000000E+00 0.  1.
</event>
<event>
12    1  0.1683022E-002  0.1893730E+03  0.7818608E-02  0.1159573E+00
         21   -1    0    0  501  502  0.00000000000E+00  0.00000000000E+00  0.64340677334E+03  0.64340677334E+03  0.00000000000E+00 0. -1.
         21   -1    0    0  502  503 -0.00000000000E+00 -0.00000000000E+00 -0.58456485827E+02  0.58456485827E+02  0.00000000000E+00 0. -1.
          6    2    1    2  501    0 -0.20419710789E+02 -0.67706631606E+02  0.37560522429E+03  0.41957353669E+03  0.17309395028E+03 0.  0.
         24    2    3    3    0    0  0.31336865558E+02  0.53578347272E+01  0.26337670710E+03  0.27592643610E+03  0.75877551119E+02 0.  0.
         -6    2    1    2    0  503  0.20419710789E+02  0.67706631606E+02  0.20934506322E+03  0.28228972248E+03  0.17567293294E+03 0.  0.
        -24    2    5    5    0    0 -0.14819552327E+02  0.10441822135E+03  0.12552335329E+03  0.18411785510E+03  0.83788354006E+02 0.  0.
          5    1    3    3  501    0 -0.51756576347E+02 -0.73064466333E+02  0.11222851720E+03  0.14364710059E+03  0.47000000000E+01 0. -1.
        -11    1    4    4    0    0 -0.38186832229E+01  0.28742913797E+02  0.45193945145E+02  0.53695717827E+02  0.00000000000E+00 0.  1.
         12    1    4    4    0    0  0.35155548781E+02 -0.23385079070E+02  0.21818276195E+03  0.22223071828E+03  0.00000000000E+00 0. -1.
         -5    1    5    5    0  503  0.35239263116E+02 -0.36711589745E+02  0.83821709937E+02  0.98171867372E+02  0.47000000000E+01 0.  1.
         11    1    6    6    0    0  0.28050960640E+02  0.36849647136E+02  0.17111286759E+02  0.49371540602E+02  0.00000000000E+00 0. -1.
        -12    1    6    6    0    0 -0.42870512967E+02  0.67568574215E+02  0.10841206653E+03  0.13474631450E+03  0.00000000000E+00 0.  1.
</event>
<event>
12    1  0.1683022E-002  0.1990699E+03  0.7818608E-02  0.1150707E+00
         21   -1    0    0  503  502  0.00000000000E+00  0.00000000000E+00  0.71285855080E+02  0.71285855080E+02  0.00000000000E+00 0. -1.
         21   -1    0    0  501  503 -0.00000000000E+00 -0.00000000000E+00 -0.73735248192E+03  0.73735248192E+03  0.00000000000E+00 0.  1.
          6    2    1    2  501    0 -0.98240457697E+02  0.16363105791E+01 -0.53543824519E+03  0.57124684272E+03  0.17313282723E+03 0.  0.
         24    2    3    3    0    0  0.14623983347E+02  0.21358606410E+02 -0.21285494969E+03  0.22888822439E+03  0.80078328551E+02 0.  0.
         -6    2    1    2    0  502  0.98240457697E+02 -0.16363105791E+01 -0.13062838165E+03  0.23739149428E+03  0.17215424021E+03 0.  0.
        -24    2    5    5    0    0  0.10993936031E+02  0.75496373791E+01 -0.12310017084E+01  0.80987820670E+02  0.79872699201E+02 0.  0.
          5    1    3    3  501    0 -0.11286444104E+03 -0.19722295831E+02 -0.32258329551E+03  0.34235861833E+03  0.47000000000E+01 0. -1.
        -11    1    4    4    0    0  0.36170148328E+02  0.16845280907E+02 -0.19881275266E+03  0.20277710358E+03  0.00000000000E+00 0.  1.
         12    1    4    4    0    0 -0.21546164982E+02  0.45133255036E+01 -0.14042197029E+02  0.26111120809E+02  0.00000000000E+00 0. -1.
         -5    1    5    5    0  502  0.87246521666E+02 -0.91859479582E+01 -0.12939737994E+03  0.15640367361E+03  0.47000000000E+01 0.  1.
         11    1    6    6    0    0 -0.33049523089E+01 -0.32794007234E+02  0.13646225222E+02  0.35673366579E+02  0.00000000000E+00 0. -1.
        -12    1    6    6    0    0  0.14298888340E+02  0.40343644613E+02 -0.14877226930E+02  0.45314454091E+02  0.00000000000E+00 0.  1.
</event>
<event>
12    1  0.1683022E-002  0.1812661E+03  0.7818608E-02  0.1166626E+00
         21   -1    0    0  501  502  0.00000000000E+00  0.00000000000E+00  0.14608711491E+03  0.14608711491E+03  0.00000000000E+00 0. -1.
         21   -1    0    0  502  503 -0.00000000000E+00 -0.00000000000E+00 -0.37109592887E+03  0.37109592887E+03  0.00000000000E+00 0. -1.
          6    2    1    2  501    0  0.34922076563E+02  0.44980427849E+02  0.49948653642E+02  0.18785189862E+03  0.17190310496E+03 0.  0.
         24    2    3    3    0    0  0.20454881306E+02 -0.21430019806E+02  0.76672342511E+02  0.11466793287E+03  0.79952728560E+02 0.  0.
         -6    2    1    2    0  503 -0.34922076563E+02 -0.44980427849E+02 -0.27495746761E+03  0.32933114516E+03  0.17208894170E+03 0.  0.
        -24    2    5    5    0    0 -0.46561113741E+02 -0.74072583623E+01 -0.57039489802E+02  0.10784176550E+03  0.78444491198E+02 0.  0.
          5    1    3    3  501    0  0.14467195256E+02  0.66410447655E+02 -0.26723688869E+02  0.73183965751E+02  0.47000000000E+01 0. -1.
        -11    1    4    4    0    0 -0.38765100642E+01 -0.29192205904E+02 -0.43023667982E+01  0.29761091644E+02  0.00000000000E+00 0.  1.
         12    1    4    4    0    0  0.24331391371E+02  0.77621860977E+01  0.80974709310E+02  0.84906841225E+02  0.00000000000E+00 0. -1.
         -5    1    5    5    0  503  0.11639037178E+02 -0.37573169486E+02 -0.21791797781E+03  0.22148937966E+03  0.47000000000E+01 0.  1.
         11    1    6    6    0    0  0.11030381016E+02  0.16070477639E+02 -0.38153861500E+02  0.42844447765E+02  0.00000000000E+00 0. -1.
        -12    1    6    6    0    0 -0.57591494756E+02 -0.23477736001E+02 -0.18885628302E+02  0.64997317732E+02  0.00000000000E+00 0.  1.
</event>
<event>
12    1  0.1683022E-002  0.2293060E+03  0.7818608E-02  0.1127279E+00
         21   -1    0    0  503  502  0.00000000000E+00  0.00000000000E+00  0.29914454763E+03  0.29914454763E+03  0.00000000000E+00 0. -1.
         21   -1    0    0  501  503 -0.00000000000E+00 -0.00000000000E+00 -0.18400372912E+03  0.18400372912E+03  0.00000000000E+00 0. -1.
          6    2    1    2  501    0  0.23313887881E+02 -0.14834399098E+03  0.43966982664E+01  0.22850045456E+03  0.17217331312E+03 0.  0.
         24    2    3    3    0    0  0.21523834148E+02 -0.70851793069E+01 -0.21764847423E+02  0.84751462767E+02  0.78712303076E+02 0.  0.
         -6    2    1    2    0  502 -0.23313887881E+02  0.14834399098E+03  0.11074412025E+03  0.25464782219E+03  0.17329678632E+03 0.  0.
        -24    2    5    5    0    0 -0.81019345355E+02  0.82393395069E+02  0.76649701537E+02  0.16049942703E+03  0.80821305726E+02 0.  0.
          5    1    3    3  501    0  0.17900537327E+01 -0.14125881168E+03  0.26161545689E+02  0.14374899179E+03  0.47000000000E+01 0. -1.
        -13    1    4    4    0    0 -0.96555425159E+01  0.30586659801E+02 -0.14915615967E+02  0.35372996180E+02  0.00000000000E+00 0.  1.
         14    1    4    4    0    0  0.31179376664E+02 -0.37671839108E+02 -0.68492314559E+01  0.49378466587E+02  0.00000000000E+00 0. -1.
         -5    1    5    5    0  502  0.57705457475E+02  0.65950595914E+02  0.34094418713E+02  0.94148395160E+02  0.47000000000E+01 0.  1.
         11    1    6    6    0    0 -0.79770385291E+01  0.49653946542E+02  0.60795811553E+02  0.78900432530E+02  0.00000000000E+00 0. -1.
        -12    1    6    6    0    0 -0.73042306826E+02  0.32739448526E+02  0.15853889984E+02  0.81598994503E+02  0.00000000000E+00 0.  1.
</event>
<event>
12    1  0.1683022E-002  0.1767791E+03  0.7818608E-02  0.1171104E+00
         21   -1    0    0  501  502  0.00000000000E+00  0.00000000000E+00  0.36708431926E+03  0.36708431926E+03  0.00000000000E+00 0.  1.
         21   -1    0    0  502  503 -0.00000000000E+00 -0.00000000000E+00 -0.12467078651E+03  0.12467078651E+03  0.00000000000E+00 0.  1.
          6    2    1    2  501    0  0.22951967765E+02 -0.28509733470E+02  0.26030938913E+03  0.31466144076E+03  0.17294868171E+03 0.  0.
         24    2    3    3    0    0  0.12667903617E+02  0.50641058150E+02  0.12525387857E+03  0.15771338973E+03  0.80374042148E+02 0.  0.
         -6    2    1    2    0  503 -0.22951967765E+02  0.28509733470E+02 -0.17895856379E+02  0.17709366501E+03  0.17234357193E+03 0.  0.
        -24    2    5    5    0    0  0.37388409775E+02  0.26494146809E+02  0.34132790694E+02  0.97255742525E+02  0.78700692836E+02 0.  0.
          5    1    3    3  501    0  0.10284064147E+02 -0.79150791620E+02  0.13505551056E+03  0.15694805103E+03  0.47000000000E+01 0. -1.
        -13    1    4    4    0    0  0.46311561318E+02  0.37852352934E+02  0.80199604328E+02  0.10004767798E+03  0.00000000000E+00 0.  1.
         14    1    4    4    0    0 -0.33643657701E+02  0.12788705216E+02  0.45054274242E+02  0.57665711754E+02  0.00000000000E+00 0. -1.
         -5    1    5    5    0  503 -0.60340377540E+02  0.20155866607E+01 -0.52028647073E+02  0.79837922490E+02  0.47000000000E+01 0.  1.
         13    1    6    6    0    0 -0.22792033099E+02  0.15298127316E+02  0.59337861122E+00  0.27456539664E+02  0.00000000000E+00 0. -1.
        -14    1    6    6    0    0  0.60180442874E+02  0.11196019493E+02  0.33539412083E+02  0.69799202860E+02  0.00000000000E+00 0.  1.
</event>
<event>
12    1  0.1683022E-002  0.3209001E+03  0.7818608E-02  0.1075239E+00
         21   -1    0    0  503  502  0.00000000000E+00  0.00000000000E+00  0.12912820951E+04  0.12912820951E+04  0.00000000000E+00 0. -1.
         21   -1    0    0  501  503 -0.00000000000E+00 -0.00000000000E+00 -0.11120525171E+03  0.11120525171E+03  0.00000000000E+00 0. -1.
          6    2    1    2  501    0  0.26156555272E+03  0.71336270129E+02  0.21701221456E+03  0.38736649018E+03  0.17161903926E+03 0.  0.
         24    2    3    3    0    0  0.84196093242E+02  0.13749706823E+02  0.27066082045E+02  0.12113771508E+03  0.81631713590E+02 0.  0.
         -6    2    1    2    0  502 -0.26156555272E+03 -0.71336270129E+02  0.96306462878E+03  0.10151208566E+04  0.17167257346E+03 0.  0.
        -24    2    5    5    0    0 -0.23368606752E+03 -0.79472824511E+01  0.67586106529E+03  0.71964935824E+03  0.80216468382E+02 0.  0.
          5    1    3    3  501    0  0.17736945948E+03  0.57586563306E+02  0.18994613252E+03  0.26622877509E+03  0.47000000000E+01 0. -1.
        -11    1    4    4    0    0 -0.16290053164E+02  0.34864074764E+01  0.38087723385E+00  0.16663311095E+02  0.00000000000E+00 0.  1.
         12    1    4    4    0    0  0.10048614641E+03  0.10263299347E+02  0.26685204811E+02  0.10447440399E+03  0.00000000000E+00 0. -1.
         -5    1    5    5    0  502 -0.27879485205E+02 -0.63388987678E+02  0.28720356349E+03  0.29547149835E+03  0.47000000000E+01 0.  1.
         11    1    6    6    0    0 -0.18155268479E+03 -0.15195067782E+02  0.60191793126E+03  0.62888589061E+03  0.00000000000E+00 0. -1.
        -12    1    6    6    0    0 -0.52133382725E+02  0.72477853313E+01  0.73943134027E+02  0.90763467631E+02  0.00000000000E+00 0.  1.
</event>
<event>
12    1  0.1683022E-002  0.2182408E+03  0.7818608E-02  0.1135202E+00
         21   -1    0    0  501  502  0.00000000000E+00  0.00000000000E+00  0.76444137510E+02  0.76444137510E+02  0.00000000000E+00 0. -1.
         21   -1    0    0  502  503 -0.00000000000E+00 -0.00000000000E+00 -0.67335972971E+03  0.67335972971E+03  0.00000000000E+00 0. -1.
          6    2    1    2  501    0  0.87458119304E+02  0.10265871057E+03 -0.19597091892E+03  0.29331108634E+03  0.17157814203E+03 0.  0.
         24    2    3    3    0    0  0.34129347703E+02  0.12581115139E+03 -0.17245096107E+03  0.23042013458E+03  0.79754913699E+02 0.  0.
         -6    2    1    2    0  503 -0.87458119304E+02 -0.10265871057E+03 -0.40094467328E+03  0.45649278087E+03  0.17158465686E+03 0.  0.
        -24    2    5    5    0    0 -0.32937849668E+02 -0.89582368663E+00 -0.26137352319E+03  0.27530133271E+03  0.79931224993E+02 0.  0.
          5    1    3    3  501    0  0.53328771601E+02 -0.23152440819E+02 -0.23519957846E+02  0.62890951761E+02  0.47000000000E+01 0. -1.
        -13    1    4    4    0    0  0.30500074910E+02  0.39937689813E+01 -0.30287475425E+02  0.43168691523E+02  0.00000000000E+00 0.  1.
         14    1    4    4    0    0  0.36292727937E+01  0.12181738241E+03 -0.14216348564E+03  0.18725144306E+03  0.00000000000E+00 0. -1.
         -5    1    5    5    0  503 -0.54520269637E+02 -0.10176288688E+03 -0.13957115009E+03  0.18119144816E+03  0.47000000000E+01 0.  1.
         11    1    6    6    0    0 -0.59135199887E+02  0.57456992708E+01 -0.17713444804E+03  0.18683307418E+03  0.00000000000E+00 0. -1.
        -12    1    6    6    0    0  0.26197350219E+02 -0.66415229574E+01 -0.84239075144E+02  0.88468258527E+02  0.00000000000E+00 0.  1.
</event>
<event>
12    1  0.1683022E-002  0.1792270E+03  0.7818608E-02  0.1168810E+00
         21   -1    0    0  501  502  0.00000000000E+00  0.00000000000E+00  0.34285333963E+02  0.34285333963E+02  0.00000000000E+00 0. -1.
         21   -1    0    0  502  503 -0.00000000000E+00 -0.00000000000E+00 -0.93518105441E+03  0.93518105441E+03  0.00000000000E+00 0. -1.
          6    2    1    2  501    0  0.26867400567E+02 -0.40494770834E+02 -0.41840133735E+03  0.45475951983E+03  0.17142012164E+03 0.  0.
         24    2    3    3    0    0  0.76273303015E+02 -0.13698117036E+02 -0.33290782182E+03  0.35233767134E+03  0.85492465457E+02 0.  0.
         -6    2    1    2    0  503 -0.26867400567E+02  0.40494770834E+02 -0.48249438310E+03  0.51470686854E+03  0.17251274483E+03 0.  0.
        -24    2    5    5    0    0 -0.65362781236E+02  0.74015227080E+02 -0.36031128454E+03  0.38220662366E+03  0.80666810998E+02 0.  0.
          5    1    3    3  501    0 -0.49405902448E+02 -0.26796653798E+02 -0.85493515533E+02  0.10242184850E+03  0.47000000000E+01 0. -1.
        -13    1    4    4    0    0 -0.17428735852E+02  0.26109737112E+01 -0.29411411745E+02  0.34287157333E+02  0.00000000000E+00 0.  1.
         14    1    4    4    0    0  0.93702038867E+02 -0.16309090748E+02 -0.30349641008E+03  0.31805051400E+03  0.00000000000E+00 0. -1.
         -5    1    5    5    0  503  0.38495380668E+02 -0.33520456246E+02 -0.12218309856E+03  0.13250024488E+03  0.47000000000E+01 0.  1.
         11    1    6    6    0    0 -0.27351433978E+02 -0.14580994186E+02 -0.94439850396E+02  0.99396135111E+02  0.00000000000E+00 0. -1.
        -12    1    6    6    0    0 -0.38011347258E+02  0.88596221266E+02 -0.26587143414E+03  0.28281048855E+03  0.00000000000E+00 0.  1.
</event>
<event>
12    1  0.1683022E-002  0.2136643E+03  0.7818608E-02  0.1138790E+00
         21   -1    0    0  503  502  0.00000000000E+00  0.00000000000E+00  0.25871169832E+03  0.25871169832E+03  0.00000000000E+00 0.  1.
         21   -1    0    0  501  503 -0.00000000000E+00 -0.00000000000E+00 -0.28597875628E+03  0.28597875628E+03  0.00000000000E+00 0. -1.
          6    2    1    2  501    0 -0.13006308923E+02 -0.12474007213E+03 -0.18246534452E+03  0.28060912669E+03  0.17239092308E+03 0.  0.
         24    2    3    3    0    0 -0.62002385831E+02 -0.86084519927E+02 -0.17197417423E+03  0.21715030600E+03  0.79525457392E+02 0.  0.
         -6    2    1    2    0  502  0.13006308923E+02  0.12474007213E+03  0.15519828655E+03  0.26408132792E+03  0.17298320710E+03 0.  0.
        -24    2    5    5    0    0 -0.46200294737E+02  0.27879195889E+02  0.96190728694E+02  0.13605229547E+03  0.79660868809E+02 0.  0.
          5    1    3    3  501    0  0.48996076908E+02 -0.38655552207E+02 -0.10491170285E+02  0.63458820685E+02  0.47000000000E+01 0. -1.
        -13    1    4    4    0    0  0.90163902878E+01 -0.10722406673E+02  0.25284764202E+01  0.14235817212E+02  0.00000000000E+00 0.  1.
         14    1    4    4    0    0 -0.71018776119E+02 -0.75362113254E+02 -0.17450265065E+03  0.20291448879E+03  0.00000000000E+00 0. -1.
         -5    1    5    5    0  502  0.59206603661E+02  0.96860876245E+02  0.59007557859E+02  0.12802903244E+03  0.47000000000E+01 0.  1.
         13    1    6    6    0    0 -0.18325991376E+02 -0.27911684498E+02  0.27348493854E+02  0.43160678951E+02  0.00000000000E+00 0. -1.
        -14    1    6    6    0    0 -0.27874303362E+02  0.55790880387E+02  0.68842234840E+02  0.92891616522E+02  0.00000000000E+00 0.  1.
</event>
<event>
12    1  0.1683022E-002  0.1842399E+03  0.7818608E-02  0.1164832E+00
         21   -1    0    0  503  502  0.00000000000E+00  0.00000000000E+00  0.15982753161E+03  0.15982753161E+03  0.00000000000E+00 0. -1.
         21   -1    0    0  501  503 -0.00000000000E+00 -0.00000000000E+00 -0.23402635423E+03  0.23402635423E+03  0.00000000000E+00 0. -1.
          6    2    1    2  501    0 -0.65269346344E+02 -0.17089303395E+02 -0.10333107680E+03  0.20732500413E+03  0.16659596046E+03 0.  0.
         24    2    3    3    0    0 -0.13485357317E+02  0.40102747544E+02 -0.91873572640E+02  0.12918489528E+03  0.80361051487E+02 0.  0.
         -6    2    1    2    0  502  0.65269346344E+02  0.17089303395E+02  0.29132254183E+02  0.18652888171E+03  0.17144154577E+03 0.  0.
        -24    2    5    5    0    0  0.58569213758E+02  0.36884397483E+02 -0.41742588117E+02  0.11248787417E+03  0.78232132746E+02 0.  0.
          5    1    3    3  501    0 -0.51783989027E+02 -0.57192050939E+02 -0.11457504163E+02  0.78140108855E+02  0.47000000000E+01 0. -1.
        -13    1    4    4    0    0 -0.25252933388E+02  0.38701510874E+02 -0.11072836577E+02  0.47519735884E+02  0.00000000000E+00 0.  1.
         14    1    4    4    0    0  0.11767576071E+02  0.14012366705E+01 -0.80800736063E+02  0.81665159396E+02  0.00000000000E+00 0. -1.
         -5    1    5    5    0  502  0.67001325858E+01 -0.19795094089E+02  0.70874842300E+02  0.74041007541E+02  0.47000000000E+01 0.  1.
         13    1    6    6    0    0  0.34155609562E+02 -0.15095117660E+02 -0.40442287279E+02  0.55045861262E+02  0.00000000000E+00 0. -1.
        -14    1    6    6    0    0  0.24413604196E+02  0.51979515143E+02 -0.13003008380E+01  0.57442012905E+02  0.00000000000E+00 0.  1.
</event>
<event>
12    1  0.1683022E-002  0.1993261E+03  0.7818608E-02  0.1150372E+00
         21   -1    0    0  503  502  0.00000000000E+00  0.00000000000E+00  0.60116327794E+03  0.60116327794E+03  0.00000000000E+00 0.  1.
         21   -1    0    0  501  503 -0.00000000000E+00 -0.00000000000E+00 -0.67449025171E+02  0.67449025171E+02  0.00000000000E+00 0. -1.
          6    2    1    2  501    0  0.46851941937E+02 -0.88120712344E+02  0.31619306192E+03  0.37377658955E+03  0.17254136339E+03 0.  0.
         24    2    3    3    0    0 -0.21941155412E+02 -0.41717664258E+02  0.24710441495E+03  0.26569761725E+03  0.85515227346E+02 0.  0.
         -6    2    1    2    0  502 -0.46851941937E+02  0.88120712344E+02  0.21752119086E+03  0.29483571357E+03  0.17219833076E+03 0.  0.
        -24    2    5    5    0    0  0.16082598099E+01 -0.18937881364E+02  0.88293180657E+02  0.12010190957E+03  0.79167879102E+02 0.  0.
          5    1    3    3  501    0  0.68793097349E+02 -0.46403048086E+02  0.69088646962E+02  0.10807897230E+03  0.47000000000E+01 0. -1.
        -11    1    4    4    0    0 -0.42824552487E+02 -0.49879166963E+02  0.12185980028E+03  0.13846185221E+03  0.00000000000E+00 0.  1.
         12    1    4    4    0    0  0.20883397075E+02  0.81615027056E+01  0.12524461467E+03  0.12723576503E+03  0.00000000000E+00 0. -1.
         -5    1    5    5    0  502 -0.48460201747E+02  0.10705859371E+03  0.12922801020E+03  0.17473380400E+03  0.47000000000E+01 0.  1.
         13    1    6    6    0    0  0.21290703222E+02  0.25114020625E+02  0.31299108948E+02  0.45427329842E+02  0.00000000000E+00 0. -1.
        -14    1    6    6    0    0 -0.19682443412E+02 -0.44051901989E+02  0.56994071709E+02  0.74674579727E+02  0.00000000000E+00 0.  1.
</event>
<event>
12    1  0.1683022E-002  0.2198052E+03  0.7818608E-02  0.1134035E+00
         21   -1    0    0  501  502  0.00000000000E+00  0.00000000000E+00  0.23147948336E+04  0.23147948336E+04  0.00000000000E+00 0. -1.
         21   -1    0    0  502  503 -0.00000000000E+00 -0.00000000000E+00 -0.27016726457E+02  0.27016726457E+02  0.00000000000E+00 0. -1.
          6    2    1    2  501    0 -0.13163012121E+03  0.35853671078E+02  0.17023926332E+04  0.17165192369E+04  0.17229520725E+03 0.  0.
         24    2    3    3    0    0 -0.36284887147E+02  0.64640767111E+02  0.11604119781E+04  0.11654434426E+04  0.78787290341E+02 0.  0.
         -6    2    1    2    0  503  0.13163012121E+03 -0.35853671078E+02  0.58538547398E+03  0.62529232322E+03  0.17234373151E+03 0.  0.
        -24    2    5    5    0    0  0.12835977476E+03 -0.52339526908E+02  0.58642742257E+03  0.60780935250E+03  0.79494837511E+02 0.  0.
          5    1    3    3  501    0 -0.95345234067E+02 -0.28787096032E+02  0.54198065509E+03  0.55107579429E+03  0.47000000000E+01 0. -1.
        -11    1    4    4    0    0 -0.11040630007E+02 -0.17275442116E+02  0.32481316060E+03  0.32545956080E+03  0.00000000000E+00 0.  1.
         12    1    4    4    0    0 -0.25244257140E+02  0.81916209226E+02  0.83559881748E+03  0.83998388177E+03  0.00000000000E+00 0. -1.
         -5    1    5    5    0  503  0.32703464561E+01  0.16485855830E+02 -0.10419485889E+01  0.17482970721E+02  0.47000000000E+01 0.  1.
         13    1    6    6    0    0  0.59049313927E+02  0.66176503123E+00  0.36613498437E+03  0.37086666902E+03  0.00000000000E+00 0. -1.
        -14    1    6    6    0    0  0.69310460831E+02 -0.53001291939E+02  0.22029243820E+03  0.23694268348E+03  0.00000000000E+00 0.  1.
</event>
<event>
12    1  0.1683022E-002  0.2368148E+03  0.7818608E-02  0.1123203E+00
         21   -1    0    0  501  502  0.00000000000E+00  0.00000000000E+00  0.18362556957E+03  0.18362556957E+03  0.00000000000E+00 0.  1.
         21   -1    0    0  502  503 -0.00000000000E+00 -0.00000000000E+00 -0.41752573934E+03  0.41752573934E+03  0.00000000000E+00 0. -1.
          6    2    1    2  501    0  0.36148283964E+02  0.14794210311E+03  0.46518323347E+02  0.23411482197E+03  0.17161652355E+03 0.  0.
         24    2    3    3    0    0  0.14649672426E+02  0.22056107564E+01 -0.38608021682E+01  0.78353909708E+02  0.76843683880E+02 0.  0.
         -6    2    1    2    0  503 -0.36148283964E+02 -0.14794210311E+03 -0.28041849312E+03  0.36703648694E+03  0.18134962683E+03 0.  0.
        -24    2    5    5    0    0 -0.18741827119E+02 -0.85414163774E+02 -0.27755791624E+03  0.30189816613E+03  0.80357142728E+02 0.  0.
          5    1    3    3  501    0  0.21498611538E+02  0.14573649235E+03  0.50379125515E+02  0.15576091227E+03  0.47000000000E+01 0. -1.
        -11    1    4    4    0    0  0.25461749071E+02 -0.14270569928E+02  0.28287285595E+02  0.40646283449E+02  0.00000000000E+00 0.  1.
         12    1    4    4    0    0 -0.10812076645E+02  0.16476180685E+02 -0.32148087763E+02  0.37707626260E+02  0.00000000000E+00 0. -1.
         -5    1    5    5    0  503 -0.17406456845E+02 -0.62527939337E+02 -0.28605768826E+01  0.65138320809E+02  0.47000000000E+01 0.  1.
         13    1    6    6    0    0 -0.45424191394E+01 -0.33518837992E+02 -0.22198645249E+03  0.22454872781E+03  0.00000000000E+00 0. -1.
        -14    1    6    6    0    0 -0.14199407980E+02 -0.51895325782E+02 -0.55571463751E+02  0.77349438320E+02  0.00000000000E+00 0.  1.
</event>
<event>
12    1  0.1683022E-002  0.1837212E+03  0.7818608E-02  0.1164861E+00
         21   -1    0    0  501  502  0.00000000000E+00  0.00000000000E+00  0.81703884696E+02  0.81703884696E+02  0.00000000000E+00 0.  1.
         21   -1    0    0  502  503 -0.00000000000E+00 -0.00000000000E+00 -0.90454791164E+03  0.90454791164E+03  0.00000000000E+00 0. -1.
          6    2    1    2  501    0  0.63626581127E+02 -0.87180503678E+01 -0.47132867466E+02  0.18967069007E+03  0.17213110482E+03 0.  0.
         24    2    3    3    0    0  0.12647538269E+02 -0.67223146419E+02 -0.43901663406E+02  0.11186169474E+03  0.76855520695E+02 0.  0.
         -6    2    1    2    0  503 -0.63626581127E+02  0.87180503678E+01 -0.77571115948E+03  0.79658110627E+03  0.16937918908E+03 0.  0.
        -24    2    5    5    0    0 -0.49119188270E+02 -0.12426780366E+02 -0.76019518791E+03  0.76624295062E+03  0.81635875260E+02 0.  0.
          5    1    3    3  501    0  0.50979042859E+02  0.58505096051E+02 -0.32312040606E+01  0.77808995331E+02  0.47000000000E+01 0. -1.
        -13    1    4    4    0    0  0.12225992165E+02 -0.26262383244E+02  0.20533716564E+02  0.35508043792E+02  0.00000000000E+00 0.  1.
         14    1    4    4    0    0  0.42154610425E+00 -0.40960763176E+02 -0.64435379969E+02  0.76353650946E+02  0.00000000000E+00 0. -1.
         -5    1    5    5    0  503 -0.14507392858E+02  0.21144830734E+02 -0.15515971569E+02  0.30338155646E+02  0.47000000000E+01 0.  1.
         11    1    6    6    0    0  0.10275699817E+02  0.23330445328E+02 -0.26399395434E+03  0.26522199685E+03  0.00000000000E+00 0. -1.
        -12    1    6    6    0    0 -0.59394888087E+02 -0.35757225694E+02 -0.49620123357E+03  0.50102095377E+03  0.00000000000E+00 0.  1.
</event>
<event>
12    1  0.1683022E-002  0.1805514E+03  0.7818608E-02  0.1167358E+00
         21   -1    0    0  501  502  0.00000000000E+00  0.00000000000E+00  0.18531619228E+03  0.18531619228E+03  0.00000000000E+00 0. -1.
         21   -1    0    0  502  503 -0.00000000000E+00 -0.00000000000E+00 -0.17579324479E+03  0.17579324479E+03  0.00000000000E+00 0. -1.
          6    2    1    2  501    0  0.39619487658E+02 -0.29757219204E+02  0.11408413874E+02  0.18054822138E+03  0.17324062007E+03 0.  0.
         24    2    3    3    0    0  0.31626114163E+02  0.11249393899E+01 -0.58291315143E+02  0.10375145085E+03  0.79781009939E+02 0.  0.
         -6    2    1    2    0  503 -0.39619487658E+02  0.29757219204E+02 -0.18854663826E+01  0.18056121568E+03  0.17361912834E+03 0.  0.
        -24    2    5    5    0    0 -0.45083123939E+02 -0.16056418406E+02  0.53699104181E+02  0.10817008917E+03  0.80789094345E+02 0.  0.
          5    1    3    3  501    0  0.79933734953E+01 -0.30882158593E+02  0.69699729017E+02  0.76796770533E+02  0.47000000000E+01 0. -1.
        -13    1    4    4    0    0  0.23745652630E+02 -0.38043425493E+02 -0.38783122438E+02  0.59289871210E+02  0.00000000000E+00 0.  1.
         14    1    4    4    0    0  0.78804615329E+01  0.39168364883E+02 -0.19508192706E+02  0.44461579642E+02  0.00000000000E+00 0. -1.
         -5    1    5    5    0  503  0.54636362808E+01  0.45813637610E+02 -0.55584570563E+02  0.72391126508E+02  0.47000000000E+01 0.  1.
         11    1    6    6    0    0 -0.54752802353E+02  0.17325611495E+02  0.23223919350E+02  0.61946723958E+02  0.00000000000E+00 0. -1.
        -12    1    6    6    0    0  0.96696784138E+01 -0.33382029902E+02  0.30475184831E+02  0.46223365211E+02  0.00000000000E+00 0.  1.
</event>
<event>
12    1  0.1683022E-002  0.1791185E+03  0.7818608E-02  0.1169218E+00
         21   -1    0    0  501  502  0.00000000000E+00  0.00000000000E+00  0.10122187165E+03  0.10122187165E+03  0.00000000000E+00 0. -1.
         21   -1    0    0  502  503 -0.00000000000E+00 -0.00000000000E+00 -0.34153339342E+03  0.34153339342E+03  0.00000000000E+00 0. -1.
          6    2    1    2  501    0  0.99685023093E+01  0.41037886914E+02 -0.56809481128E+02  0.18791159697E+03  0.17406887123E+03 0.  0.
         24    2    3    3    0    0  0.64691762020E+02  0.45716180635E+02 -0.68246308148E+02  0.13161406063E+03  0.79935656222E+02 0.  0.
         -6    2    1    2    0  503 -0.99685023093E+01 -0.41037886914E+02 -0.18350204065E+03  0.25484366810E+03  0.17172308246E+03 0.  0.
        -24    2    5    5    0    0  0.32006149965E+02 -0.71295710320E+02 -0.74871094294E+02  0.13442697567E+03  0.79733675954E+02 0.  0.
          5    1    3    3  501    0 -0.54723259711E+02 -0.46782937208E+01  0.11436827020E+02  0.56297536339E+02  0.47000000000E+01 0. -1.
        -11    1    4    4    0    0 -0.11580626397E+02  0.59479461043E+01 -0.38430500456E+02  0.40575760447E+02  0.00000000000E+00 0.  1.
         12    1    4    4    0    0  0.76272388417E+02  0.39768234531E+02 -0.29815807693E+02  0.91038300187E+02  0.00000000000E+00 0. -1.
         -5    1    5    5    0  503 -0.41974652275E+02  0.30257823406E+02 -0.10863094635E+03  0.12041669243E+03  0.47000000000E+01 0.  1.
         13    1    6    6    0    0  0.32476462231E+02  0.69190142891E+01 -0.18470617394E+02  0.37996803348E+02  0.00000000000E+00 0. -1.
        -14    1    6    6    0    0 -0.47031226580E+00 -0.78214724609E+02 -0.56400476900E+02  0.96430172321E+02  0.00000000000E+00 0.  1.
</event>
<event>
12    1  0.1683022E-002  0.2275088E+03  0.7818608E-02  0.1128449E+00
         21   -1    0    0  503  502  0.00000000000E+00  0.00000000000E+00  0.87420260079E+02  0.87420260079E+02  0.00000000000E+00 0. -1.
         21   -1    0    0  501  503 -0.00000000000E+00 -0.00000000000E+00 -0.59146950764E+03  0.59146950764E+03  0.00000000000E+00 0. -1.
          6    2    1    2  501    0 -0.10641095121E+03 -0.10257981614E+03 -0.25050189300E+03  0.33823375795E+03  0.17264115211E+03 0.  0.
         24    2    3    3    0    0 -0.38061282795E+02 -0.19380510150E+02 -0.19921587701E+03  0.21887653309E+03  0.79973155894E+02 0.  0.
         -6    2    1    2    0  502  0.10641095121E+03  0.10257981614E+03 -0.25354735456E+03  0.34065600977E+03  0.17295764444E+03 0.  0.
        -24    2    5    5    0    0  0.68262454672E+02  0.13335861849E+03 -0.23019681787E+03  0.28615848666E+03  0.80323226296E+02 0.  0.
          5    1    3    3  501    0 -0.68349668417E+02 -0.83199305994E+02 -0.51286015994E+02  0.11935722486E+03  0.47000000000E+01 0. -1.
        -13    1    4    4    0    0 -0.25739670510E+02 -0.26922832391E+02 -0.20090748939E+03  0.20433107653E+03  0.00000000000E+00 0.  1.
         14    1    4    4    0    0 -0.12321612285E+02  0.75423222403E+01  0.16916123841E+01  0.14545456560E+02  0.00000000000E+00 0. -1.
         -5    1    5    5    0  502  0.38148496540E+02 -0.30778802345E+02 -0.23350536688E+02  0.54497523115E+02  0.47000000000E+01 0.  1.
         11    1    6    6    0    0  0.85219674532E+02  0.12431674338E+03 -0.20630222490E+03  0.25549491896E+03  0.00000000000E+00 0. -1.
        -12    1    6    6    0    0 -0.16957219860E+02  0.90418751074E+01 -0.23894592972E+02  0.30663567700E+02  0.00000000000E+00 0.  1.
</event>
<event>
12    1  0.1683022E-002  0.1840925E+03  0.7818608E-02  0.1163913E+00
         21   -1    0    0  501  502  0.00000000000E+00  0.00000000000E+00  0.44090120366E+03  0.44090120366E+03  0.00000000000E+00 0. -1.
         21   -1    0    0  502  503 -0.00000000000E+00 -0.00000000000E+00 -0.76856958161E+02  0.76856958161E+02  0.00000000000E+00 0. -1.
          6    2    1    2  501    0  0.51500083214E+02  0.31944510162E+02  0.17853236320E+03  0.25640645601E+03  0.17377501453E+03 0.  0.
         24    2    3    3    0    0 -0.19219291411E+02  0.12123047564E+02  0.15935356378E+03  0.18035360154E+03  0.81348102947E+02 0.  0.
         -6    2    1    2    0  503 -0.51500083214E+02 -0.31944510162E+02  0.18551188230E+03  0.26135170581E+03  0.17383137046E+03 0.  0.
        -24    2    5    5    0    0 -0.53521445492E+02 -0.60456459272E+02  0.52632017973E+02  0.12535109739E+03  0.80145116542E+02 0.  0.
          5    1    3    3  501    0  0.70719374625E+02  0.19821462598E+02  0.19178799422E+02  0.76052854478E+02  0.47000000000E+01 0. -1.
        -13    1    4    4    0    0  0.15980705133E+02 -0.50186814893E+01  0.13086791143E+03  0.13193551585E+03  0.00000000000E+00 0.  1.
         14    1    4    4    0    0 -0.35199996544E+02  0.17141729053E+02  0.28485652347E+02  0.48418085684E+02  0.00000000000E+00 0. -1.
         -5    1    5    5    0  503  0.20213622775E+01  0.28511949110E+02  0.13287986432E+03  0.13600060842E+03  0.47000000000E+01 0.  1.
         11    1    6    6    0    0 -0.40895049242E+02 -0.33796260845E+02  0.72461465724E+02  0.89806772096E+02  0.00000000000E+00 0. -1.
        -12    1    6    6    0    0 -0.12626396250E+02 -0.26660198427E+02 -0.19829447750E+02  0.35544325293E+02  0.00000000000E+00 0.  1.
</event>
<event>
12    1  0.1683022E-002  0.2791142E+03  0.7818608E-02  0.1096374E+00
         21   -1    0    0  503  502  0.00000000000E+00  0.00000000000E+00  0.51814743617E+02  0.51814743617E+02  0.00000000000E+00 0.  1.
         21   -1    0    0  501  503 -0.00000000000E+00 -0.00000000000E+00 -0.15366788456E+04  0.15366788456E+04  0.00000000000E+00 0.  1.
          6    2    1    2  501    0 -0.21685732977E+03 -0.31220641922E+02 -0.87403337164E+03  0.91751787684E+03  0.17292452004E+03 0.  0.
         24    2    3    3    0    0 -0.40634371307E+02 -0.19539594637E+01 -0.26104877712E+03  0.27901707582E+03  0.89716745779E+02 0.  0.
         -6    2    1    2    0  502  0.21685732977E+03  0.31220641922E+02 -0.61083073036E+03  0.67097571239E+03  0.17056493048E+03 0.  0.
        -24    2    5    5    0    0  0.13018356196E+03  0.24737220107E+02 -0.20975264642E+03  0.26056117049E+03  0.79600634579E+02 0.  0.
          5    1    3    3  501    0 -0.17622295846E+03 -0.29266682459E+02 -0.61298459452E+03  0.63850080103E+03  0.47000000000E+01 0. -1.
        -11    1    4    4    0    0 -0.27110764396E+02 -0.22593520686E+02 -0.29049472975E+02  0.45709217925E+02  0.00000000000E+00 0.  1.
         12    1    4    4    0    0 -0.13523606911E+02  0.20639561223E+02 -0.23199930414E+03  0.23330785789E+03  0.00000000000E+00 0. -1.
         -5    1    5    5    0  502  0.86673767811E+02  0.64834218153E+01 -0.40107808394E+03  0.41041454190E+03  0.47000000000E+01 0.  1.
         11    1    6    6    0    0  0.13559151936E+03  0.35756307353E+02 -0.17855909416E+03  0.22703947618E+03  0.00000000000E+00 0. -1.
        -12    1    6    6    0    0 -0.54079574003E+01 -0.11019087246E+02 -0.31193552253E+02  0.33521694306E+02  0.00000000000E+00 0.  1.
</event>
<event>
12    1  0.1683022E-002  0.1738890E+03  0.7818608E-02  0.1173934E+00
         21   -1    0    0  503  502  0.00000000000E+00  0.00000000000E+00  0.95862002793E+02  0.95862002793E+02  0.00000000000E+00 0. -1.
         21   -1    0    0  501  503 -0.00000000000E+00 -0.00000000000E+00 -0.37384365515E+03  0.37384365515E+03  0.00000000000E+00 0. -1.
          6    2    1    2  501    0  0.10084648353E+02  0.19400494729E+02 -0.23218458480E+03  0.28988697304E+03  0.17218216048E+03 0.  0.
         24    2    3    3    0    0  0.32469815446E+02 -0.30112681263E+02 -0.21372696132E+03  0.23230725293E+03  0.79538564747E+02 0.  0.
         -6    2    1    2    0  502 -0.10084648353E+02 -0.19400494729E+02 -0.45797067558E+02  0.17981868491E+03  0.17250886562E+03 0.  0.
        -24    2    5    5    0    0 -0.69301518116E+02 -0.33583737507E+02 -0.36805465326E+02  0.11808748574E+03  0.81605417542E+02 0.  0.
          5    1    3    3  501    0 -0.22385167093E+02  0.49513175993E+02 -0.18457623481E+02  0.57579720104E+02  0.47000000000E+01 0. -1.
        -11    1    4    4    0    0  0.68432546596E+01 -0.73016095854E+01  0.48033029514E+01  0.11100241264E+02  0.00000000000E+00 0.  1.
         12    1    4    4    0    0  0.25626560786E+02 -0.22811071678E+02 -0.21853026427E+03  0.22120701167E+03  0.00000000000E+00 0. -1.
         -5    1    5    5    0  502  0.59216869762E+02  0.14183242778E+02 -0.89916022319E+01  0.61731199169E+02  0.47000000000E+01 0.  1.
         11    1    6    6    0    0 -0.37449285733E+02  0.20049079048E+02 -0.36035779990E+02  0.55704506210E+02  0.00000000000E+00 0. -1.
        -12    1    6    6    0    0 -0.31852232383E+02 -0.53632816555E+02 -0.76968533544E+00  0.62382979529E+02  0.00000000000E+00 0.  1.
</event>
<event>
12    1  0.1683022E-002  0.1864988E+03  0.7818608E-02  0.1162408E+00
         21   -1    0    0  503  502  0.00000000000E+00  0.00000000000E+00  0.15201858857E+03  0.15201858857E+03  0.00000000000E+00 0. -1.
         21   -1    0    0  501  503 -0.00000000000E+00 -0.00000000000E+00 -0.27355571644E+03  0.27355571644E+03  0.00000000000E+00 0. -1.
          6    2    1    2  501    0  0.43383886987E+02  0.55273550265E+02 -0.15097143753E+03  0.23994616625E+03  0.17275549410E+03 0.  0.
         24    2    3    3    0    0  0.32188599254E+01  0.75647447139E+02 -0.15941909779E+03  0.19388340432E+03  0.80270968682E+02 0.  0.
         -6    2    1    2    0  502 -0.43383886987E+02 -0.55273550265E+02  0.29434309650E+02  0.18562813876E+03  0.16927522059E+03 0.  0.
        -24    2    5    5    0    0 -0.28996184384E+02  0.44902694038E+01 -0.39232263182E+02  0.93346459361E+02  0.79457219765E+02 0.  0.
          5    1    3    3  501    0  0.40165027061E+02 -0.20373896875E+02  0.84476602672E+01  0.46062761931E+02  0.47000000000E+01 0. -1.
        -13    1    4    4    0    0  0.19787482671E+02  0.19608974694E+02 -0.43837337325E+01  0.28200593619E+02  0.00000000000E+00 0.  1.
         14    1    4    4    0    0 -0.16568622746E+02  0.56038472445E+02 -0.15503536406E+03  0.16568281070E+03  0.00000000000E+00 0. -1.
         -5    1    5    5    0  502 -0.14387702603E+02 -0.59763819668E+02  0.68666572832E+02  0.92281679395E+02  0.47000000000E+01 0.  1.
         11    1    6    6    0    0 -0.55778667308E+02 -0.16327587392E+01 -0.18030082748E+02  0.58643068743E+02  0.00000000000E+00 0. -1.
        -12    1    6    6    0    0  0.26782482924E+02  0.61230281430E+01 -0.21202180434E+02  0.34703390618E+02  0.00000000000E+00 0.  1.
</event>
<event>
12    1  0.1683022E-002  0.1783747E+03  0.7818608E-02  0.1169574E+00
         21   -1    0    0  503  502  0.00000000000E+00  0.00000000000E+00  0.17506423735E+03  0.17506423735E+03  0.00000000000E+00 0.  1.
         21   -1    0    0  501  503 -0.00000000000E+00 -0.00000000000E+00 -0.31556742293E+03  0.31556742293E+03  0.00000000000E+00 0.  1.
          6    2    1    2  501    0  0.45419542953E+02 -0.63063521726E+00 -0.23038074658E+03  0.29089305731E+03  0.17169784452E+03 0.  0.
         24    2    3    3    0    0  0.88063007239E+02  0.28667515960E+02 -0.18289810600E+03  0.22051168289E+03  0.81220474005E+02 0.  0.
         -6    2    1    2    0  502 -0.45419542953E+02  0.63063521726E+00  0.89877561002E+02  0.19973860296E+03  0.17249406065E+03 0.  0.
        -24    2    5    5    0    0 -0.66287793556E+01  0.22640231392E+02 -0.15498938160E+02  0.85215931671E+02  0.80405330254E+02 0.  0.
          5    1    3    3  501    0 -0.42643464287E+02 -0.29298151178E+02 -0.47482640581E+02  0.70381374421E+02  0.47000000000E+01 0. -1.
        -11    1    4    4    0    0 -0.12823237637E+01  0.36007591641E+01 -0.86941039389E+02  0.87025020258E+02  0.00000000000E+00 0.  1.
         12    1    4    4    0    0  0.89345331003E+02  0.25066756796E+02 -0.95957066610E+02  0.13348666263E+03  0.00000000000E+00 0. -1.
         -5    1    5    5    0  502 -0.38790763597E+02 -0.22009596175E+02  0.10537649916E+03  0.11452267129E+03  0.47000000000E+01 0.  1.
         13    1    6    6    0    0  0.12727789006E+02  0.42784314110E+02 -0.29958702905E+02  0.53758887885E+02  0.00000000000E+00 0. -1.
        -14    1    6    6    0    0 -0.19356568362E+02 -0.20144082718E+02  0.14459764745E+02  0.31457043786E+02  0.00000000000E+00 0.  1.
</event>
<event>
12    1  0.1683022E-002  0.2287483E+03  0.7818608E-02  0.1127831E+00
         21   -1    0    0  501  502  0.00000000000E+00  0.00000000000E+00  0.44126245730E+02  0.44126245730E+02  0.00000000000E+00 0. -1.
         21   -1    0    0  502  503 -0.00000000000E+00 -0.00000000000E+00 -0.12206949209E+04  0.12206949209E+04  0.00000000000E+00 0. -1.
          6    2    1    2  501    0 -0.36021022364E+02 -0.14612105184E+03 -0.71021407384E+03  0.74614328317E+03  0.17226982467E+03 0.  0.
         24    2    3    3    0    0 -0.16449323131E+02 -0.17167737698E+03 -0.60299688951E+03  0.63409957838E+03  0.93452258145E+02 0.  0.
         -6    2    1    2    0  503  0.36021022364E+02  0.14612105184E+03 -0.46635460131E+03  0.51867788345E+03  0.16997428266E+03 0.  0.
        -24    2    5    5    0    0  0.28260064293E+02  0.11212897196E+03 -0.46251518257E+03  0.48328685208E+03  0.79210792792E+02 0.  0.
          5    1    3    3  501    0 -0.19571699233E+02  0.25556325138E+02 -0.10721718433E+03  0.11204370479E+03  0.47000000000E+01 0. -1.
        -11    1    4    4    0    0 -0.24144106133E+01  0.98517406047E+01 -0.72993889305E+02  0.73695278325E+02  0.00000000000E+00 0.  1.
         12    1    4    4    0    0 -0.14034912517E+02 -0.18152911758E+03 -0.53000300020E+03  0.56040430006E+03  0.00000000000E+00 0. -1.
         -5    1    5    5    0  503  0.77609580708E+01  0.33992079887E+02 -0.38394187410E+01  0.35391031370E+02  0.47000000000E+01 0.  1.
         11    1    6    6    0    0  0.51332723659E+02  0.42027466326E+02 -0.21485798199E+03  0.22486731392E+03  0.00000000000E+00 0. -1.
        -12    1    6    6    0    0 -0.23072659366E+02  0.70101505629E+02 -0.24765720058E+03  0.25841953815E+03  0.00000000000E+00 0.  1.
</event>
<event>
12    1  0.1683022E-002  0.1823383E+03  0.7818608E-02  0.1168467E+00
         21   -1    0    0  501  502  0.00000000000E+00  0.00000000000E+00  0.57801770401E+02  0.57801770401E+02  0.00000000000E+00 0.  1.
         21   -1    0    0  502  503 -0.00000000000E+00 -0.00000000000E+00 -0.54990495286E+03  0.54990495286E+03  0.00000000000E+00 0.  1.
          6    2    1    2  501    0  0.33931727634E+02 -0.30869844355E+02 -0.28156198208E+03  0.32918412767E+03  0.16425812225E+03 0.  0.
         24    2    3    3    0    0 -0.39174054219E+02 -0.38533441066E+02 -0.16868375065E+03  0.19439996247E+03  0.79483992561E+02 0.  0.
         -6    2    1    2    0  503 -0.33931727634E+02  0.30869844355E+02 -0.21054120038E+03  0.27852259560E+03  0.17647359510E+03 0.  0.
        -24    2    5    5    0    0 -0.83501328930E+02 -0.86908144356E+01 -0.11011868385E+03  0.15965728139E+03  0.79475284065E+02 0.  0.
          5    1    3    3  501    0  0.73105781853E+02  0.76635967109E+01 -0.11287823143E+03  0.13478416519E+03  0.47000000000E+01 0. -1.
        -11    1    4    4    0    0  0.86839304273E+01 -0.42565132270E+01 -0.11285802638E+03  0.11327163224E+03  0.00000000000E+00 0.  1.
         12    1    4    4    0    0 -0.47857984646E+02 -0.34276927839E+02 -0.55825724272E+02  0.81128330236E+02  0.00000000000E+00 0. -1.
         -5    1    5    5    0  503  0.49569601296E+02  0.39560658791E+02 -0.10042251653E+03  0.11886531421E+03  0.47000000000E+01 0.  1.
         11    1    6    6    0    0 -0.79134464211E+02  0.10097051272E+02 -0.11481084137E+03  0.13980609131E+03  0.00000000000E+00 0. -1.
        -12    1    6    6    0    0 -0.43668647193E+01 -0.18787865707E+02  0.46921575187E+01  0.19851190077E+02  0.00000000000E+00 0.  1.
</event>
<event>
12    1  0.1683022E-002  0.3005281E+03  0.7818608E-02  0.1085036E+00
         21   -1    0    0  503  502  0.00000000000E+00  0.00000000000E+00  0.59011615359E+03  0.59011615359E+03  0.00000000000E+00 0. -1.
         21   -1    0    0  501  503 -0.00000000000E+00 -0.00000000000E+00 -0.15438333877E+03  0.15438333877E+03  0.00000000000E+00 0.  1.
          6    2    1    2  501    0 -0.24036356078E+03  0.51957603655E+02  0.18008084399E+03  0.34994269260E+03  0.17192016694E+03 0.  0.
         24    2    3    3    0    0 -0.68429277543E+02  0.38548542077E+02  0.13113279261E+03  0.17061282219E+03  0.75791620099E+02 0.  0.
         -6    2    1    2    0  502  0.24036356078E+03 -0.51957603655E+02  0.25565197083E+03  0.39455679977E+03  0.17275098878E+03 0.  0.
        -24    2    5    5    0    0  0.31486949751E+02 -0.30547730277E+02  0.62907490932E+02  0.10949479626E+03  0.78148359947E+02 0.  0.
          5    1    3    3  501    0 -0.17193428324E+03  0.13409061578E+02  0.48948051380E+02  0.17932987041E+03  0.47000000000E+01 0. -1.
        -11    1    4    4    0    0  0.13699899169E+02 -0.63891847623E+01  0.23720130850E+02  0.28127451479E+02  0.00000000000E+00 0.  1.
         12    1    4    4    0    0 -0.82129176711E+02  0.44937726839E+02  0.10741266176E+03  0.14248537072E+03  0.00000000000E+00 0. -1.
         -5    1    5    5    0  502  0.20887661103E+03 -0.21409873378E+02  0.19274447990E+03  0.28506200351E+03  0.47000000000E+01 0.  1.
         13    1    6    6    0    0  0.30927203914E+02 -0.54875215153E+02  0.55781559913E+02  0.84138954155E+02  0.00000000000E+00 0. -1.
        -14    1    6    6    0    0  0.55974583681E+00  0.24327484876E+02  0.71259310186E+01  0.25355842102E+02  0.00000000000E+00 0.  1.
</event>
<event>
12    1  0.1683022E-002  0.1800726E+03  0.7818608E-02  0.1168013E+00
         21   -1    0    0  503  502  0.00000000000E+00  0.00000000000E+00  0.69548225048E+02  0.69548225048E+02  0.00000000000E+00 0. -1.
         21   -1    0    0  501  503 -0.00000000000E+00 -0.00000000000E+00 -0.46327491795E+03  0.46327491795E+03  0.00000000000E+00 0. -1.
          6    2    1    2  501    0 -0.21505026928E+02 -0.47433909520E+02 -0.19945430570E+03  0.26871574292E+03  0.17237658911E+03 0.  0.
         24    2    3    3    0    0 -0.79941132840E+02 -0.38748925260E+02 -0.14625141172E+03  0.18907376056E+03  0.80419820779E+02 0.  0.
         -6    2    1    2    0  502  0.21505026928E+02  0.47433909520E+02 -0.19427238720E+03  0.26410740008E+03  0.17116809397E+03 0.  0.
        -24    2    5    5    0    0  0.14222100050E+02  0.90799365497E+02 -0.13363656758E+03  0.18905810684E+03  0.97146501021E+02 0.  0.
          5    1    3    3  501    0  0.58436105911E+02 -0.86849842606E+01 -0.53202893977E+02  0.79641982354E+02  0.47000000000E+01 0. -1.
        -13    1    4    4    0    0  0.16276386276E+02 -0.72984732101E+01 -0.30226125017E+02  0.35097109496E+02  0.00000000000E+00 0.  1.
         14    1    4    4    0    0 -0.96217519116E+02 -0.31450452050E+02 -0.11602528671E+03  0.15397665107E+03  0.00000000000E+00 0. -1.
         -5    1    5    5    0  502  0.72829268783E+01 -0.43365455976E+02 -0.60635819621E+02  0.75049293248E+02  0.47000000000E+01 0.  1.
         11    1    6    6    0    0 -0.12970584281E+02  0.36601583196E+02 -0.12105350463E+03  0.12712931579E+03  0.00000000000E+00 0. -1.
        -12    1    6    6    0    0  0.27192684331E+02  0.54197782300E+02 -0.12583062951E+02  0.61928791047E+02  0.00000000000E+00 0.  1.
</event>
<event>
12    1  0.1683022E-002  0.2172298E+03  0.7818608E-02  0.1138565E+00
         21   -1    0    0  501  502  0.00000000000E+00  0.00000000000E+00  0.61142262258E+03  0.61142262258E+03  0.00000000000E+00 0.  1.
         21   -1    0    0  502  503 -0.00000000000E+00 -0.00000000000E+00 -0.77867140483E+02  0.77867140483E+02  0.00000000000E+00 0.  1.
          6    2    1    2  501    0 -0.42014942304E+02 -0.10225750945E+03  0.36472566992E+03  0.42451574041E+03  0.18699450779E+03 0.  0.
         24    2    3    3    0    0 -0.76961353202E+02 -0.14870052387E+02  0.27001764268E+03  0.29091364571E+03  0.74679672971E+02 0.  0.
         -6    2    1    2    0  503  0.42014942304E+02  0.10225750945E+03  0.16882981217E+03  0.26477402264E+03  0.17140572911E+03 0.  0.
        -24    2    5    5    0    0 -0.12849299066E+02  0.11514584734E+03  0.85549014764E+02  0.16410637416E+03  0.78667639263E+02 0.  0.
          5    1    3    3  501    0  0.34946410898E+02 -0.87387457063E+02  0.94708027242E+02  0.13360209471E+03  0.47000000000E+01 0. -1.
        -11    1    4    4    0    0 -0.69392633266E+02 -0.31662151133E+02  0.13851448838E+03  0.15812682523E+03  0.00000000000E+00 0.  1.
         12    1    4    4    0    0 -0.75687199364E+01  0.16792098746E+02  0.13150315429E+03  0.13278682047E+03  0.00000000000E+00 0. -1.
         -5    1    5    5    0  503  0.54864241370E+02 -0.12888337887E+02  0.83280797407E+02  0.10066764848E+03  0.47000000000E+01 0.  1.
         11    1    6    6    0    0 -0.14232298609E+02  0.94428117321E+02  0.23034105904E+02  0.98233383833E+02  0.00000000000E+00 0. -1.
        -12    1    6    6    0    0  0.13829995423E+01  0.20717730015E+02  0.62514908860E+02  0.65872990326E+02  0.00000000000E+00 0.  1.
</event>
<event>
12    1  0.1683022E-002  0.1738355E+03  0.7818608E-02  0.1174062E+00
         21   -1    0    0  503  502  0.00000000000E+00  0.00000000000E+00  0.17103437204E+03  0.17103437204E+03  0.00000000000E+00 0. -1.
         21   -1    0    0  501  503 -0.00000000000E+00 -0.00000000000E+00 -0.37755529195E+03  0.37755529195E+03  0.00000000000E+00 0. -1.
          6    2    1    2  501    0 -0.18345764997E+02  0.13463958199E+01 -0.30355818863E+03  0.34950422635E+03  0.17224183719E+03 0.  0.
         24    2    3    3    0    0 -0.77894460145E+02 -0.11150733930E+01 -0.21184596889E+03  0.24002670732E+03  0.81641382774E+02 0.  0.
         -6    2    1    2    0  502  0.18345764997E+02 -0.13463958199E+01  0.97037268712E+02  0.19908543763E+03  0.17285948075E+03 0.  0.
        -24    2    5    5    0    0 -0.36113575673E+02  0.22485773850E+02  0.12116152631E+02  0.95318978440E+02  0.84434034149E+02 0.  0.
          5    1    3    3  501    0  0.59548695148E+02  0.24614692129E+01 -0.91712219740E+02  0.10947751904E+03  0.47000000000E+01 0. -1.
        -11    1    4    4    0    0  0.44673719464E+00  0.28766416655E+02 -0.47659432231E+02  0.55669810328E+02  0.00000000000E+00 0.  1.
         12    1    4    4    0    0 -0.78341197339E+02 -0.29881490048E+02 -0.16418653666E+03  0.18435689699E+03  0.00000000000E+00 0. -1.
         -5    1    5    5    0  502  0.54459340670E+02 -0.23832169670E+02  0.84921116081E+02  0.10376645919E+03  0.47000000000E+01 0.  1.
         13    1    6    6    0    0  0.93664069362E+01  0.34533811565E+02 -0.17389941990E+02  0.39783461419E+02  0.00000000000E+00 0. -1.
        -14    1    6    6    0    0 -0.45479982609E+02 -0.12048037715E+02  0.29506094621E+02  0.55535517020E+02  0.00000000000E+00 0.  1.
</event>
<event>
12    1  0.1683022E-002  0.1741830E+03  0.7818608E-02  0.1174212E+00
         21   -1    0    0  503  502  0.00000000000E+00  0.00000000000E+00  0.18369750294E+03  0.18369750294E+03  0.00000000000E+00 0. -1.
         21   -1    0    0  501  503 -0.00000000000E+00 -0.00000000000E+00 -0.18912370833E+03  0.18912370833E+03  0.00000000000E+00 0. -1.
          6    2    1    2  501    0 -0.10185912336E+01 -0.37963856271E+01 -0.72344132005E+02  0.18622611355E+03  0.17155477802E+03 0.  0.
         24    2    3    3    0    0  0.25758142020E+02 -0.15982910289E+02 -0.10916417058E+03  0.13886251923E+03  0.80293510368E+02 0.  0.
         -6    2    1    2    0  502  0.10185912336E+01  0.37963856271E+01  0.66917926620E+02  0.18659509771E+03  0.17413865601E+03 0.  0.
        -24    2    5    5    0    0 -0.52772319627E+01 -0.22710708934E+02  0.10782789143E+03  0.13721920610E+03  0.81600434269E+02 0.  0.
          5    1    3    3  501    0 -0.26776733254E+02  0.12186524662E+02  0.36820038571E+02  0.47363594326E+02  0.47000000000E+01 0. -1.
        -13    1    4    4    0    0  0.23370310263E+02 -0.18026402465E+02  0.13806434809E+00  0.29515108833E+02  0.00000000000E+00 0.  1.
         14    1    4    4    0    0  0.23878317574E+01  0.20434921765E+01 -0.10930223492E+03  0.10934741040E+03  0.00000000000E+00 0. -1.
         -5    1    5    5    0  502  0.62958231963E+01  0.26507094561E+02 -0.40909964815E+02  0.49375891617E+02  0.47000000000E+01 0.  1.
         11    1    6    6    0    0  0.85291013010E+01  0.15236849903E+02  0.92329346749E+02  0.93966033411E+02  0.00000000000E+00 0. -1.
        -12    1    6    6    0    0 -0.13806333264E+02 -0.37947558837E+02  0.15498544686E+02  0.43253172684E+02  0.00000000000E+00 0.  1.
</event>
<event>
12    1  0.1683022E-002  0.4533264E+03  0.7818608E-02  0.1026910E+00
         21   -1    0    0  503  502  0.00000000000E+00  0.00000000000E+00  0.84549159722E+03  0.84549159722E+03  0.00000000000E+00 0.  1.
         21   -1    0    0  501  503 -0.00000000000E+00 -0.00000000000E+00 -0.41463838774E+03  0.41463838774E+03  0.00000000000E+00 0. -1.
          6    2    1    2  501    0  0.30342734713E+03  0.28585634800E+03 -0.19104358389E+03  0.49193744189E+03  0.17810892484E+03 0.  0.
         24    2    3    3    0    0  0.21532231352E+03  0.10608814471E+03 -0.11155461048E+03  0.27648514844E+03  0.79882495187E+02 0.  0.
         -6    2    1    2    0  502 -0.30342734713E+03 -0.28585634800E+03  0.62189679337E+03  0.76819254308E+03  0.17199463645E+03 0.  0.
        -24    2    5    5    0    0 -0.30997194416E+03 -0.26242898482E+03  0.61671881558E+03  0.74288296881E+03  0.81126010726E+02 0.  0.
          5    1    3    3  501    0  0.88105033607E+02  0.17976820329E+03 -0.79488973405E+02  0.21545229345E+03  0.47000000000E+01 0. -1.
        -11    1    4    4    0    0  0.71678422280E+02  0.90372904781E+01 -0.37516163397E+01  0.72343233718E+02  0.00000000000E+00 0.  1.
         12    1    4    4    0    0  0.14364389124E+03  0.97050854231E+02 -0.10780299414E+03  0.20414191472E+03  0.00000000000E+00 0. -1.
         -5    1    5    5    0  502  0.65445970302E+01 -0.23427363178E+02  0.51779777858E+01  0.25309574270E+02  0.47000000000E+01 0.  1.
         11    1    6    6    0    0 -0.10395046762E+03 -0.47174156011E+02  0.20528788203E+03  0.23489192243E+03  0.00000000000E+00 0. -1.
        -12    1    6    6    0    0 -0.20602147654E+03 -0.21525482881E+03  0.41143093355E+03  0.50799104638E+03  0.00000000000E+00 0.  1.
</event>
<event>
12    1  0.1683022E-002  0.2140862E+03  0.7818608E-02  0.1138371E+00
         21   -1    0    0  503  502  0.00000000000E+00  0.00000000000E+00  0.29116932829E+03  0.29116932829E+03  0.00000000000E+00 0. -1.
         21   -1    0    0  501  503 -0.00000000000E+00 -0.00000000000E+00 -0.25011493800E+03  0.25011493800E+03  0.00000000000E+00 0.  1.
          6    2    1    2  501    0  0.12215246338E+03  0.40668230972E+02 -0.14424558286E+03  0.25814665792E+03  0.17104905583E+03 0.  0.
         24    2    3    3    0    0  0.14627104803E+03  0.20305232539E+02 -0.78193960649E+02  0.18478955446E+03  0.78900963228E+02 0.  0.
         -6    2    1    2    0  502 -0.12215246338E+03 -0.40668230972E+02  0.18529997315E+03  0.28313760837E+03  0.17104296508E+03 0.  0.
        -24    2    5    5    0    0 -0.13844168584E+03 -0.30110700465E+02  0.20042086543E+03  0.25808702750E+03  0.79797467380E+02 0.  0.
          5    1    3    3  501    0 -0.24118584647E+02  0.20362998433E+02 -0.66051622213E+02  0.73357103457E+02  0.47000000000E+01 0. -1.
        -13    1    4    4    0    0  0.92825222261E+02  0.35258878629E+01 -0.87956992006E+02  0.12792726924E+03  0.00000000000E+00 0.  1.
         14    1    4    4    0    0  0.53445825765E+02  0.16779344676E+02  0.97630313572E+01  0.56862285222E+02  0.00000000000E+00 0. -1.
         -5    1    5    5    0  502  0.16289222458E+02 -0.10557530507E+02 -0.15120892282E+02  0.25050580873E+02  0.47000000000E+01 0.  1.
         13    1    6    6    0    0 -0.70779701492E+02 -0.34102863241E+02  0.16231511726E+03  0.18033016585E+03  0.00000000000E+00 0. -1.
        -14    1    6    6    0    0 -0.67661984344E+02  0.39921627765E+01  0.38105748176E+02  0.77756861646E+02  0.00000000000E+00 0.  1.
</event>
<event>
12    1  0.1683022E-002  0.1755789E+03  0.7818608E-02  0.1172305E+00
         21   -1    0    0  503  502  0.00000000000E+00  0.00000000000E+00  0.75234404156E+03  0.75234404156E+03  0.00000000000E+00 0. -1.
         21   -1    0    0  501  503 -0.00000000000E+00 -0.00000000000E+00 -0.50826045804E+02  0.50826045804E+02  0.00000000000E+00 0. -1.
          6    2    1    2  501    0  0.16063019489E+02  0.27889050747E+02  0.17220671047E+03  0.24549779294E+03  0.17198312551E+03 0.  0.
         24    2    3    3    0    0  0.12123936801E+02 -0.32495213920E+02  0.15409163776E+03  0.18215727154E+03  0.90741996756E+02 0.  0.
         -6    2    1    2    0  502 -0.16063019489E+02 -0.27889050747E+02  0.52931128529E+03  0.55767229443E+03  0.17260397299E+03 0.  0.
        -24    2    5    5    0    0  0.36345774305E+02  0.22344328744E+01  0.44733966608E+03  0.45571376223E+03  0.78969919836E+02 0.  0.
          5    1    3    3  501    0  0.39390826873E+01  0.60384264667E+02  0.18115072708E+02  0.63340521398E+02  0.47000000000E+01 0. -1.
        -13    1    4    4    0    0 -0.43661263240E+01  0.23642053970E+01  0.14150517696E+03  0.14159225838E+03  0.00000000000E+00 0.  1.
         14    1    4    4    0    0  0.16490063125E+02 -0.34859419317E+02  0.12586460797E+02  0.40565013157E+02  0.00000000000E+00 0. -1.
         -5    1    5    5    0  502 -0.52408793794E+02 -0.30123483621E+02  0.81971619215E+02  0.10195853220E+03  0.47000000000E+01 0.  1.
         13    1    6    6    0    0  0.40631323495E+02  0.11846546796E+02  0.10495128323E+03  0.11316367338E+03  0.00000000000E+00 0. -1.
        -14    1    6    6    0    0 -0.42855491902E+01 -0.96121139212E+01  0.34238838284E+03  0.34255008885E+03  0.00000000000E+00 0.  1.
</event>
<event>
12    1  0.1683022E-002  0.1799144E+03  0.7818608E-02  0.1168275E+00
         21   -1    0    0  501  502  0.00000000000E+00  0.00000000000E+00  0.17771698686E+03  0.17771698686E+03  0.00000000000E+00 0. -1.
         21   -1    0    0  502  503 -0.00000000000E+00 -0.00000000000E+00 -0.18675344390E+03  0.18675344390E+03  0.00000000000E+00 0. -1.
          6    2    1    2  501    0  0.39266264205E+02  0.27750923124E+02  0.28746536954E+02  0.18219647603E+03  0.17337023750E+03 0.  0.
         24    2    3    3    0    0  0.66226066497E+02 -0.31762837226E+02  0.39208724746E+02  0.11586197532E+03  0.80572349581E+02 0.  0.
         -6    2    1    2    0  503 -0.39266264205E+02 -0.27750923124E+02 -0.37782993992E+02  0.18227395473E+03  0.17170989109E+03 0.  0.
        -24    2    5    5    0    0 -0.58530864979E+02 -0.20609219841E+02 -0.88789924526E+02  0.12708404866E+03  0.66453763098E+02 0.  0.
          5    1    3    3  501    0 -0.26959802292E+02  0.59513760350E+02 -0.10462187791E+02  0.66334500706E+02  0.47000000000E+01 0. -1.
        -11    1    4    4    0    0  0.40491198830E+02 -0.40920383945E+02  0.58767782142E+02  0.82265832657E+02  0.00000000000E+00 0.  1.
         12    1    4    4    0    0  0.25734867667E+02  0.91575467189E+01 -0.19559057396E+02  0.33596142665E+02  0.00000000000E+00 0. -1.
         -5    1    5    5    0  503  0.19264600773E+02 -0.71417032823E+01  0.51006930535E+02  0.55189906063E+02  0.47000000000E+01 0.  1.
         11    1    6    6    0    0 -0.35014248856E+02  0.13280922852E+02 -0.10994519781E+02  0.39028963603E+02  0.00000000000E+00 0. -1.
        -12    1    6    6    0    0 -0.23516616123E+02 -0.33890142693E+02 -0.77795404745E+02  0.88055085061E+02  0.00000000000E+00 0.  1.
</event>
<event>
12    1  0.1683022E-002  0.1751062E+03  0.7818608E-02  0.1174608E+00
         21   -1    0    0  501  502  0.00000000000E+00  0.00000000000E+00  0.89705080388E+03  0.89705080388E+03  0.00000000000E+00 0. -1.
         21   -1    0    0  502  503 -0.00000000000E+00 -0.00000000000E+00 -0.34031461434E+02  0.34031461434E+02  0.00000000000E+00 0. -1.
          6    2    1    2  501    0  0.26602064997E+01 -0.28334946161E+02  0.51452707048E+03  0.54107067085E+03  0.16495277725E+03 0.  0.
         24    2    3    3    0    0 -0.74265646088E+01 -0.23220379286E+02  0.13794789317E+03  0.16429239583E+03  0.85837230964E+02 0.  0.
         -6    2    1    2    0  503 -0.26602064997E+01  0.28334946161E+02  0.34849227197E+03  0.39001159447E+03  0.17277799144E+03 0.  0.
        -24    2    5    5    0    0 -0.30329568633E+02 -0.14129771009E+02  0.89170388835E+02  0.12574132585E+03  0.82097439781E+02 0.  0.
          5    1    3    3  501    0  0.10086771108E+02 -0.51145668748E+01  0.37657917731E+03  0.37677827502E+03  0.47000000000E+01 0. -1.
        -11    1    4    4    0    0  0.17361546518E+01 -0.55569310693E+02  0.84540131279E+02  0.10118298434E+03  0.00000000000E+00 0.  1.
         12    1    4    4    0    0 -0.91627192605E+01  0.32348931406E+02  0.53407761893E+02  0.63109411483E+02  0.00000000000E+00 0. -1.
         -5    1    5    5    0  503  0.27669362133E+02  0.42464717170E+02  0.25932188314E+03  0.26427026863E+03  0.47000000000E+01 0.  1.
         11    1    6    6    0    0  0.16217588239E+02  0.23663613275E+02  0.28057969973E+02  0.40127626899E+02  0.00000000000E+00 0. -1.
        -12    1    6    6    0    0 -0.46547156873E+02 -0.37793384284E+02  0.61112418862E+02  0.85613698949E+02  0.00000000000E+00 0.  1.
</event>
<event>
12    1  0.1683022E-002  0.1872667E+03  0.7818608E-02  0.1160957E+00
         21   -1    0    0  501  502  0.00000000000E+00  0.00000000000E+00  0.28850691019E+02  0.28850691019E+02  0.00000000000E+00 0.  1.
         21   -1    0    0  502  503 -0.00000000000E+00 -0.00000000000E+00 -0.12156300711E+04  0.12156300711E+04  0.00000000000E+00 0.  1.
          6    2    1    2  501    0 -0.49324337601E+02 -0.52869320436E+02 -0.60307045472E+03  0.63146776419E+03  0.17271221306E+03 0.  0.
         24    2    3    3    0    0 -0.51202487356E+02 -0.45471744308E+02 -0.18020953738E+03  0.20851185989E+03  0.79450261849E+02 0.  0.
         -6    2    1    2    0  503  0.49324337601E+02  0.52869320436E+02 -0.58370892533E+03  0.61301299789E+03  0.17274481396E+03 0.  0.
        -24    2    5    5    0    0 -0.22328403685E+02  0.19457463803E+02 -0.44944787874E+03  0.45713296027E+03  0.78038433806E+02 0.  0.
          5    1    3    3  501    0  0.18781497553E+01 -0.73975761279E+01 -0.42286091733E+03  0.42295590431E+03  0.47000000000E+01 0. -1.
        -13    1    4    4    0    0 -0.23889408143E+02 -0.51283055150E+02 -0.16935034074E+03  0.17855025477E+03  0.00000000000E+00 0.  1.
         14    1    4    4    0    0 -0.27313079213E+02  0.58113108417E+01 -0.10859196640E+02  0.29961605122E+02  0.00000000000E+00 0. -1.
         -5    1    5    5    0  503  0.71652741286E+02  0.33411856634E+02 -0.13426104659E+03  0.15588003762E+03  0.47000000000E+01 0.  1.
         11    1    6    6    0    0  0.21250758907E+02 -0.16030463826E+02 -0.11908781681E+03  0.12202654891E+03  0.00000000000E+00 0. -1.
        -12    1    6    6    0    0 -0.43579162593E+02  0.35487927629E+02 -0.33036006193E+03  0.33510641137E+03  0.00000000000E+00 0.  1.
</event>
<event>
12    1  0.1683022E-002  0.2234802E+03  0.7818608E-02  0.1131324E+00
         21   -1    0    0  503  502  0.00000000000E+00  0.00000000000E+00  0.42469586274E+02  0.42469586274E+02  0.00000000000E+00 0.  1.
         21   -1    0    0  501  503 -0.00000000000E+00 -0.00000000000E+00 -0.11866908969E+04  0.11866908969E+04  0.00000000000E+00 0.  1.
          6    2    1    2  501    0  0.13609430533E+03  0.45079551720E+02 -0.63116803187E+03  0.66954717220E+03  0.17136658197E+03 0.  0.
         24    2    3    3    0    0  0.95295143359E+02  0.40206639738E+02 -0.60765388389E+03  0.62197278787E+03  0.83121405305E+02 0.  0.
         -6    2    1    2    0  502 -0.13609430533E+03 -0.45079551720E+02 -0.51305327877E+03  0.55961331098E+03  0.17143385037E+03 0.  0.
        -24    2    5    5    0    0 -0.92605776771E+02  0.37998884058E+02 -0.32803011268E+03  0.35213092476E+03  0.79829119138E+02 0.  0.
          5    1    3    3  501    0  0.40799161973E+02  0.48729119820E+01 -0.23514147983E+02  0.47574384328E+02  0.47000000000E+01 0. -1.
        -11    1    4    4    0    0  0.39302235116E+02  0.48680356112E+02 -0.45254152852E+03  0.45684601102E+03  0.00000000000E+00 0.  1.
         12    1    4    4    0    0  0.55992908243E+02 -0.84737163741E+01 -0.15511235537E+03  0.16512677684E+03  0.00000000000E+00 0. -1.
         -5    1    5    5    0  502 -0.43488528561E+02 -0.83078435778E+02 -0.18502316608E+03  0.20748238623E+03  0.47000000000E+01 0.  1.
         11    1    6    6    0    0 -0.27580845732E+02  0.43032016284E+02 -0.22068115777E+03  0.22652291467E+03  0.00000000000E+00 0. -1.
        -12    1    6    6    0    0 -0.65024931039E+02 -0.50331322255E+01 -0.10734895491E+03  0.12560801008E+03  0.00000000000E+00 0.  1.
</event>
<event>
12    1  0.1683022E-002  0.1926793E+03  0.7818608E-02  0.1157361E+00
         21   -1    0    0  503  502  0.00000000000E+00  0.00000000000E+00  0.17428541223E+04  0.17428541223E+04  0.00000000000E+00 0.  1.
         21   -1    0    0  501  503 -0.00000000000E+00 -0.00000000000E+00 -0.25273875406E+02  0.25273875406E+02  0.00000000000E+00 0. -1.
          6    2    1    2  501    0  0.38575668864E+02 -0.59889783601E+02  0.49216338997E+03  0.52853581766E+03  0.17902636599E+03 0.  0.
         24    2    3    3    0    0  0.38968749089E+02 -0.82784392942E+02  0.49041383275E+03  0.50509507110E+03  0.79015722380E+02 0.  0.
         -6    2    1    2    0  502 -0.38575668864E+02  0.59889783601E+02  0.12254168569E+04  0.12395921801E+04  0.17282196383E+03 0.  0.
        -24    2    5    5    0    0 -0.37047493182E+02  0.22991304282E+02  0.29933139617E+03  0.31275875179E+03  0.79483553444E+02 0.  0.
          5    1    3    3  501    0 -0.39308022516E+00  0.22894609341E+02  0.17495572258E+01  0.23440746563E+02  0.47000000000E+01 0. -1.
        -11    1    4    4    0    0  0.20696648170E+02 -0.37680171546E+02  0.71979187605E+02  0.83840026369E+02  0.00000000000E+00 0.  1.
         12    1    4    4    0    0  0.18272100919E+02 -0.45104221396E+02  0.41843464514E+03  0.42125504473E+03  0.00000000000E+00 0. -1.
         -5    1    5    5    0  502 -0.15281756812E+01  0.36898479319E+02  0.92608546077E+03  0.92683342826E+03  0.47000000000E+01 0.  1.
         11    1    6    6    0    0 -0.33722590628E+02  0.44958924630E+02  0.12544836348E+03  0.13746203084E+03  0.00000000000E+00 0. -1.
        -12    1    6    6    0    0 -0.33249025548E+01 -0.21967620348E+02  0.17388303269E+03  0.17529672096E+03  0.00000000000E+00 0.  1.
</event>
<event>
12    1  0.1683022E-002  0.1887427E+03  0.7818608E-02  0.1159683E+00
         21   -1    0    0  501  502  0.00000000000E+00  0.00000000000E+00  0.23283772335E+03  0.23283772335E+03  0.00000000000E+00 0.  1.
         21   -1    0    0  502  503 -0.00000000000E+00 -0.00000000000E+00 -0.16008927633E+03  0.16008927633E+03  0.00000000000E+00 0.  1.
          6    2    1    2  501    0 -0.76491373471E+02 -0.17367264912E+02  0.78541725570E+02  0.20409543281E+03  0.17127051974E+03 0.  0.
         24    2    3    3    0    0 -0.10570551702E+03 -0.26267168561E+02  0.97376845903E+02  0.16790805619E+03  0.82748080000E+02 0.  0.
         -6    2    1    2    0  503  0.76491373471E+02  0.17367264912E+02 -0.57932785544E+01  0.18883156687E+03  0.17167191519E+03 0.  0.
        -24    2    5    5    0    0  0.18985051760E+02  0.59736289595E+02  0.40606932581E+02  0.10352517272E+03  0.71691575021E+02 0.  0.
          5    1    3    3  501    0  0.29214143553E+02  0.88999036492E+01 -0.18835120332E+02  0.36187376617E+02  0.47000000000E+01 0. -1.
        -13    1    4    4    0    0 -0.10066894022E+02 -0.23402879548E+02  0.60001062717E+02  0.65185616923E+02  0.00000000000E+00 0.  1.
         14    1    4    4    0    0 -0.95638623002E+02 -0.28642890124E+01  0.37375783185E+02  0.10272243927E+03  0.00000000000E+00 0. -1.
         -5    1    5    5    0  503  0.57506321711E+02 -0.42369024683E+02 -0.46400211135E+02  0.85306394149E+02  0.47000000000E+01 0.  1.
         11    1    6    6    0    0  0.17492609015E+02  0.45373153940E+02 -0.11066730940E+02  0.49871705428E+02  0.00000000000E+00 0. -1.
        -12    1    6    6    0    0  0.14924427443E+01  0.14363135655E+02  0.51673663521E+02  0.53653467296E+02  0.00000000000E+00 0.  1.
</event>
<event>
12    1  0.1683022E-002  0.1743395E+03  0.7818608E-02  0.1174105E+00
         21   -1    0    0  503  502  0.00000000000E+00  0.00000000000E+00  0.30725346896E+03  0.30725346896E+03  0.00000000000E+00 0. -1.
         21   -1    0    0  501  503 -0.00000000000E+00 -0.00000000000E+00 -0.11891762115E+03  0.11891762115E+03  0.00000000000E+00 0. -1.
          6    2    1    2  501    0  0.48948532839E+01  0.65307517728E+01  0.28024627909E+01  0.17157945952E+03  0.17136232615E+03 0.  0.
         24    2    3    3    0    0  0.16519224396E+02  0.25308236156E+02 -0.60905255390E+02  0.10398890338E+03  0.78681956632E+02 0.  0.
         -6    2    1    2    0  502 -0.48948532839E+01 -0.65307517728E+01  0.18553338502E+03  0.25459163059E+03  0.17414835946E+03 0.  0.
        -24    2    5    5    0    0  0.65806771095E+01 -0.19866579307E+02  0.20927409320E+03  0.22467101364E+03  0.79015390911E+02 0.  0.
          5    1    3    3  501    0 -0.11624371112E+02 -0.18777484383E+02  0.63707718181E+02  0.67590556140E+02  0.47000000000E+01 0. -1.
        -13    1    4    4    0    0  0.47220742356E+02  0.83106138420E+01 -0.26219945264E+02  0.54647509923E+02  0.00000000000E+00 0.  1.
         14    1    4    4    0    0 -0.30701517961E+02  0.16997622314E+02 -0.34685310126E+02  0.49341393454E+02  0.00000000000E+00 0. -1.
         -5    1    5    5    0  502 -0.11475530393E+02  0.13335827534E+02 -0.23740708179E+02  0.29920616950E+02  0.47000000000E+01 0.  1.
         13    1    6    6    0    0  0.13613678225E+02 -0.36917463279E+02  0.46754855699E+02  0.61108492546E+02  0.00000000000E+00 0. -1.
        -14    1    6    6    0    0 -0.70330011157E+01  0.17050883973E+02  0.16251923750E+03  0.16356252109E+03  0.00000000000E+00 0.  1.
</event>
<event>
12    1  0.1683022E-002  0.3340979E+03  0.7818608E-02  0.1069365E+00
         21   -1    0    0  501  502  0.00000000000E+00  0.00000000000E+00  0.57077042648E+03  0.57077042648E+03  0.00000000000E+00 0. -1.
         21   -1    0    0  502  503 -0.00000000000E+00 -0.00000000000E+00 -0.21870404896E+03  0.21870404896E+03  0.00000000000E+00 0.  1.
          6    2    1    2  501    0  0.14746923524E+02  0.28574473012E+03  0.30489999114E+03  0.45231119523E+03  0.17249315982E+03 0.  0.
         24    2    3    3    0    0 -0.26279477407E+02  0.23452131391E+03  0.16947140665E+03  0.30174561005E+03  0.81480046051E+02 0.  0.
         -6    2    1    2    0  503 -0.14746923524E+02 -0.28574473012E+03  0.47166386373E+02  0.33716328021E+03  0.17200839217E+03 0.  0.
        -24    2    5    5    0    0 -0.50238644511E+02 -0.19900083555E+03 -0.20601823316E+02  0.22141015608E+03  0.80453515371E+02 0.  0.
          5    1    3    3  501    0  0.41026400931E+02  0.51223416209E+02  0.13542858449E+03  0.15056558517E+03  0.47000000000E+01 0. -1.
        -13    1    4    4    0    0 -0.43715879296E+02  0.19146029936E+03  0.16222725224E+03  0.25472692379E+03  0.00000000000E+00 0.  1.
         14    1    4    4    0    0  0.17436401889E+02  0.43061014549E+02  0.72441544078E+01  0.47018686263E+02  0.00000000000E+00 0. -1.
         -5    1    5    5    0  503  0.35491720987E+02 -0.86743894563E+02  0.67768209689E+02  0.11575312413E+03  0.47000000000E+01 0.  1.
         13    1    6    6    0    0 -0.38032190763E+02 -0.19483212890E+03 -0.16878702941E+01  0.19851663631E+03  0.00000000000E+00 0. -1.
        -14    1    6    6    0    0 -0.12206453748E+02 -0.41687066544E+01 -0.18913953022E+02  0.22893519764E+02  0.00000000000E+00 0.  1.
</event>
<event>
12    1  0.1683022E-002  0.3920416E+03  0.7818608E-02  0.1046651E+00
         21   -1    0    0  501  502  0.00000000000E+00  0.00000000000E+00  0.26363931133E+03  0.26363931133E+03  0.00000000000E+00 0. -1.
         21   -1    0    0  502  503 -0.00000000000E+00 -0.00000000000E+00 -0.69253461699E+03  0.69253461699E+03  0.00000000000E+00 0.  1.
          6    2    1    2  501    0  0.23927280412E+03  0.25807934365E+03 -0.23343177182E+02  0.39273591923E+03  0.17274309226E+03 0.  0.
         24    2    3    3    0    0  0.62151442893E+02  0.64772512679E+02  0.33906204879E+02  0.12433493330E+03  0.79064939493E+02 0.  0.
         -6    2    1    2    0  503 -0.23927280412E+03 -0.25807934365E+03 -0.40555212848E+03  0.56343800909E+03  0.17068520369E+03 0.  0.
        -24    2    5    5    0    0 -0.76719013156E+02 -0.16981448790E+03 -0.17716752050E+03  0.26950597803E+03  0.80761219625E+02 0.  0.
          5    1    3    3  501    0  0.17712136122E+03  0.19330683097E+03 -0.57249382061E+02  0.26840098593E+03  0.47000000000E+01 0. -1.
        -13    1    4    4    0    0  0.36834893475E+02  0.68812097172E+02 -0.44752073159E+01  0.78178907482E+02  0.00000000000E+00 0.  1.
         14    1    4    4    0    0  0.25316549417E+02 -0.40395844929E+01  0.38381412195E+02  0.46156025818E+02  0.00000000000E+00 0. -1.
         -5    1    5    5    0  503 -0.16255379096E+03 -0.88264855751E+02 -0.22838460798E+03  0.29393203105E+03  0.47000000000E+01 0.  1.
         11    1    6    6    0    0 -0.51807937932E+02 -0.81833219694E+02 -0.40300946362E+02  0.10490426376E+03  0.00000000000E+00 0. -1.
        -12    1    6    6    0    0 -0.24911075224E+02 -0.87981268206E+02 -0.13686657414E+03  0.16460171427E+03  0.00000000000E+00 0.  1.
</event>
<event>
12    1  0.1683022E-002  0.1967843E+03  0.7818608E-02  0.1152494E+00
         21   -1    0    0  503  502  0.00000000000E+00  0.00000000000E+00  0.70988927772E+02  0.70988927772E+02  0.00000000000E+00 0. -1.
         21   -1    0    0  501  503 -0.00000000000E+00 -0.00000000000E+00 -0.55542261145E+03  0.55542261145E+03  0.00000000000E+00 0. -1.
          6    2    1    2  501    0  0.89400822397E+02 -0.28077676744E+02 -0.28441394010E+03  0.34581940062E+03  0.17297082282E+03 0.  0.
         24    2    3    3    0    0  0.64776096742E+02  0.17348240300E+02 -0.27347248528E+03  0.29279396817E+03  0.80275796125E+02 0.  0.
         -6    2    1    2    0  502 -0.89400822397E+02  0.28077676744E+02 -0.20001974359E+03  0.28059213860E+03  0.17304099932E+03 0.  0.
        -24    2    5    5    0    0 -0.21357919902E+02  0.74000095252E+02 -0.95368551047E+02  0.14750319390E+03  0.82035704685E+02 0.  0.
          5    1    3    3  501    0  0.24624725656E+02 -0.45425917044E+02 -0.10941454819E+02  0.53025432450E+02  0.47000000000E+01 0. -1.
        -11    1    4    4    0    0  0.75018468010E+02  0.13912812468E+02 -0.14482488740E+03  0.16369357014E+03  0.00000000000E+00 0.  1.
         12    1    4    4    0    0 -0.10242371268E+02  0.34354278324E+01 -0.12864759788E+03  0.12910039804E+03  0.00000000000E+00 0. -1.
         -5    1    5    5    0  502 -0.68042902496E+02 -0.45922418509E+02 -0.10465119254E+03  0.13308894470E+03  0.47000000000E+01 0.  1.
         11    1    6    6    0    0 -0.34195581274E+02  0.80379923756E+01 -0.59175693416E+01  0.35622531171E+02  0.00000000000E+00 0. -1.
        -12    1    6    6    0    0  0.12837661373E+02  0.65962102877E+02 -0.89450981705E+02  0.11188066273E+03  0.00000000000E+00 0.  1.
</event>
<event>
12    1  0.1683022E-002  0.1807575E+03  0.7818608E-02  0.1170041E+00
         21   -1    0    0  503  502  0.00000000000E+00  0.00000000000E+00  0.77091544143E+02  0.77091544143E+02  0.00000000000E+00 0.  1.
         21   -1    0    0  501  503 -0.00000000000E+00 -0.00000000000E+00 -0.53767756922E+03  0.53767756922E+03  0.00000000000E+00 0.  1.
          6    2    1    2  501    0 -0.33000805708E+02  0.45406719310E+02 -0.39357329836E+03  0.43309723816E+03  0.17182099167E+03 0.  0.
         24    2    3    3    0    0  0.13565103642E+02  0.77537132666E+02 -0.31440191364E+03  0.33567575421E+03  0.87370645425E+02 0.  0.
         -6    2    1    2    0  502  0.33000805708E+02 -0.45406719310E+02 -0.67012726712E+02  0.18167187521E+03  0.15925809670E+03 0.  0.
        -24    2    5    5    0    0  0.50633552318E+02 -0.68037797279E+02 -0.87418063795E+02  0.14615360914E+03  0.80784039930E+02 0.  0.
          5    1    3    3  501    0 -0.46565909350E+02 -0.32130413357E+02 -0.79171384721E+02  0.97421483948E+02  0.47000000000E+01 0. -1.
        -11    1    4    4    0    0  0.45182415721E+02  0.17902040108E+02 -0.15864966917E+03  0.16592664421E+03  0.00000000000E+00 0.  1.
         12    1    4    4    0    0 -0.31617312079E+02  0.59635092558E+02 -0.15575224448E+03  0.16974911000E+03  0.00000000000E+00 0. -1.
         -5    1    5    5    0  502 -0.17632746610E+02  0.22631077969E+02  0.20405337083E+02  0.35518266068E+02  0.47000000000E+01 0.  1.
         11    1    6    6    0    0  0.20749401016E+01 -0.67208445186E+01 -0.64172239699E+02  0.64556575772E+02  0.00000000000E+00 0. -1.
        -12    1    6    6    0    0  0.48558612217E+02 -0.61316952760E+02 -0.23245824097E+02  0.81597033366E+02  0.00000000000E+00 0.  1.
</event>
<event>
12    1  0.1683022E-002  0.1739309E+03  0.7818608E-02  0.1175159E+00
         21   -1    0    0  501  502  0.00000000000E+00  0.00000000000E+00  0.14297534134E+03  0.14297534134E+03  0.00000000000E+00 0.  1.
         21   -1    0    0  502  503 -0.00000000000E+00 -0.00000000000E+00 -0.21510305110E+03  0.21510305110E+03  0.00000000000E+00 0.  1.
          6    2    1    2  501    0 -0.49745808569E+01 -0.39374016320E+02 -0.73846485410E+02  0.18413898005E+03  0.16394755549E+03 0.  0.
         24    2    3    3    0    0  0.19224784570E+02  0.27698089471E+02 -0.72288499434E+02  0.11266315209E+03  0.79564955766E+02 0.  0.
         -6    2    1    2    0  503  0.49745808569E+01  0.39374016320E+02  0.17187756542E+01  0.17393941239E+03  0.16934256811E+03 0.  0.
        -24    2    5    5    0    0 -0.53354125759E+02 -0.89517650940E+01 -0.79568489195E+01  0.97432374307E+02  0.80640928098E+02 0.  0.
          5    1    3    3  501    0 -0.24199365427E+02 -0.67072105791E+02 -0.15579859765E+01  0.71475827960E+02  0.47000000000E+01 0. -1.
        -11    1    4    4    0    0  0.26839391498E+02 -0.24675670103E+01 -0.76646690711E+02  0.81247504700E+02  0.00000000000E+00 0.  1.
         12    1    4    4    0    0 -0.76146069287E+01  0.30165656481E+02  0.43581912774E+01  0.31415647389E+02  0.00000000000E+00 0. -1.
         -5    1    5    5    0  503  0.58328706616E+02  0.48325781414E+02  0.96756245737E+01  0.76507038079E+02  0.47000000000E+01 0.  1.
         13    1    6    6    0    0 -0.43707203757E+02  0.28169142521E+02  0.13176075983E+02  0.53641674368E+02  0.00000000000E+00 0. -1.
        -14    1    6    6    0    0 -0.96469220018E+01 -0.37120907615E+02 -0.21132924902E+02  0.43790699939E+02  0.00000000000E+00 0.  1.
</event>
<event>
12    1  0.1683022E-002  0.1879502E+03  0.7818608E-02  0.1160592E+00
         21   -1    0    0  503  502  0.00000000000E+00  0.00000000000E+00  0.14882478133E+03  0.14882478133E+03  0.00000000000E+00 0. -1.
         21   -1    0    0  501  503 -0.00000000000E+00 -0.00000000000E+00 -0.24226774778E+03  0.24226774778E+03  0.00000000000E+00 0. -1.
          6    2    1    2  501    0  0.58441043372E+02 -0.47629592799E+02 -0.14843759539E+02  0.18736939892E+03  0.17088891361E+03 0.  0.
         24    2    3    3    0    0  0.12100672270E+02  0.20003533393E+02 -0.51166208907E+02  0.97574743847E+02  0.79726294817E+02 0.  0.
         -6    2    1    2    0  502 -0.58441043372E+02  0.47629592799E+02 -0.78599206908E+02  0.20372313019E+03  0.17216661926E+03 0.  0.
        -24    2    5    5    0    0 -0.24132345437E+02  0.36485671525E+02 -0.11843871860E+03  0.14977361279E+03  0.80565691845E+02 0.  0.
          5    1    3    3  501    0  0.46340371101E+02 -0.67633126193E+02  0.36322449369E+02  0.89794655078E+02  0.47000000000E+01 0. -1.
        -13    1    4    4    0    0  0.34071747007E+02  0.40566063076E+02 -0.31743324001E+02  0.61758627221E+02  0.00000000000E+00 0.  1.
         14    1    4    4    0    0 -0.21971074737E+02 -0.20562529683E+02 -0.19422884907E+02  0.35816116626E+02  0.00000000000E+00 0. -1.
         -5    1    5    5    0  502 -0.34308697934E+02  0.11143921275E+02  0.39839511691E+02  0.53949517395E+02  0.47000000000E+01 0.  1.
         13    1    6    6    0    0  0.20192230475E+01  0.89137634954E+01 -0.11059379970E+03  0.11097081136E+03  0.00000000000E+00 0. -1.
        -14    1    6    6    0    0 -0.26151568485E+02  0.27571908029E+02 -0.78449188985E+01  0.38802801434E+02  0.00000000000E+00 0.  1.
</event>
<event>
12    1  0.1683022E-002  0.1972041E+03  0.7818608E-02  0.1153618E+00
         21   -1    0    0  501  502  0.00000000000E+00  0.00000000000E+00  0.48208627446E+03  0.48208627446E+03  0.00000000000E+00 0. -1.
         21   -1    0    0  502  503 -0.00000000000E+00 -0.00000000000E+00 -0.17811842753E+03  0.17811842753E+03  0.00000000000E+00 0.  1.
          6    2    1    2  501    0  0.35380065591E+02 -0.73125079449E+02  0.40075792296E+03  0.44665017787E+03  0.17969541534E+03 0.  0.
         24    2    3    3    0    0 -0.44975625455E+02 -0.72699277962E+02  0.23092593707E+03  0.25870813409E+03  0.79341781753E+02 0.  0.
         -6    2    1    2    0  503 -0.35380065591E+02  0.73125079449E+02 -0.96790076024E+02  0.21355452412E+03  0.17215745604E+03 0.  0.
        -24    2    5    5    0    0 -0.46960010166E+02  0.72533969590E+02 -0.12040899549E+01  0.11715320017E+03  0.79101221089E+02 0.  0.
          5    1    3    3  501    0  0.80355691046E+02 -0.42580148763E+00  0.16983198589E+03  0.18794204378E+03  0.47000000000E+01 0. -1.
        -13    1    4    4    0    0  0.11110585004E+02 -0.79657142297E+01  0.14247530297E+01  0.13745094526E+02  0.00000000000E+00 0.  1.
         14    1    4    4    0    0 -0.56086210459E+02 -0.64733563732E+02  0.22950118404E+03  0.24496303956E+03  0.00000000000E+00 0. -1.
         -5    1    5    5    0  503  0.11579944575E+02  0.59110985997E+00 -0.95585986069E+02  0.96401323954E+02  0.47000000000E+01 0.  1.
         13    1    6    6    0    0 -0.37597424099E+02  0.86726769874E+02 -0.14418736779E+02  0.95619029915E+02  0.00000000000E+00 0. -1.
        -14    1    6    6    0    0 -0.93625860675E+01 -0.14192800285E+02  0.13214646824E+02  0.21534170253E+02  0.00000000000E+00 0.  1.
</event>
<event>
12    1  0.1683022E-002  0.2946776E+03  0.7818608E-02  0.1087950E+00
         21   -1    0    0  503  502  0.00000000000E+00  0.00000000000E+00  0.11192680570E+03  0.11192680570E+03  0.00000000000E+00 0.  1.
         21   -1    0    0  501  503 -0.00000000000E+00 -0.00000000000E+00 -0.12808850978E+04  0.12808850978E+04  0.00000000000E+00 0. -1.
          6    2    1    2  501    0  0.19198952055E+03  0.14368915293E+03 -0.10220334543E+04  0.10636669059E+04  0.17125523713E+03 0.  0.
         24    2    3    3    0    0  0.16571487962E+03  0.46773748224E+02 -0.57508139568E+03  0.60554990647E+03  0.79516493373E+02 0.  0.
         -6    2    1    2    0  502 -0.19198952055E+03 -0.14368915293E+03 -0.14692483775E+03  0.32914499758E+03  0.17100576837E+03 0.  0.
        -24    2    5    5    0    0 -0.78176998169E+02 -0.71044901706E-01 -0.69574071763E+02  0.13018600130E+03  0.77435104328E+02 0.  0.
          5    1    3    3  501    0  0.26274640930E+02  0.96915404704E+02 -0.44695205865E+03  0.45811699942E+03  0.47000000000E+01 0. -1.
        -11    1    4    4    0    0  0.83898417895E+02 -0.11102594849E+02 -0.19694453958E+03  0.21435802716E+03  0.00000000000E+00 0.  1.
         12    1    4    4    0    0  0.81816461726E+02  0.57876343073E+02 -0.37813685610E+03  0.39119187931E+03  0.00000000000E+00 0. -1.
         -5    1    5    5    0  502 -0.11381252238E+03 -0.14361810803E+03 -0.77350765984E+02  0.19895899628E+03  0.47000000000E+01 0.  1.
         13    1    6    6    0    0 -0.32689655538E+02  0.14161326101E+02  0.10377448696E+02  0.37105904888E+02  0.00000000000E+00 0. -1.
        -14    1    6    6    0    0 -0.45487342631E+02 -0.14232371003E+02 -0.79951520459E+02  0.93080096410E+02  0.00000000000E+00 0.  1.
</event>
<event>
12    1  0.1683022E-002  0.2138207E+03  0.7818608E-02  0.1138661E+00
         21   -1    0    0  503  502  0.00000000000E+00  0.00000000000E+00  0.91064148855E+02  0.91064148855E+02  0.00000000000E+00 0.  1.
         21   -1    0    0  501  503 -0.00000000000E+00 -0.00000000000E+00 -0.82544446250E+03  0.82544446250E+03  0.00000000000E+00 0. -1.
          6    2    1    2  501    0  0.11799091022E+03 -0.45231755333E+02 -0.65470620772E+03  0.68873762012E+03  0.17248630192E+03 0.  0.
         24    2    3    3    0    0  0.10125147494E+03  0.22906825932E+02 -0.52476717693E+03  0.54099014409E+03  0.80704164485E+02 0.  0.
         -6    2    1    2    0  502 -0.11799091022E+03  0.45231755333E+02 -0.79674105921E+02  0.22777099123E+03  0.17194154445E+03 0.  0.
        -24    2    5    5    0    0 -0.60165482492E+02  0.27786043365E+02 -0.11798764002E+03  0.15609010219E+03  0.77788735153E+02 0.  0.
          5    1    3    3  501    0  0.16739435280E+02 -0.68138581265E+02 -0.12993903079E+03  0.14774747603E+03  0.47000000000E+01 0. -1.
        -13    1    4    4    0    0  0.47282997953E+02  0.21512269308E+02 -0.41933010082E+03  0.42253543411E+03  0.00000000000E+00 0.  1.
         14    1    4    4    0    0  0.53968476992E+02  0.13945566241E+01 -0.10543707610E+03  0.11845470997E+03  0.00000000000E+00 0. -1.
         -5    1    5    5    0  502 -0.57825427732E+02  0.17445711968E+02  0.38313534097E+02  0.71680889039E+02  0.47000000000E+01 0.  1.
         13    1    6    6    0    0 -0.31305959815E+02 -0.26243002503E+02 -0.44068806607E+02  0.60090082510E+02  0.00000000000E+00 0. -1.
        -14    1    6    6    0    0 -0.28859522678E+02  0.54029045868E+02 -0.73918833411E+02  0.96000019685E+02  0.00000000000E+00 0.  1.
</event>
<event>
12    1  0.1683022E-002  0.2195966E+03  0.7818608E-02  0.1134226E+00
         21   -1    0    0  501  502  0.00000000000E+00  0.00000000000E+00  0.46679941653E+03  0.46679941653E+03  0.00000000000E+00 0. -1.
         21   -1    0    0  502  503 -0.00000000000E+00 -0.00000000000E+00 -0.10354878192E+03  0.10354878192E+03  0.00000000000E+00 0. -1.
          6    2    1    2  501    0  0.50691058066E+02 -0.12635651644E+03  0.19825124615E+03  0.29584830122E+03  0.17229947220E+03 0.  0.
         24    2    3    3    0    0  0.96781649941E+02 -0.11868701980E+03  0.15919157323E+03  0.23476711028E+03  0.79500582692E+02 0.  0.
         -6    2    1    2    0  503 -0.50691058066E+02  0.12635651644E+03  0.16499938845E+03  0.27449989723E+03  0.17201698398E+03 0.  0.
        -24    2    5    5    0    0  0.20315191822E+02  0.11919555507E+03  0.91990194323E+02  0.17229618243E+03  0.81261868447E+02 0.  0.
          5    1    3    3  501    0 -0.46090591874E+02 -0.76694966429E+01  0.39059672922E+02  0.61081190941E+02  0.47000000000E+01 0. -1.
        -11    1    4    4    0    0  0.83261118185E+02 -0.69910367452E+02  0.61923632770E+02  0.12511758299E+03  0.00000000000E+00 0.  1.
         12    1    4    4    0    0  0.13520531755E+02 -0.48776652345E+02  0.97267940458E+02  0.10964952728E+03  0.00000000000E+00 0. -1.
         -5    1    5    5    0  503 -0.71006249888E+02  0.71609613731E+01  0.73009194130E+02  0.10220371480E+03  0.47000000000E+01 0.  1.
         13    1    6    6    0    0  0.31574670686E+01  0.12341787837E+03  0.93046623799E+02  0.15459500801E+03  0.00000000000E+00 0. -1.
        -14    1    6    6    0    0  0.17157724753E+02 -0.42223233079E+01 -0.10564294760E+01  0.17701174426E+02  0.00000000000E+00 0.  1.
</event>
