<event>
12    1  0.1061634E+000  0.3115907E+03  0.7818608E-02  0.1079629E+00
         21   -1    0    0  501  502  0.00000000000E+00  0.00000000000E+00  0.31121851864E+03  0.31121851864E+03  0.00000000000E+00 0. -1.
         21   -1    0    0  502  503 -0.00000000000E+00 -0.00000000000E+00 -0.32395954306E+03  0.32395954306E+03  0.00000000000E+00 0. -1.
         -6    2    1    2    0  503 -0.13982689210E+03 -0.21850108322E+03  0.55657530231E+02  0.31652255792E+03  0.17261079306E+03 0.  0.
        -24    2    3    3    0    0 -0.17573286135E+02 -0.35724419591E+02  0.33454152829E+02  0.95460727420E+02  0.80053204792E+02 0.  0.
          6    2    1    2  501    0  0.13982689210E+03  0.21850108322E+03 -0.68398554649E+02  0.31865550377E+03  0.17195547297E+03 0.  0.
         24    2    5    5    0    0  0.16023719298E+03  0.15887054260E+03 -0.84141059070E+02  0.25352257660E+03  0.79234914690E+02 0.  0.
          5    1    5    5  501    0 -0.20410300876E+02  0.59630540619E+02  0.15742504421E+02  0.65132927171E+02  0.47000000000E+01 0. -1.
        -11    1    6    6    0    0  0.83929173388E+02  0.47741564191E+02 -0.38856971393E+01  0.96635716685E+02  0.00000000000E+00 0.  1.
         12    1    6    6    0    0  0.76308019589E+02  0.11112897841E+03 -0.80255361930E+02  0.15688685991E+03  0.00000000000E+00 0. -1.
         -5    1    3    3    0  503 -0.12225360597E+03 -0.18277666362E+03  0.22203377402E+02  0.22106183050E+03  0.47000000000E+01 0.  1.
         13    1    4    4    0    0 -0.41309844580E+02 -0.37131075840E+02  0.42583893769E+02  0.69990056871E+02  0.00000000000E+00 0. -1.
        -14    1    4    4    0    0  0.23736558444E+02  0.14066562493E+01 -0.91297409408E+01  0.25470670549E+02  0.00000000000E+00 0.  1.
</event>
<event>
12    1  0.1061634E+000  0.1854555E+03  0.7818608E-02  0.1162897E+00
         21   -1    0    0  503  502  0.00000000000E+00  0.00000000000E+00  0.13532422801E+03  0.13532422801E+03  0.00000000000E+00 0. -1.
         21   -1    0    0  501  503 -0.00000000000E+00 -0.00000000000E+00 -0.25367182252E+03  0.25367182252E+03  0.00000000000E+00 0. -1.
          6    2    1    2  501    0  0.52056198599E+02 -0.46129306069E+02 -0.46127668305E+02  0.18997481325E+03  0.17066020976E+03 0.  0.
         24    2    3    3    0    0 -0.10043856647E+02 -0.74270204709E+02 -0.56644096598E+02  0.12082994864E+03  0.75989344284E+02 0.  0.
         -6    2    1    2    0  502 -0.52056198599E+02  0.46129306069E+02 -0.72219926203E+02  0.19902123729E+03  0.17191851110E+03 0.  0.
        -24    2    5    5    0    0  0.16187355746E+02  0.63292528487E+02 -0.75688423288E+02  0.12841047759E+03  0.80576291092E+02 0.  0.
          5    1    3    3  501    0  0.62100055246E+02  0.28140898640E+02  0.10516428293E+02  0.69144864609E+02  0.47000000000E+01 0. -1.
        -11    1    4    4    0    0 -0.28106925960E+02 -0.43039880894E+01 -0.35611706439E+02  0.45571013110E+02  0.00000000000E+00 0.  1.
         12    1    4    4    0    0  0.18063069313E+02 -0.69966216619E+02 -0.21032390159E+02  0.75258935528E+02  0.00000000000E+00 0. -1.
         -5    1    5    5    0  502 -0.68243554345E+02 -0.17163222418E+02  0.34684970844E+01  0.70610759700E+02  0.47000000000E+01 0.  1.
         13    1    6    6    0    0  0.45251629572E+02  0.18666409597E+02 -0.47260361272E+02  0.68041800194E+02  0.00000000000E+00 0. -1.
        -14    1    6    6    0    0 -0.29064273826E+02  0.44626118891E+02 -0.28428062016E+02  0.60368677394E+02  0.00000000000E+00 0.  1.
</event>
<event>
12    1  0.1061634E+000  0.2059855E+03  0.7818608E-02  0.1144865E+00
         21   -1    0    0  503  502  0.00000000000E+00  0.00000000000E+00  0.20242380809E+03  0.20242380809E+03  0.00000000000E+00 0. -1.
         21   -1    0    0  501  503 -0.00000000000E+00 -0.00000000000E+00 -0.28764692811E+03  0.28764692811E+03  0.00000000000E+00 0. -1.
          6    2    1    2  501    0 -0.65004992027E+02 -0.82940326088E+02  0.85316368595E+02  0.22295495426E+03  0.17698949743E+03 0.  0.
         24    2    3    3    0    0 -0.86232028098E+02 -0.10790105466E+03  0.97001669451E+02  0.18785137486E+03  0.82463415484E+02 0.  0.
         -6    2    1    2    0  502  0.65004992027E+02  0.82940326088E+02 -0.17053948862E+03  0.26711578194E+03  0.17652868634E+03 0.  0.
        -24    2    5    5    0    0 -0.99532294742E+01  0.87383061143E+02 -0.14477078827E+03  0.18758849867E+03  0.80597751500E+02 0.  0.
          5    1    3    3  501    0  0.21227036071E+02  0.24960728570E+02 -0.11685300856E+02  0.35103579407E+02  0.47000000000E+01 0. -1.
        -11    1    4    4    0    0 -0.28328904704E+02  0.22744440643E+00  0.48066219128E+02  0.55793727192E+02  0.00000000000E+00 0.  1.
         12    1    4    4    0    0 -0.57903123394E+02 -0.10812849906E+03  0.48935450323E+02  0.13205764767E+03  0.00000000000E+00 0. -1.
         -5    1    5    5    0  502  0.74958221501E+02 -0.44427350555E+01 -0.25768700353E+02  0.79527283264E+02  0.47000000000E+01 0.  1.
         11    1    6    6    0    0  0.24999424154E+02  0.75431984250E+01 -0.11930091438E+02  0.28708851113E+02  0.00000000000E+00 0. -1.
        -12    1    6    6    0    0 -0.34952653628E+02  0.79839862718E+02 -0.13284069683E+03  0.15887964756E+03  0.00000000000E+00 0.  1.
</event>
<event>
12    1  0.1061634E+000  0.2153930E+03  0.7818608E-02  0.1137777E+00
         21   -1    0    0  503  502  0.00000000000E+00  0.00000000000E+00  0.37821640997E+03  0.37821640997E+03  0.00000000000E+00 0. -1.
         21   -1    0    0  501  503 -0.00000000000E+00 -0.00000000000E+00 -0.15855107920E+03  0.15855107920E+03  0.00000000000E+00 0. -1.
          6    2    1    2  501    0  0.12681483036E+03  0.31160440763E+01  0.24007684188E+03  0.32253839147E+03  0.17407588298E+03 0.  0.
         24    2    3    3    0    0  0.31247201718E+02  0.32920887448E+02  0.42677852174E+02  0.10115647832E+03  0.79693548013E+02 0.  0.
         -6    2    1    2    0  502 -0.12681483036E+03 -0.31160440763E+01 -0.20411511101E+02  0.21422909770E+03  0.17142276857E+03 0.  0.
        -24    2    5    5    0    0 -0.15421787915E+03  0.21220766451E+02 -0.13783569994E+02  0.17668942491E+03  0.82435980600E+02 0.  0.
          5    1    3    3  501    0  0.95567628645E+02 -0.29804843372E+02  0.19739898970E+03  0.22138191315E+03  0.47000000000E+01 0. -1.
        -13    1    4    4    0    0  0.47064975742E+02  0.17478849085E+02  0.56107958129E+02  0.75290936190E+02  0.00000000000E+00 0.  1.
         14    1    4    4    0    0 -0.15817774025E+02  0.15442038363E+02 -0.13430105955E+02  0.25865542133E+02  0.00000000000E+00 0. -1.
         -5    1    5    5    0  502  0.27403048784E+02 -0.24336810527E+02 -0.66279411073E+01  0.37539672782E+02  0.47000000000E+01 0.  1.
         13    1    6    6    0    0  0.82629342907E+01 -0.36935696690E+01 -0.82026867060E+01  0.12214851992E+02  0.00000000000E+00 0. -1.
        -14    1    6    6    0    0 -0.16248081344E+03  0.24914336120E+02 -0.55808832877E+01  0.16447457292E+03  0.00000000000E+00 0.  1.
</event>
<event>
12    1  0.1061634E+000  0.2260339E+03  0.7818608E-02  0.1129661E+00
         21   -1    0    0  503  502  0.00000000000E+00  0.00000000000E+00  0.53236768564E+02  0.53236768564E+02  0.00000000000E+00 0.  1.
         21   -1    0    0  501  503 -0.00000000000E+00 -0.00000000000E+00 -0.10286834327E+04  0.10286834327E+04  0.00000000000E+00 0.  1.
          6    2    1    2  501    0 -0.12285734367E+03 -0.79087985617E+02 -0.63136461831E+03  0.67023610474E+03  0.17101555040E+03 0.  0.
         24    2    3    3    0    0 -0.74625706951E+02 -0.22303141011E+00 -0.19737211495E+03  0.22648216981E+03  0.82276215305E+02 0.  0.
         -6    2    1    2    0  502  0.12285734367E+03  0.79087985617E+02 -0.34408204579E+03  0.41168409649E+03  0.17246015397E+03 0.  0.
        -24    2    5    5    0    0  0.11926944580E+03  0.89642005730E+02 -0.35639969185E+03  0.39441925488E+03  0.79277477117E+02 0.  0.
          5    1    3    3  501    0 -0.48231636715E+02 -0.78864954207E+02 -0.43399250336E+03  0.44375393492E+03  0.47000000000E+01 0. -1.
        -13    1    4    4    0    0 -0.15157472406E+02  0.25585314806E+02 -0.15779828077E+02  0.33665416641E+02  0.00000000000E+00 0.  1.
         14    1    4    4    0    0 -0.59468234545E+02 -0.25808346216E+02 -0.18159228687E+03  0.19281675317E+03  0.00000000000E+00 0. -1.
         -5    1    5    5    0  502  0.35878978676E+01 -0.10554020113E+02  0.12317646055E+02  0.17264841615E+02  0.47000000000E+01 0.  1.
         13    1    6    6    0    0  0.21507744025E+02  0.64526084314E+02 -0.14452447946E+03  0.15972953319E+03  0.00000000000E+00 0. -1.
        -14    1    6    6    0    0  0.97761701773E+02  0.25115921416E+02 -0.21187521238E+03  0.23468972169E+03  0.00000000000E+00 0.  1.
</event>
<event>
12    1  0.1061634E+000  0.4086538E+03  0.7818608E-02  0.1040836E+00
         21   -1    0    0  503  502  0.00000000000E+00  0.00000000000E+00  0.97734711192E+03  0.97734711192E+03  0.00000000000E+00 0. -1.
         21   -1    0    0  501  503 -0.00000000000E+00 -0.00000000000E+00 -0.17451948513E+03  0.17451948513E+03  0.00000000000E+00 0.  1.
          6    2    1    2  501    0 -0.15227806262E+03  0.33942933462E+03  0.31748218221E+03  0.51748710041E+03  0.16910671636E+03 0.  0.
         24    2    3    3    0    0 -0.15056230748E+03  0.24088219539E+03  0.17225742151E+03  0.34191146547E+03  0.80855367562E+02 0.  0.
         -6    2    1    2    0  502  0.15227806262E+03 -0.33942933462E+03  0.48534544458E+03  0.63437949664E+03  0.16874911443E+03 0.  0.
        -24    2    5    5    0    0  0.76499142992E+02 -0.30146553647E+03  0.35332999124E+03  0.47742770611E+03  0.79759283416E+02 0.  0.
          5    1    3    3  501    0 -0.17157551375E+01  0.98547139232E+02  0.14522476070E+03  0.17557563495E+03  0.47000000000E+01 0. -1.
        -11    1    4    4    0    0 -0.49672152434E+02  0.63169779262E+02  0.92533488136E+02  0.12255688543E+03  0.00000000000E+00 0.  1.
         12    1    4    4    0    0 -0.10089015505E+03  0.17771241613E+03  0.79723933371E+02  0.21935458004E+03  0.00000000000E+00 0. -1.
         -5    1    5    5    0  502  0.75778919624E+02 -0.37963798151E+02  0.13201545333E+03  0.15695179052E+03  0.47000000000E+01 0.  1.
         11    1    6    6    0    0  0.88279859660E+02 -0.20330279669E+03  0.25728864431E+03  0.33959211895E+03  0.00000000000E+00 0. -1.
        -12    1    6    6    0    0 -0.11780716668E+02 -0.98162739778E+02  0.96041346937E+02  0.13783558716E+03  0.00000000000E+00 0.  1.
</event>
<event>
12    1  0.1061634E+000  0.2522571E+03  0.7818608E-02  0.1111980E+00
         21   -1    0    0  503  502  0.00000000000E+00  0.00000000000E+00  0.23732093066E+03  0.23732093066E+03  0.00000000000E+00 0.  1.
         21   -1    0    0  501  503 -0.00000000000E+00 -0.00000000000E+00 -0.28085936651E+03  0.28085936651E+03  0.00000000000E+00 0.  1.
          6    2    1    2  501    0 -0.10366503457E+03  0.15082794650E+03 -0.78296852798E+02  0.26412883119E+03  0.17360337977E+03 0.  0.
         24    2    3    3    0    0 -0.21168320272E+02  0.13944112517E+02  0.46042730525E+01  0.84024476595E+02  0.79977354793E+02 0.  0.
         -6    2    1    2    0  502  0.10366503457E+03 -0.15082794650E+03  0.34758416945E+02  0.25405146597E+03  0.17273821515E+03 0.  0.
        -24    2    5    5    0    0  0.33079083556E+02 -0.15494103399E+03  0.42067720430E+02  0.18281376607E+03  0.80933492319E+02 0.  0.
          5    1    3    3  501    0 -0.82496714303E+02  0.13688383399E+03 -0.82901125850E+02  0.18010435460E+03  0.47000000000E+01 0. -1.
        -13    1    4    4    0    0  0.30588975053E+02  0.59891343674E+01 -0.20562426922E+01  0.31237529660E+02  0.00000000000E+00 0.  1.
         14    1    4    4    0    0 -0.51757295325E+02  0.79549781493E+01  0.66605157448E+01  0.52786946935E+02  0.00000000000E+00 0. -1.
         -5    1    5    5    0  502  0.70585951018E+02  0.41130874893E+01 -0.73093034850E+01  0.71237699902E+02  0.47000000000E+01 0.  1.
         11    1    6    6    0    0 -0.19983230895E+02 -0.73801776947E+02  0.38963108454E+02  0.85814658526E+02  0.00000000000E+00 0. -1.
        -12    1    6    6    0    0  0.53062314452E+02 -0.81139257046E+02  0.31046119759E+01  0.96999107545E+02  0.00000000000E+00 0.  1.
</event>
<event>
12    1  0.1061634E+000  0.3253547E+03  0.7818608E-02  0.1073257E+00
         21   -1    0    0  501  502  0.00000000000E+00  0.00000000000E+00  0.73408192684E+02  0.73408192684E+02  0.00000000000E+00 0.  1.
         21   -1    0    0  502  503 -0.00000000000E+00 -0.00000000000E+00 -0.18253840514E+04  0.18253840514E+04  0.00000000000E+00 0.  1.
         -6    2    1    2    0  503  0.13796950657E+03 -0.23898448558E+03 -0.43943703036E+03  0.54652975539E+03  0.17158292682E+03 0.  0.
        -24    2    3    3    0    0  0.26263606271E+02 -0.17838700798E+03 -0.28807540858E+03  0.34883632352E+03  0.78661540474E+02 0.  0.
          6    2    1    2  501    0 -0.13796950657E+03  0.23898448558E+03 -0.13125388283E+04  0.13522624887E+04  0.17235571734E+03 0.  0.
         24    2    5    5    0    0  0.74598540726E+01  0.97022804973E+02 -0.41131439731E+03  0.42839540799E+03  0.69814167937E+02 0.  0.
          5    1    5    5  501    0 -0.14542936065E+03  0.14196168061E+03 -0.90122443102E+03  0.92386708069E+03  0.47000000000E+01 0. -1.
        -11    1    6    6    0    0 -0.69604318771E+01  0.10316708866E+03 -0.33985082967E+03  0.35523299709E+03  0.00000000000E+00 0.  1.
         12    1    6    6    0    0  0.14420285950E+02 -0.61442836848E+01 -0.71463567643E+02  0.73162410903E+02  0.00000000000E+00 0. -1.
         -5    1    3    3    0  503  0.11170590030E+03 -0.60597477600E+02 -0.15136162179E+03  0.19769343187E+03  0.47000000000E+01 0.  1.
         13    1    4    4    0    0  0.20119534106E+02 -0.47319865144E+02 -0.30548266910E+02  0.59809379709E+02  0.00000000000E+00 0. -1.
        -14    1    4    4    0    0  0.61440721649E+01 -0.13106714284E+03 -0.25752714167E+03  0.28902694381E+03  0.00000000000E+00 0.  1.
</event>
<event>
12    1  0.1061634E+000  0.2040897E+03  0.7818608E-02  0.1146405E+00
         21   -1    0    0  501  502  0.00000000000E+00  0.00000000000E+00  0.21916063626E+03  0.21916063626E+03  0.00000000000E+00 0. -1.
         21   -1    0    0  502  503 -0.00000000000E+00 -0.00000000000E+00 -0.19087760303E+03  0.19087760303E+03  0.00000000000E+00 0. -1.
         -6    2    1    2    0  503 -0.96696866243E+02  0.49909273761E+02 -0.17381321960E+01  0.20409710844E+03  0.17265974928E+03 0.  0.
        -24    2    3    3    0    0 -0.84248775752E+02 -0.69144900694E+01  0.49061385697E+02  0.12672414087E+03  0.80661774866E+02 0.  0.
          6    2    1    2  501    0  0.96696866243E+02 -0.49909273761E+02  0.30021165426E+02  0.20594113084E+03  0.17224766892E+03 0.  0.
         24    2    5    5    0    0  0.53295780156E+01 -0.19835584528E+02 -0.33681298691E+02  0.90474676506E+02  0.81421019350E+02 0.  0.
          5    1    5    5  501    0  0.91367288227E+02 -0.30073689234E+02  0.63702464117E+02  0.11546645433E+03  0.47000000000E+01 0. -1.
        -11    1    6    6    0    0  0.73449843752E+01  0.20202522834E+02  0.15882817855E+02  0.26727413406E+02  0.00000000000E+00 0.  1.
         12    1    6    6    0    0 -0.20154063597E+01 -0.40038107362E+02 -0.49564116545E+02  0.63747263101E+02  0.00000000000E+00 0. -1.
         -5    1    3    3    0  503 -0.12448090491E+02  0.56823763831E+02 -0.50799517893E+02  0.77372967572E+02  0.47000000000E+01 0.  1.
         13    1    4    4    0    0  0.15301385190E+02 -0.10520973069E+01  0.14708347467E+02  0.21250289003E+02  0.00000000000E+00 0. -1.
        -14    1    4    4    0    0 -0.99550160942E+02 -0.58623927625E+01  0.34353038230E+02  0.10547385187E+03  0.00000000000E+00 0.  1.
</event>
<event>
12    1  0.1061634E+000  0.1736458E+03  0.7818608E-02  0.1174796E+00
         21   -1    0    0  503  502  0.00000000000E+00  0.00000000000E+00  0.37839269744E+02  0.37839269744E+02  0.00000000000E+00 0.  1.
         21   -1    0    0  501  503 -0.00000000000E+00 -0.00000000000E+00 -0.78629961255E+03  0.78629961255E+03  0.00000000000E+00 0.  1.
          6    2    1    2  501    0  0.13537294540E+02 -0.15046942123E+02 -0.35095939229E+03  0.39036489539E+03  0.16971325141E+03 0.  0.
         24    2    3    3    0    0  0.42580730638E+02 -0.12650023105E+02 -0.92580905183E+02  0.13030567329E+03  0.80219715657E+02 0.  0.
         -6    2    1    2    0  502 -0.13537294540E+02  0.15046942123E+02 -0.39750095051E+03  0.43377398690E+03  0.17246216177E+03 0.  0.
        -24    2    5    5    0    0 -0.95950605258E+01 -0.10173425053E+02 -0.80359243826E+02  0.11557191235E+03  0.81876095971E+02 0.  0.
          5    1    3    3  501    0 -0.29043436098E+02 -0.23969190175E+01 -0.25837848711E+03  0.26005922210E+03  0.47000000000E+01 0. -1.
        -13    1    4    4    0    0  0.40609343910E+02  0.33873153894E+01 -0.10321104269E+03  0.11096446301E+03  0.00000000000E+00 0.  1.
         14    1    4    4    0    0  0.19713867280E+01 -0.16037338495E+02  0.10630137505E+02  0.19341210277E+02  0.00000000000E+00 0. -1.
         -5    1    5    5    0  502 -0.39422340139E+01  0.25220367176E+02 -0.31714170669E+03  0.31820207455E+03  0.47000000000E+01 0.  1.
         13    1    6    6    0    0 -0.39716852207E+02 -0.22676497702E+02 -0.27218015956E+02  0.53220976033E+02  0.00000000000E+00 0. -1.
        -14    1    6    6    0    0  0.30121791682E+02  0.12503072648E+02 -0.53141227870E+02  0.62350936314E+02  0.00000000000E+00 0.  1.
</event>
<event>
12    1  0.1061634E+000  0.2684562E+03  0.7818608E-02  0.1102248E+00
         21   -1    0    0  501  502  0.00000000000E+00  0.00000000000E+00  0.58046116256E+02  0.58046116256E+02  0.00000000000E+00 0.  1.
         21   -1    0    0  502  503 -0.00000000000E+00 -0.00000000000E+00 -0.13633633666E+04  0.13633633666E+04  0.00000000000E+00 0. -1.
         -6    2    1    2    0  503 -0.14459717914E+03  0.14750091212E+03 -0.86672208742E+03  0.90717760495E+03  0.17058477895E+03 0.  0.
        -24    2    3    3    0    0 -0.62714431470E+02  0.15256122606E+03 -0.65331735440E+03  0.67849865704E+03  0.79553971800E+02 0.  0.
          6    2    1    2  501    0  0.14459717914E+03 -0.14750091212E+03 -0.43859516293E+03  0.51423187791E+03  0.17147549103E+03 0.  0.
         24    2    5    5    0    0  0.16835401091E+03 -0.15381688711E+03 -0.42180359845E+03  0.48409344342E+03  0.66524270346E+02 0.  0.
          5    1    5    5  501    0 -0.23756831773E+02  0.63159749916E+01 -0.16791564476E+02  0.30138434490E+02  0.47000000000E+01 0. -1.
        -13    1    6    6    0    0  0.27475177402E+02 -0.63909967390E+02 -0.10586361180E+03  0.12667467627E+03  0.00000000000E+00 0.  1.
         14    1    6    6    0    0  0.14087883351E+03 -0.89906919720E+02 -0.31593998666E+03  0.35741876715E+03  0.00000000000E+00 0. -1.
         -5    1    3    3    0  503 -0.81882747669E+02 -0.50603139455E+01 -0.21340473302E+03  0.22867894791E+03  0.47000000000E+01 0.  1.
         13    1    4    4    0    0  0.13108270553E+02  0.60494805190E+02 -0.17838462702E+03  0.18881875799E+03  0.00000000000E+00 0. -1.
        -14    1    4    4    0    0 -0.75822702023E+02  0.92066420873E+02 -0.47493272738E+03  0.48967989905E+03  0.00000000000E+00 0.  1.
</event>
<event>
12    1  0.1061634E+000  0.1982445E+03  0.7818608E-02  0.1151440E+00
         21   -1    0    0  503  502  0.00000000000E+00  0.00000000000E+00  0.39142042779E+02  0.39142042779E+02  0.00000000000E+00 0. -1.
         21   -1    0    0  501  503 -0.00000000000E+00 -0.00000000000E+00 -0.10558448400E+04  0.10558448400E+04  0.00000000000E+00 0. -1.
          6    2    1    2  501    0  0.42989865553E+02  0.88620802724E+02 -0.38259026330E+03  0.43090161056E+03  0.17204392811E+03 0.  0.
         24    2    3    3    0    0 -0.23504998042E+02 -0.46374593850E+01 -0.18293063081E+03  0.20067405101E+03  0.78945982127E+02 0.  0.
         -6    2    1    2    0  502 -0.42989865553E+02 -0.88620802724E+02 -0.63411253388E+03  0.66408527217E+03  0.17090572805E+03 0.  0.
        -24    2    5    5    0    0  0.18819352128E+02 -0.76268529584E+02 -0.51086490682E+03  0.52557525225E+03  0.95264558701E+02 0.  0.
          5    1    3    3  501    0  0.66494863595E+02  0.93258262109E+02 -0.19965963249E+03  0.23022755956E+03  0.47000000000E+01 0. -1.
        -13    1    4    4    0    0  0.11056329837E+02  0.13844873588E+02 -0.49036432889E+01  0.18383924272E+02  0.00000000000E+00 0.  1.
         14    1    4    4    0    0 -0.34561327879E+02 -0.18482332973E+02 -0.17802698753E+03  0.18229012673E+03  0.00000000000E+00 0. -1.
         -5    1    5    5    0  502 -0.61809217681E+02 -0.12352273140E+02 -0.12324762706E+03  0.13851001992E+03  0.47000000000E+01 0.  1.
         13    1    6    6    0    0 -0.25021148530E+02 -0.84685086751E+00 -0.43948578200E+02  0.50579171167E+02  0.00000000000E+00 0. -1.
        -14    1    6    6    0    0  0.43840500657E+02 -0.75421678717E+02 -0.46691632862E+03  0.47499608109E+03  0.00000000000E+00 0.  1.
</event>
<event>
12    1  0.1061634E+000  0.1971844E+03  0.7818608E-02  0.1152328E+00
         21   -1    0    0  501  502  0.00000000000E+00  0.00000000000E+00  0.15623217774E+03  0.15623217774E+03  0.00000000000E+00 0.  1.
         21   -1    0    0  502  503 -0.00000000000E+00 -0.00000000000E+00 -0.77021399362E+03  0.77021399362E+03  0.00000000000E+00 0.  1.
         -6    2    1    2    0  503  0.84597044849E+02 -0.40647073382E+02  0.74301657318E+02  0.21071887229E+03  0.17341528850E+03 0.  0.
        -24    2    3    3    0    0  0.47564151598E+02  0.34871712512E+02  0.58140173782E+01  0.10215014276E+03  0.83201346249E+02 0.  0.
          6    2    1    2  501    0 -0.84597044849E+02  0.40647073382E+02 -0.68828347320E+03  0.71572729907E+03  0.17240238565E+03 0.  0.
         24    2    5    5    0    0 -0.59384592306E+02  0.90054953587E+02 -0.56583680910E+03  0.58122048906E+03  0.77521209355E+02 0.  0.
          5    1    5    5  501    0 -0.25212452543E+02 -0.49407880205E+02 -0.12244666410E+03  0.13450681000E+03  0.47000000000E+01 0. -1.
        -11    1    6    6    0    0 -0.13569939330E+02  0.30623837416E+02 -0.36977353094E+03  0.37128752586E+03  0.00000000000E+00 0.  1.
         12    1    6    6    0    0 -0.45814652976E+02  0.59431116171E+02 -0.19606327816E+03  0.20993296321E+03  0.00000000000E+00 0. -1.
         -5    1    3    3    0  503  0.37032893252E+02 -0.75518785895E+02  0.68487639940E+02  0.10856872952E+03  0.47000000000E+01 0.  1.
         11    1    4    4    0    0  0.41279807796E+02 -0.14930567115E+02  0.22402432863E+02  0.49282992647E+02  0.00000000000E+00 0. -1.
        -12    1    4    4    0    0  0.62843438015E+01  0.49802279627E+02 -0.16588415485E+02  0.52867150116E+02  0.00000000000E+00 0.  1.
</event>
<event>
12    1  0.1061634E+000  0.2359122E+03  0.7818608E-02  0.1122582E+00
         21   -1    0    0  503  502  0.00000000000E+00  0.00000000000E+00  0.50086350346E+03  0.50086350346E+03  0.00000000000E+00 0. -1.
         21   -1    0    0  501  503 -0.00000000000E+00 -0.00000000000E+00 -0.11214328136E+03  0.11214328136E+03  0.00000000000E+00 0. -1.
          6    2    1    2  501    0  0.13346091601E+03 -0.91960493076E+02  0.16357989237E+03  0.28690444168E+03  0.17113511935E+03 0.  0.
         24    2    3    3    0    0  0.10873987744E+03 -0.54668495873E+02  0.34731112952E+02  0.15042762767E+03  0.81297082188E+02 0.  0.
         -6    2    1    2    0  502 -0.13346091601E+03  0.91960493076E+02  0.22514032973E+03  0.32610234314E+03  0.17142351571E+03 0.  0.
        -24    2    5    5    0    0 -0.30204489557E+02 -0.17626158211E+02  0.80853920360E+02  0.11750756450E+03  0.77766822202E+02 0.  0.
          5    1    3    3  501    0  0.24721038569E+02 -0.37291997203E+02  0.12884877942E+03  0.13647681401E+03  0.47000000000E+01 0. -1.
        -13    1    4    4    0    0  0.65344426238E+02 -0.73603693984E+02  0.17067777150E+02  0.99893477391E+02  0.00000000000E+00 0.  1.
         14    1    4    4    0    0  0.43395451205E+02  0.18935198111E+02  0.17663335801E+02  0.50534150279E+02  0.00000000000E+00 0. -1.
         -5    1    5    5    0  502 -0.10325642645E+03  0.10958665129E+03  0.14428640937E+03  0.20859477864E+03  0.47000000000E+01 0.  1.
         13    1    6    6    0    0  0.60100466350E+01  0.17104702837E+02 -0.43337830963E+01  0.18640632919E+02  0.00000000000E+00 0. -1.
        -14    1    6    6    0    0 -0.36214536192E+02 -0.34730861049E+02  0.85187703456E+02  0.98866931584E+02  0.00000000000E+00 0.  1.
</event>
<event>
12    1  0.1061634E+000  0.2296324E+03  0.7818608E-02  0.1127105E+00
         21   -1    0    0  503  502  0.00000000000E+00  0.00000000000E+00  0.74938021947E+03  0.74938021947E+03  0.00000000000E+00 0. -1.
         21   -1    0    0  501  503 -0.00000000000E+00 -0.00000000000E+00 -0.70024224300E+02  0.70024224300E+02  0.00000000000E+00 0. -1.
          6    2    1    2  501    0  0.63426661005E+02 -0.13817914249E+03  0.34659285527E+03  0.41576151549E+03  0.17208897029E+03 0.  0.
         24    2    3    3    0    0  0.34021821736E+02 -0.26386179013E+01  0.19211253368E+03  0.20810280960E+03  0.72354040001E+02 0.  0.
         -6    2    1    2    0  502 -0.63426661005E+02  0.13817914249E+03  0.33276313989E+03  0.40364292827E+03  0.17052826607E+03 0.  0.
        -24    2    5    5    0    0 -0.85914493077E+02  0.94988248775E+02  0.14281526812E+03  0.20749645269E+03  0.79085457232E+02 0.  0.
          5    1    3    3  501    0  0.29404839269E+02 -0.13554052459E+03  0.15448032159E+03  0.20765870590E+03  0.47000000000E+01 0. -1.
        -11    1    4    4    0    0  0.18303951632E+02 -0.33927979366E+02  0.14079576154E+03  0.14597804252E+03  0.00000000000E+00 0.  1.
         12    1    4    4    0    0  0.15717870104E+02  0.31289361464E+02  0.51316772146E+02  0.62124767081E+02  0.00000000000E+00 0. -1.
         -5    1    5    5    0  502  0.22487832072E+02  0.43190893712E+02  0.18994787177E+03  0.19614647558E+03  0.47000000000E+01 0.  1.
         13    1    6    6    0    0 -0.32128078695E+02  0.26597296926E+02  0.10432858809E+03  0.11235694877E+03  0.00000000000E+00 0. -1.
        -14    1    6    6    0    0 -0.53786414383E+02  0.68390951849E+02  0.38486680034E+02  0.95139503924E+02  0.00000000000E+00 0.  1.
</event>
<event>
12    1  0.1061634E+000  0.2551150E+03  0.7818608E-02  0.1110262E+00
         21   -1    0    0  503  502  0.00000000000E+00  0.00000000000E+00  0.12376972292E+03  0.12376972292E+03  0.00000000000E+00 0.  1.
         21   -1    0    0  501  503 -0.00000000000E+00 -0.00000000000E+00 -0.53676597774E+03  0.53676597774E+03  0.00000000000E+00 0.  1.
          6    2    1    2  501    0  0.87123811323E+02 -0.16624278209E+03 -0.15492872767E+03  0.29765484553E+03  0.17137174597E+03 0.  0.
         24    2    3    3    0    0  0.51308209863E+02 -0.15723987165E+03 -0.17648157342E+03  0.25463828053E+03  0.79611547644E+02 0.  0.
         -6    2    1    2    0  502 -0.87123811323E+02  0.16624278209E+03 -0.25806752715E+03  0.36288085513E+03  0.17279017724E+03 0.  0.
        -24    2    5    5    0    0 -0.43351792689E+02  0.25441620082E+02 -0.16339933010E+03  0.18759504745E+03  0.77239282690E+02 0.  0.
          5    1    3    3  501    0  0.35815601460E+02 -0.90029104391E+01  0.21552845755E+02  0.43016565000E+02  0.47000000000E+01 0. -1.
        -11    1    4    4    0    0  0.44416808732E+02 -0.24968592016E+02 -0.53819622401E+02  0.74113664331E+02  0.00000000000E+00 0.  1.
         12    1    4    4    0    0  0.68914011308E+01 -0.13227127964E+03 -0.12266195102E+03  0.18052461620E+03  0.00000000000E+00 0. -1.
         -5    1    5    5    0  502 -0.43772018634E+02  0.14080116201E+03 -0.94668197048E+02  0.17528580767E+03  0.47000000000E+01 0.  1.
         13    1    6    6    0    0 -0.11221663137E+02  0.50239177110E+02 -0.87197850340E+02  0.10125890452E+03  0.00000000000E+00 0. -1.
        -14    1    6    6    0    0 -0.32130129552E+02 -0.24797557028E+02 -0.76201479760E+02  0.86336142936E+02  0.00000000000E+00 0.  1.
</event>
<event>
12    1  0.1061634E+000  0.2460428E+03  0.7818608E-02  0.1116788E+00
         21   -1    0    0  503  502  0.00000000000E+00  0.00000000000E+00  0.14033768139E+03  0.14033768139E+03  0.00000000000E+00 0.  1.
         21   -1    0    0  501  503 -0.00000000000E+00 -0.00000000000E+00 -0.44361451052E+03  0.44361451052E+03  0.00000000000E+00 0. -1.
          6    2    1    2  501    0  0.10806083503E+03  0.14021184494E+03 -0.21904584104E+03  0.32942090867E+03  0.17088168146E+03 0.  0.
         24    2    3    3    0    0  0.13760856771E+03  0.86740411219E+02 -0.11133222307E+03  0.20549925508E+03  0.58095293273E+02 0.  0.
         -6    2    1    2    0  502 -0.10806083503E+03 -0.14021184494E+03 -0.84230988083E+02  0.25453128325E+03  0.16234164367E+03 0.  0.
        -24    2    5    5    0    0 -0.10626199384E+03 -0.11704087965E+03 -0.10854718591E+02  0.17741905084E+03  0.79809246593E+02 0.  0.
          5    1    3    3  501    0 -0.29547732672E+02  0.53471433720E+02 -0.10771361798E+03  0.12392165359E+03  0.47000000000E+01 0. -1.
        -11    1    4    4    0    0  0.33000109089E+02  0.20305566250E+02  0.24540183182E+00  0.38747689514E+02  0.00000000000E+00 0.  1.
         12    1    4    4    0    0  0.10460845862E+03  0.66434844969E+02 -0.11157762490E+03  0.16675156556E+03  0.00000000000E+00 0. -1.
         -5    1    5    5    0  502 -0.17988411899E+01 -0.23170965289E+02 -0.73376269491E+02  0.77112232405E+02  0.47000000000E+01 0.  1.
         11    1    6    6    0    0 -0.92703809098E+02 -0.59449533740E+02 -0.31845261734E+02  0.11464014994E+03  0.00000000000E+00 0. -1.
        -12    1    6    6    0    0 -0.13558184746E+02 -0.57591345910E+02  0.20990543143E+02  0.62778900905E+02  0.00000000000E+00 0.  1.
</event>
<event>
12    1  0.1061634E+000  0.2286155E+03  0.7818608E-02  0.1127693E+00
         21   -1    0    0  501  502  0.00000000000E+00  0.00000000000E+00  0.30619534935E+03  0.30619534935E+03  0.00000000000E+00 0.  1.
         21   -1    0    0  502  503 -0.00000000000E+00 -0.00000000000E+00 -0.18461067133E+03  0.18461067133E+03  0.00000000000E+00 0.  1.
         -6    2    1    2    0  503  0.11826111065E+03 -0.92197968589E+02 -0.74063160159E+01  0.22831085071E+03  0.17200242828E+03 0.  0.
        -24    2    3    3    0    0  0.12610329278E+03 -0.19206752201E+02  0.14920741707E+02  0.15143559464E+03  0.80244445354E+02 0.  0.
          6    2    1    2  501    0 -0.11826111065E+03  0.92197968589E+02  0.12899099404E+03  0.26249516997E+03  0.17256558756E+03 0.  0.
         24    2    5    5    0    0 -0.13392970326E+03  0.10295342378E+03  0.14508504163E+03  0.23715167024E+03  0.81576176117E+02 0.  0.
          5    1    5    5  501    0  0.15668592616E+02 -0.10755455190E+02 -0.16094047584E+02  0.25343499729E+02  0.47000000000E+01 0. -1.
        -13    1    6    6    0    0 -0.11182609945E+02  0.39154771710E+02  0.66708581674E+02  0.78154857698E+02  0.00000000000E+00 0.  1.
         14    1    6    6    0    0 -0.12274709332E+03  0.63798652069E+02  0.78376459952E+02  0.15899681254E+03  0.00000000000E+00 0. -1.
         -5    1    3    3    0  503 -0.78421821302E+01 -0.72991216388E+02 -0.22327057723E+02  0.76875256077E+02  0.47000000000E+01 0.  1.
         11    1    4    4    0    0  0.11807358703E+03 -0.40649765821E+02  0.14775333756E+01  0.12488378005E+03  0.00000000000E+00 0. -1.
        -12    1    4    4    0    0  0.80297057496E+01  0.21443013620E+02  0.13443208332E+02  0.26551814585E+02  0.00000000000E+00 0.  1.
</event>
<event>
12    1  0.1061634E+000  0.2429290E+03  0.7818608E-02  0.1118824E+00
         21   -1    0    0  501  502  0.00000000000E+00  0.00000000000E+00  0.20856735638E+03  0.20856735638E+03  0.00000000000E+00 0.  1.
         21   -1    0    0  502  503 -0.00000000000E+00 -0.00000000000E+00 -0.27996527118E+03  0.27996527118E+03  0.00000000000E+00 0.  1.
         -6    2    1    2    0  503 -0.51708250935E+02  0.15687531216E+03 -0.69979645493E+01  0.23721242868E+03  0.17010925322E+03 0.  0.
        -24    2    3    3    0    0 -0.13208192832E+02  0.21454196613E+02  0.28871613846E+02  0.91851327746E+02  0.83476687839E+02 0.  0.
          6    2    1    2  501    0  0.51708250935E+02 -0.15687531216E+03 -0.64399950261E+02  0.25132019888E+03  0.17813164231E+03 0.  0.
         24    2    5    5    0    0  0.49977462370E+02 -0.18726891075E+03 -0.70678315546E+02  0.21988336801E+03  0.76064969334E+02 0.  0.
          5    1    5    5  501    0  0.17307885649E+01  0.30393598592E+02  0.62783652850E+01  0.31436830869E+02  0.47000000000E+01 0. -1.
        -11    1    6    6    0    0  0.65401131445E+01 -0.16891814723E+02 -0.36525153918E+02  0.40770005559E+02  0.00000000000E+00 0.  1.
         12    1    6    6    0    0  0.43437349225E+02 -0.17037709603E+03 -0.34153161628E+02  0.17911336245E+03  0.00000000000E+00 0. -1.
         -5    1    3    3    0  503 -0.38500058103E+02  0.13542111555E+03 -0.35869578395E+02  0.14536110093E+03  0.47000000000E+01 0.  1.
         11    1    4    4    0    0  0.34913370286E+02  0.39516602696E+01  0.55003412918E+01  0.35564206696E+02  0.00000000000E+00 0. -1.
        -12    1    4    4    0    0 -0.48121563118E+02  0.17502536343E+02  0.23371272554E+02  0.56287121050E+02  0.00000000000E+00 0.  1.
</event>
<event>
12    1  0.1061634E+000  0.1983549E+03  0.7818608E-02  0.1151927E+00
         21   -1    0    0  501  502  0.00000000000E+00  0.00000000000E+00  0.64363746678E+03  0.64363746678E+03  0.00000000000E+00 0. -1.
         21   -1    0    0  502  503 -0.00000000000E+00 -0.00000000000E+00 -0.10812036751E+03  0.10812036751E+03  0.00000000000E+00 0. -1.
         -6    2    1    2    0  503  0.66456378762E+02  0.61398321967E+02  0.51712178113E+03  0.55255180969E+03  0.17237274047E+03 0.  0.
        -24    2    3    3    0    0  0.42253025053E+01  0.83175236184E+02  0.20472045084E+03  0.23323437827E+03  0.74510664463E+02 0.  0.
          6    2    1    2  501    0 -0.66456378762E+02 -0.61398321967E+02  0.18395318135E+02  0.19920602460E+03  0.17651755801E+03 0.  0.
         24    2    5    5    0    0 -0.10399117808E+03 -0.61037638923E+01  0.16849835312E+02  0.13219238546E+03  0.79620906624E+02 0.  0.
          5    1    5    5  501    0  0.37534799320E+02 -0.55294558075E+02  0.15454828232E+01  0.67013639133E+02  0.47000000000E+01 0. -1.
        -11    1    6    6    0    0 -0.10154801043E+03 -0.23213533233E+02 -0.50550836211E+01  0.10429007824E+03  0.00000000000E+00 0.  1.
         12    1    6    6    0    0 -0.24431676485E+01  0.17109769341E+02  0.21904918933E+02  0.27902307226E+02  0.00000000000E+00 0. -1.
         -5    1    3    3    0  503  0.62231076256E+02 -0.21776914217E+02  0.31240133029E+03  0.31931743143E+03  0.47000000000E+01 0.  1.
         13    1    4    4    0    0  0.21274778945E+02  0.89904128371E+02  0.15772486985E+03  0.18279087255E+03  0.00000000000E+00 0. -1.
        -14    1    4    4    0    0 -0.17049476439E+02 -0.67288921871E+01  0.46995580983E+02  0.50443505715E+02  0.00000000000E+00 0.  1.
</event>
<event>
12    1  0.1061634E+000  0.1991192E+03  0.7818608E-02  0.1150575E+00
         21   -1    0    0  501  502  0.00000000000E+00  0.00000000000E+00  0.19593894058E+03  0.19593894058E+03  0.00000000000E+00 0.  1.
         21   -1    0    0  502  503 -0.00000000000E+00 -0.00000000000E+00 -0.20454068780E+03  0.20454068780E+03  0.00000000000E+00 0.  1.
         -6    2    1    2    0  503 -0.95067679463E+02 -0.27089899686E+02  0.18375370997E+02  0.19954126862E+03  0.17235816569E+03 0.  0.
        -24    2    3    3    0    0 -0.24724851405E+02  0.28346230447E+01 -0.50466847569E+02  0.96561020141E+02  0.78471488723E+02 0.  0.
          6    2    1    2  501    0  0.95067679463E+02  0.27089899686E+02 -0.26977118220E+02  0.20093835976E+03  0.17284887379E+03 0.  0.
         24    2    5    5    0    0  0.11739352201E+03 -0.10935597216E+02 -0.49982092461E+02  0.15098137326E+03  0.79977116788E+02 0.  0.
          5    1    5    5  501    0 -0.22325842545E+02  0.38025496902E+02  0.23004974240E+02  0.49956986496E+02  0.47000000000E+01 0. -1.
        -11    1    6    6    0    0  0.45291883103E+01 -0.11015425798E+01 -0.36607073515E+02  0.36902639121E+02  0.00000000000E+00 0.  1.
         12    1    6    6    0    0  0.11286433370E+03 -0.98340546360E+01 -0.13375018946E+02  0.11407873414E+03  0.00000000000E+00 0. -1.
         -5    1    3    3    0  503 -0.70342828058E+02 -0.29924522731E+02  0.68842218567E+02  0.10298024848E+03  0.47000000000E+01 0.  1.
         11    1    4    4    0    0 -0.73136947610E+01  0.27148106254E+02 -0.59089821672E+02  0.65437885276E+02  0.00000000000E+00 0. -1.
        -12    1    4    4    0    0 -0.17411156644E+02 -0.24313483210E+02  0.86229741021E+01  0.31123134865E+02  0.00000000000E+00 0.  1.
</event>
<event>
12    1  0.1061634E+000  0.1847395E+03  0.7818608E-02  0.1163384E+00
         21   -1    0    0  501  502  0.00000000000E+00  0.00000000000E+00  0.13040501208E+04  0.13040501208E+04  0.00000000000E+00 0. -1.
         21   -1    0    0  502  503 -0.00000000000E+00 -0.00000000000E+00 -0.37281438745E+02  0.37281438745E+02  0.00000000000E+00 0. -1.
         -6    2    1    2    0  503 -0.19113113848E+02 -0.63951054412E+02  0.99993791113E+03  0.10167897938E+04  0.17184472675E+03 0.  0.
        -24    2    3    3    0    0 -0.54476054023E+00 -0.42594967326E+02  0.97367955160E+03  0.97789946533E+03  0.80130313234E+02 0.  0.
          6    2    1    2  501    0  0.19113113848E+02  0.63951054412E+02  0.26683077096E+03  0.32454176581E+03  0.17226041026E+03 0.  0.
         24    2    5    5    0    0 -0.52914202863E+02  0.14326373936E+02  0.15058583731E+03  0.17898930838E+03  0.79724025624E+02 0.  0.
          5    1    5    5  501    0  0.72027316711E+02  0.49624680476E+02  0.11624493365E+03  0.14555245743E+03  0.47000000000E+01 0. -1.
        -11    1    6    6    0    0  0.17139847022E+02  0.10309907194E+02  0.66650766665E+02  0.69587306596E+02  0.00000000000E+00 0.  1.
         12    1    6    6    0    0 -0.70054049885E+02  0.40164667417E+01  0.83935070645E+02  0.10940200179E+03  0.00000000000E+00 0. -1.
         -5    1    3    3    0  503 -0.18568353308E+02 -0.21356087086E+02  0.26258359535E+02  0.38890328434E+02  0.47000000000E+01 0.  1.
         13    1    4    4    0    0  0.34886923491E+02 -0.35757493387E+01  0.51711218472E+03  0.51830000483E+03  0.00000000000E+00 0. -1.
        -14    1    4    4    0    0 -0.35431684032E+02 -0.39019217987E+02  0.45656736687E+03  0.45959946051E+03  0.00000000000E+00 0.  1.
</event>
<event>
12    1  0.1061634E+000  0.2971368E+03  0.7818608E-02  0.1086701E+00
         21   -1    0    0  501  502  0.00000000000E+00  0.00000000000E+00  0.68665543611E+02  0.68665543611E+02  0.00000000000E+00 0.  1.
         21   -1    0    0  502  503 -0.00000000000E+00 -0.00000000000E+00 -0.12869298890E+04  0.12869298890E+04  0.00000000000E+00 0.  1.
         -6    2    1    2    0  503 -0.24216848584E+03  0.75210102752E+01 -0.58384553403E+03  0.65510755893E+03  0.17201210721E+03 0.  0.
        -24    2    3    3    0    0 -0.11976203430E+03  0.69168033252E+02 -0.32689377374E+03  0.36385167154E+03  0.80008361372E+02 0.  0.
          6    2    1    2  501    0  0.24216848584E+03 -0.75210102752E+01 -0.63441881133E+03  0.70048787365E+03  0.17173785790E+03 0.  0.
         24    2    5    5    0    0  0.13146575546E+03 -0.66722333012E+02 -0.41681345881E+03  0.44922293266E+03  0.79578069845E+02 0.  0.
          5    1    5    5  501    0  0.11070273038E+03  0.59201322736E+02 -0.21760535252E+03  0.25126494099E+03  0.47000000000E+01 0. -1.
        -11    1    6    6    0    0  0.22523054560E+02 -0.99474189881E+01 -0.14507224065E+02  0.28577940467E+02  0.00000000000E+00 0.  1.
         12    1    6    6    0    0  0.10894270090E+03 -0.56774914023E+02 -0.40230623474E+03  0.42064499219E+03  0.00000000000E+00 0. -1.
         -5    1    3    3    0  503 -0.12240645154E+03 -0.61647022977E+02 -0.25695176030E+03  0.29125588739E+03  0.47000000000E+01 0.  1.
         13    1    4    4    0    0 -0.81649954116E+02  0.50018072570E+02 -0.29622890708E+03  0.31131991260E+03  0.00000000000E+00 0. -1.
        -14    1    4    4    0    0 -0.38112080187E+02  0.19149960683E+02 -0.30664866658E+02  0.52531758941E+02  0.00000000000E+00 0.  1.
</event>
<event>
12    1  0.1061634E+000  0.3942401E+03  0.7818608E-02  0.1045814E+00
         21   -1    0    0  501  502  0.00000000000E+00  0.00000000000E+00  0.16319671435E+04  0.16319671435E+04  0.00000000000E+00 0. -1.
         21   -1    0    0  502  503 -0.00000000000E+00 -0.00000000000E+00 -0.10589226143E+03  0.10589226143E+03  0.00000000000E+00 0. -1.
         -6    2    1    2    0  503  0.35147328124E+02  0.35352432350E+03  0.10392067755E+04  0.11113884935E+04  0.17034928608E+03 0.  0.
        -24    2    3    3    0    0 -0.43670777017E+02  0.21518001367E+03  0.57791565097E+03  0.62336899253E+03  0.79955150955E+02 0.  0.
          6    2    1    2  501    0 -0.35147328124E+02 -0.35352432350E+03  0.48686810659E+03  0.62647091145E+03  0.17091070095E+03 0.  0.
         24    2    5    5    0    0 -0.17627071156E+01 -0.32754349397E+03  0.47275535231E+03  0.58162900854E+03  0.86641980945E+02 0.  0.
          5    1    5    5  501    0 -0.33384621008E+02 -0.25980829527E+02  0.14112754277E+02  0.44841902904E+02  0.47000000000E+01 0. -1.
        -11    1    6    6    0    0 -0.42969347000E+02 -0.18473559520E+03  0.24909001351E+03  0.31308056431E+03  0.00000000000E+00 0.  1.
         12    1    6    6    0    0  0.41206639884E+02 -0.14280789877E+03  0.22366533880E+03  0.26854844424E+03  0.00000000000E+00 0. -1.
         -5    1    3    3    0  503  0.78818105140E+02  0.13834430982E+03  0.46129112451E+03  0.48801950095E+03  0.47000000000E+01 0.  1.
         13    1    4    4    0    0  0.17927897669E+02  0.53966936964E+02  0.97198367826E+02  0.11261155584E+03  0.00000000000E+00 0. -1.
        -14    1    4    4    0    0 -0.61598674685E+02  0.16121307671E+03  0.48071728315E+03  0.51075743670E+03  0.00000000000E+00 0.  1.
</event>
<event>
12    1  0.1061634E+000  0.1989709E+03  0.7818608E-02  0.1152316E+00
         21   -1    0    0  501  502  0.00000000000E+00  0.00000000000E+00  0.13853862139E+03  0.13853862139E+03  0.00000000000E+00 0. -1.
         21   -1    0    0  502  503 -0.00000000000E+00 -0.00000000000E+00 -0.96990978583E+03  0.96990978583E+03  0.00000000000E+00 0. -1.
         -6    2    1    2    0  503 -0.21123162207E+02 -0.80897320327E+02  0.51175749726E+02  0.20544673066E+03  0.18055148120E+03 0.  0.
        -24    2    3    3    0    0  0.16770672935E+02  0.10949310455E+02 -0.18214733649E+02  0.84166577666E+02  0.79693747584E+02 0.  0.
          6    2    1    2  501    0  0.21123162207E+02  0.80897320327E+02 -0.88254691417E+03  0.90300167655E+03  0.17184995703E+03 0.  0.
         24    2    5    5    0    0 -0.21772093865E+01  0.17045848348E+02 -0.74672547308E+03  0.75104947470E+03  0.78619845499E+02 0.  0.
          5    1    5    5  501    0  0.23300371593E+02  0.63851471979E+02 -0.13582144109E+03  0.15195220186E+03  0.47000000000E+01 0. -1.
        -13    1    6    6    0    0  0.36890513551E+02  0.11770107140E+02 -0.28048775531E+03  0.28314806425E+03  0.00000000000E+00 0.  1.
         14    1    6    6    0    0 -0.39067722938E+02  0.52757412074E+01 -0.46623771777E+03  0.46790141045E+03  0.00000000000E+00 0. -1.
         -5    1    3    3    0  503 -0.37893835142E+02 -0.91846630782E+02  0.69390483375E+02  0.12128015300E+03  0.47000000000E+01 0.  1.
         11    1    4    4    0    0 -0.16287571298E+02  0.31408353194E+02 -0.26761081044E+02  0.44361301692E+02  0.00000000000E+00 0. -1.
        -12    1    4    4    0    0  0.33058244233E+02 -0.20459042739E+02  0.85463473955E+01  0.39805275974E+02  0.00000000000E+00 0.  1.
</event>
<event>
12    1  0.1444522E+000  0.2116927E+03  0.7818608E-02  0.1140476E+00
         21   -1    0    0  501  502  0.00000000000E+00  0.00000000000E+00  0.77733471780E+03  0.77733471780E+03  0.00000000000E+00 0. -1.
         21   -1    0    0  502  503 -0.00000000000E+00 -0.00000000000E+00 -0.23652894368E+03  0.23652894368E+03  0.00000000000E+00 0. -1.
         -6    2    1    2    0  503 -0.73972951312E+02  0.96819802994E+02  0.71185401963E+03  0.74266408725E+03  0.17311189862E+03 0.  0.
        -24    2    3    3    0    0 -0.65666430873E+02  0.74223183257E+02  0.70593550395E+03  0.71743069007E+03  0.80874583386E+02 0.  0.
          6    2    1    2  501    0  0.73972951312E+02 -0.96819802994E+02 -0.17104824551E+03  0.27119957423E+03  0.17159730474E+03 0.  0.
         24    2    5    5    0    0  0.64317446153E+02 -0.81079917308E+02 -0.19833614729E+03  0.23791756159E+03  0.80974390525E+02 0.  0.
          5    1    5    5  501    0  0.96555051584E+01 -0.15739885686E+02  0.27287901788E+02  0.33282012638E+02  0.47000000000E+01 0. -1.
        -11    1    6    6    0    0  0.37232879904E+02 -0.86511868174E+02 -0.10724901099E+03  0.14273381183E+03  0.00000000000E+00 0.  1.
         12    1    6    6    0    0  0.27084566250E+02  0.54319508663E+01 -0.91087136305E+02  0.95183749765E+02  0.00000000000E+00 0. -1.
         -5    1    3    3    0  503 -0.83065204383E+01  0.22596619737E+02  0.59185156807E+01  0.25233397179E+02  0.47000000000E+01 0.  1.
         13    1    4    4    0    0 -0.27326985715E+02 -0.11624997171E+02  0.26006170440E+03  0.26175178090E+03  0.00000000000E+00 0. -1.
        -14    1    4    4    0    0 -0.38339445158E+02  0.85848180428E+02  0.44587379955E+03  0.45567890917E+03  0.00000000000E+00 0.  1.
</event>
<event>
12    1  0.1061634E+000  0.2015201E+03  0.7818608E-02  0.1149299E+00
         21   -1    0    0  501  502  0.00000000000E+00  0.00000000000E+00  0.30030742074E+03  0.30030742074E+03  0.00000000000E+00 0. -1.
         21   -1    0    0  502  503 -0.00000000000E+00 -0.00000000000E+00 -0.16699485405E+03  0.16699485405E+03  0.00000000000E+00 0. -1.
         -6    2    1    2    0  503  0.84388226253E+02 -0.58034717566E+02 -0.38875561384E+02  0.20523558430E+03  0.17355383780E+03 0.  0.
        -24    2    3    3    0    0  0.78348860605E+02 -0.52026524588E+02  0.42010331196E+02  0.12376663353E+03  0.68614928627E+02 0.  0.
          6    2    1    2  501    0 -0.84388226253E+02  0.58034717566E+02  0.17218812808E+03  0.26206669049E+03  0.16894021913E+03 0.  0.
         24    2    5    5    0    0 -0.46109792928E+02  0.19470507449E+02  0.15019072554E+02  0.95703717525E+02  0.80177399206E+02 0.  0.
          5    1    5    5  501    0 -0.38278433325E+02  0.38564210117E+02  0.15716905552E+03  0.16636297296E+03  0.47000000000E+01 0. -1.
        -13    1    6    6    0    0 -0.30022276312E+02 -0.16043930641E+02  0.37542447328E+02  0.50677215163E+02  0.00000000000E+00 0.  1.
         14    1    6    6    0    0 -0.16087516616E+02  0.35514438090E+02 -0.22523374773E+02  0.45026502361E+02  0.00000000000E+00 0. -1.
         -5    1    3    3    0  503  0.60393656481E+01 -0.60081929779E+01 -0.80885892580E+02  0.81468950765E+02  0.47000000000E+01 0.  1.
         13    1    4    4    0    0  0.65675912116E+02 -0.62909947679E+02  0.51540705515E+02  0.10453435452E+03  0.00000000000E+00 0. -1.
        -14    1    4    4    0    0  0.12672948489E+02  0.10883423091E+02 -0.95303743188E+01  0.19232279018E+02  0.00000000000E+00 0.  1.
</event>
<event>
12    1  0.1061634E+000  0.2365795E+03  0.7818608E-02  0.1122296E+00
         21   -1    0    0  501  502  0.00000000000E+00  0.00000000000E+00  0.52398986684E+03  0.52398986684E+03  0.00000000000E+00 0.  1.
         21   -1    0    0  502  503 -0.00000000000E+00 -0.00000000000E+00 -0.14155069907E+03  0.14155069907E+03  0.00000000000E+00 0. -1.
         -6    2    1    2    0  503  0.46203047256E+02  0.15472676887E+03  0.24734451631E+02  0.23667869520E+03  0.17125979412E+03 0.  0.
        -24    2    3    3    0    0  0.74167894027E+02  0.14305792594E+03 -0.20565934598E+02  0.18197577441E+03  0.82010841522E+02 0.  0.
          6    2    1    2  501    0 -0.46203047256E+02 -0.15472676887E+03  0.35770471614E+03  0.42886187072E+03  0.17290097058E+03 0.  0.
         24    2    5    5    0    0 -0.25203021154E+02 -0.70972837454E+01  0.18612876423E+03  0.20149462759E+03  0.72598928106E+02 0.  0.
          5    1    5    5  501    0 -0.21000026102E+02 -0.14762948513E+03  0.17157595191E+03  0.22736724313E+03  0.47000000000E+01 0. -1.
        -13    1    6    6    0    0 -0.99297584495E+01 -0.39832692390E+02  0.98406072767E+02  0.10662550653E+03  0.00000000000E+00 0.  1.
         14    1    6    6    0    0 -0.15273262705E+02  0.32735408645E+02  0.87722691461E+02  0.94869121056E+02  0.00000000000E+00 0. -1.
         -5    1    3    3    0  503 -0.27964846771E+02  0.11668842935E+02  0.45300386229E+02  0.54702920789E+02  0.47000000000E+01 0.  1.
         13    1    4    4    0    0  0.45358685788E-02  0.56379516972E+02 -0.35951661486E+02  0.66866822253E+02  0.00000000000E+00 0. -1.
        -14    1    4    4    0    0  0.74163358159E+02  0.86678408965E+02  0.15385726888E+02  0.11510895215E+03  0.00000000000E+00 0.  1.
</event>
<event>
12    1  0.1061634E+000  0.2660271E+03  0.7818608E-02  0.1103688E+00
         21   -1    0    0  501  502  0.00000000000E+00  0.00000000000E+00  0.34324994977E+03  0.34324994977E+03  0.00000000000E+00 0. -1.
         21   -1    0    0  502  503 -0.00000000000E+00 -0.00000000000E+00 -0.20613985863E+03  0.20613985863E+03  0.00000000000E+00 0.  1.
         -6    2    1    2    0  503  0.17973540084E+03 -0.93922617314E+02  0.54126928526E+02  0.27072040483E+03  0.17097818820E+03 0.  0.
        -24    2    3    3    0    0  0.34147486540E+02 -0.64721492160E+02  0.51198714516E+02  0.12212965499E+03  0.83303192465E+02 0.  0.
          6    2    1    2  501    0 -0.17973540084E+03  0.93922617314E+02  0.82983162616E+02  0.27866940358E+03  0.17217479158E+03 0.  0.
         24    2    5    5    0    0 -0.15275044389E+03  0.12236908407E+03  0.31568694735E+02  0.21383941916E+03  0.80148760766E+02 0.  0.
          5    1    5    5  501    0 -0.26984956950E+02 -0.28446466761E+02  0.51414467881E+02  0.64829984423E+02  0.47000000000E+01 0. -1.
        -11    1    6    6    0    0 -0.58453589592E+02  0.77523088117E+02 -0.17185891321E+02  0.98600234218E+02  0.00000000000E+00 0.  1.
         12    1    6    6    0    0 -0.94296854297E+02  0.44845995958E+02  0.48754586056E+02  0.11523918494E+03  0.00000000000E+00 0. -1.
         -5    1    3    3    0  503  0.14558791430E+03 -0.29201125154E+02  0.29282140101E+01  0.14859074984E+03  0.47000000000E+01 0.  1.
         11    1    4    4    0    0  0.49711417848E+02 -0.69375431026E+02  0.21084399106E+02  0.87913180924E+02  0.00000000000E+00 0. -1.
        -12    1    4    4    0    0 -0.15563931308E+02  0.46539388660E+01  0.30114315410E+02  0.34216474064E+02  0.00000000000E+00 0.  1.
</event>
<event>
12    1  0.1061634E+000  0.2999699E+03  0.7818608E-02  0.1085482E+00
         21   -1    0    0  501  502  0.00000000000E+00  0.00000000000E+00  0.19420075322E+03  0.19420075322E+03  0.00000000000E+00 0.  1.
         21   -1    0    0  502  503 -0.00000000000E+00 -0.00000000000E+00 -0.64733711312E+03  0.64733711312E+03  0.00000000000E+00 0. -1.
         -6    2    1    2    0  503  0.19498105027E+03 -0.14566630698E+03 -0.69756744168E-01  0.29816757651E+03  0.17224289785E+03 0.  0.
        -24    2    3    3    0    0  0.45054526318E+02 -0.90379693740E+02 -0.37610156519E+02  0.13395447166E+03  0.79566809806E+02 0.  0.
          6    2    1    2  501    0 -0.19498105027E+03  0.14566630698E+03 -0.45306660315E+03  0.54337028983E+03  0.17534435271E+03 0.  0.
         24    2    5    5    0    0 -0.21983165622E+03  0.11692235077E+03 -0.40583713269E+03  0.48257160140E+03  0.78579762195E+02 0.  0.
          5    1    5    5  501    0  0.24850605946E+02  0.28743956213E+02 -0.47229470456E+02  0.60798688425E+02  0.47000000000E+01 0. -1.
        -13    1    6    6    0    0 -0.16095524033E+03  0.11991110224E+03 -0.29128834725E+03  0.35374307494E+03  0.00000000000E+00 0.  1.
         14    1    6    6    0    0 -0.58876415891E+02 -0.29887514684E+01 -0.11454878544E+03  0.12882852646E+03  0.00000000000E+00 0. -1.
         -5    1    3    3    0  503  0.14992652395E+03 -0.55286613244E+02  0.37540399775E+02  0.16421310485E+03  0.47000000000E+01 0.  1.
         13    1    4    4    0    0  0.38126287977E+02 -0.63117391879E+01 -0.30632698668E+02  0.49313427321E+02  0.00000000000E+00 0. -1.
        -14    1    4    4    0    0  0.69282383410E+01 -0.84067954552E+02 -0.69774578515E+01  0.84641044341E+02  0.00000000000E+00 0.  1.
</event>
<event>
12    1  0.1061634E+000  0.3354094E+03  0.7818608E-02  0.1068878E+00
         21   -1    0    0  503  502  0.00000000000E+00  0.00000000000E+00  0.26708758352E+03  0.26708758352E+03  0.00000000000E+00 0.  1.
         21   -1    0    0  501  503 -0.00000000000E+00 -0.00000000000E+00 -0.42364632586E+03  0.42364632586E+03  0.00000000000E+00 0.  1.
          6    2    1    2  501    0  0.23791681958E+03 -0.16226013737E+03 -0.45864933445E+02  0.33753060853E+03  0.16997221642E+03 0.  0.
         24    2    3    3    0    0  0.20063301504E+03 -0.10444496649E+03 -0.89645177642E+02  0.25585150565E+03  0.79128865291E+02 0.  0.
         -6    2    1    2    0  502 -0.23791681958E+03  0.16226013737E+03 -0.11069380890E+03  0.35320330085E+03  0.17194966470E+03 0.  0.
        -24    2    5    5    0    0 -0.18780688473E+03  0.15445167764E+03 -0.28736308649E+02  0.25670926238E+03  0.77117593857E+02 0.  0.
          5    1    3    3  501    0  0.37283804539E+02 -0.57815170874E+02  0.43780244197E+02  0.81679102872E+02  0.47000000000E+01 0. -1.
        -13    1    4    4    0    0  0.12986711113E+03 -0.25768509059E+02 -0.35974350913E+02  0.13719925851E+03  0.00000000000E+00 0.  1.
         14    1    4    4    0    0  0.70765903906E+02 -0.78676457435E+02 -0.53670826729E+02  0.11865224714E+03  0.00000000000E+00 0. -1.
         -5    1    5    5    0  502 -0.50109934847E+02  0.78084597299E+01 -0.81957500246E+02  0.96494038471E+02  0.47000000000E+01 0.  1.
         11    1    6    6    0    0 -0.14216225429E+03  0.10235771469E+03 -0.53481489045E+02  0.18315970619E+03  0.00000000000E+00 0. -1.
        -12    1    6    6    0    0 -0.45644630439E+02  0.52093962946E+02  0.24745180396E+02  0.73549556193E+02  0.00000000000E+00 0.  1.
</event>
<event>
12    1  0.1061634E+000  0.4179346E+03  0.7818608E-02  0.1037797E+00
         21   -1    0    0  503  502  0.00000000000E+00  0.00000000000E+00  0.27297450105E+03  0.27297450105E+03  0.00000000000E+00 0.  1.
         21   -1    0    0  501  503 -0.00000000000E+00 -0.00000000000E+00 -0.66666305455E+03  0.66666305455E+03  0.00000000000E+00 0.  1.
          6    2    1    2  501    0 -0.50314975091E+02  0.37676368679E+03 -0.10097758855E+03  0.42996021918E+03  0.17374361653E+03 0.  0.
         24    2    3    3    0    0 -0.77422734226E+00  0.24447922674E+03 -0.12762316662E+03  0.28613553114E+03  0.76257313010E+02 0.  0.
         -6    2    1    2    0  502  0.50314975091E+02 -0.37676368679E+03 -0.29271096495E+03  0.50967733642E+03  0.17207209495E+03 0.  0.
        -24    2    5    5    0    0  0.54271241403E+02 -0.98914730894E+02 -0.12656964659E+03  0.18588616607E+03  0.76185954514E+02 0.  0.
          5    1    3    3  501    0 -0.49540747749E+02  0.13228446005E+03  0.26645578071E+02  0.14382468804E+03  0.47000000000E+01 0. -1.
        -11    1    4    4    0    0  0.28505690712E+02  0.12149597396E+03 -0.35614521591E+02  0.12977765694E+03  0.00000000000E+00 0.  1.
         12    1    4    4    0    0 -0.29279918054E+02  0.12298325277E+03 -0.92008645031E+02  0.15635787420E+03  0.00000000000E+00 0. -1.
         -5    1    5    5    0  502 -0.39562663121E+01 -0.27784895590E+03 -0.16614131835E+03  0.32379117035E+03  0.47000000000E+01 0.  1.
         13    1    6    6    0    0  0.64572878708E+02 -0.10549733742E+03 -0.11806941354E+03  0.17099629025E+03  0.00000000000E+00 0. -1.
        -14    1    6    6    0    0 -0.10301637305E+02  0.65826065234E+01 -0.85002330550E+01  0.14889875815E+02  0.00000000000E+00 0.  1.
</event>
<event>
12    1  0.1061634E+000  0.3411131E+03  0.7818608E-02  0.1066395E+00
         21   -1    0    0  501  502  0.00000000000E+00  0.00000000000E+00  0.36258592856E+03  0.36258592856E+03  0.00000000000E+00 0.  1.
         21   -1    0    0  502  503 -0.00000000000E+00 -0.00000000000E+00 -0.64083364829E+03  0.64083364829E+03  0.00000000000E+00 0.  1.
         -6    2    1    2    0  503 -0.25087043620E+03 -0.15389705139E+03 -0.49389837350E+03  0.59985625798E+03  0.17108959263E+03 0.  0.
        -24    2    3    3    0    0 -0.20242295300E+03 -0.16936292384E+03 -0.46780629850E+03  0.54250437731E+03  0.76219515962E+02 0.  0.
          6    2    1    2  501    0  0.25087043620E+03  0.15389705139E+03  0.21565065377E+03  0.40356331887E+03  0.17244671547E+03 0.  0.
         24    2    5    5    0    0  0.88783776134E+02  0.49092227817E+02  0.19973104649E+02  0.12866710273E+03  0.76574752229E+02 0.  0.
          5    1    5    5  501    0  0.16208666006E+03  0.10480482357E+03  0.19567754912E+03  0.27489621614E+03  0.47000000000E+01 0. -1.
        -11    1    6    6    0    0 -0.22336911914E+01  0.92783596682E+01  0.27430392925E+02  0.29043136719E+02  0.00000000000E+00 0.  1.
         12    1    6    6    0    0  0.91017467326E+02  0.39813868149E+02 -0.74572882754E+01  0.99623966011E+02  0.00000000000E+00 0. -1.
         -5    1    3    3    0  503 -0.48447483195E+02  0.15465872445E+02 -0.26092075002E+02  0.57351880669E+02  0.47000000000E+01 0.  1.
         13    1    4    4    0    0 -0.13279413629E+03 -0.11149944314E+03 -0.22993520574E+03  0.28798716515E+03  0.00000000000E+00 0. -1.
        -14    1    4    4    0    0 -0.69628816713E+02 -0.57863480696E+02 -0.23787109276E+03  0.25451721216E+03  0.00000000000E+00 0.  1.
</event>
<event>
12    1  0.1061634E+000  0.2821628E+03  0.7818608E-02  0.1094565E+00
         21   -1    0    0  501  502  0.00000000000E+00  0.00000000000E+00  0.48663452721E+03  0.48663452721E+03  0.00000000000E+00 0.  1.
         21   -1    0    0  502  503 -0.00000000000E+00 -0.00000000000E+00 -0.16949671377E+03  0.16949671377E+03  0.00000000000E+00 0.  1.
         -6    2    1    2    0  503  0.87608747381E+02  0.20498557713E+03  0.22097269674E+03  0.35839192035E+03  0.17297819638E+03 0.  0.
        -24    2    3    3    0    0  0.46895612208E+02  0.21510282287E+03  0.19751720432E+03  0.31009939338E+03  0.93167402681E+02 0.  0.
          6    2    1    2  501    0 -0.87608747381E+02 -0.20498557713E+03  0.96165116698E+02  0.29773932063E+03  0.17235600927E+03 0.  0.
         24    2    5    5    0    0 -0.65392360488E+02 -0.75699299820E+02 -0.10575892329E+02  0.12855231653E+03  0.80045635630E+02 0.  0.
          5    1    5    5  501    0 -0.22216386892E+02 -0.12928627731E+03  0.10674100903E+03  0.16918700410E+03  0.47000000000E+01 0. -1.
        -13    1    6    6    0    0  0.79426685892E+01 -0.23024495269E+01 -0.22635385214E+02  0.24098712039E+02  0.00000000000E+00 0.  1.
         14    1    6    6    0    0 -0.73335029078E+02 -0.73396850293E+02  0.12059492885E+02  0.10445360449E+03  0.00000000000E+00 0. -1.
         -5    1    3    3    0  503  0.40713135172E+02 -0.10117245738E+02  0.23455492416E+02  0.48292526972E+02  0.47000000000E+01 0.  1.
         11    1    4    4    0    0  0.71747981378E+02  0.19190661741E+03  0.16507238473E+03  0.26310609046E+03  0.00000000000E+00 0. -1.
        -12    1    4    4    0    0 -0.24852369170E+02  0.23196205460E+02  0.32444819595E+02  0.46993302923E+02  0.00000000000E+00 0.  1.
</event>
<event>
12    1  0.1061634E+000  0.1815042E+03  0.7818608E-02  0.1166502E+00
         21   -1    0    0  503  502  0.00000000000E+00  0.00000000000E+00  0.26936771954E+03  0.26936771954E+03  0.00000000000E+00 0. -1.
         21   -1    0    0  501  503 -0.00000000000E+00 -0.00000000000E+00 -0.12311715008E+03  0.12311715008E+03  0.00000000000E+00 0. -1.
          6    2    1    2  501    0  0.47339948335E+02 -0.36713677170E+02  0.53398231417E+02  0.18860910691E+03  0.17068409209E+03 0.  0.
         24    2    3    3    0    0  0.34229838605E+02  0.44541392078E+02  0.38244591810E+02  0.10478796370E+03  0.79763720291E+02 0.  0.
         -6    2    1    2    0  502 -0.47339948335E+02  0.36713677170E+02  0.92852338041E+02  0.20387576271E+03  0.17133244043E+03 0.  0.
        -24    2    5    5    0    0  0.88761790292E+01  0.75901197194E+01  0.11137520269E+03  0.13774240434E+03  0.80200609154E+02 0.  0.
          5    1    3    3  501    0  0.13110109730E+02 -0.81255069248E+02  0.15153639607E+02  0.83821143209E+02  0.47000000000E+01 0. -1.
        -13    1    4    4    0    0  0.37678951743E+02  0.40198977232E+02 -0.10194866154E+02  0.56032102146E+02  0.00000000000E+00 0.  1.
         14    1    4    4    0    0 -0.34491131385E+01  0.43424148457E+01  0.48439457964E+02  0.48755861555E+02  0.00000000000E+00 0. -1.
         -5    1    5    5    0  502 -0.56216127364E+02  0.29123557451E+02 -0.18522864649E+02  0.66133358369E+02  0.47000000000E+01 0.  1.
         13    1    6    6    0    0  0.42975970576E+02  0.82914814425E+01  0.81006534643E+02  0.92074651052E+02  0.00000000000E+00 0. -1.
        -14    1    6    6    0    0 -0.34099791547E+02 -0.70136172304E+00  0.30368668047E+02  0.45667753292E+02  0.00000000000E+00 0.  1.
</event>
<event>
12    1  0.1061634E+000  0.1947681E+03  0.7818608E-02  0.1157891E+00
         21   -1    0    0  501  502  0.00000000000E+00  0.00000000000E+00  0.40271193598E+03  0.40271193598E+03  0.00000000000E+00 0. -1.
         21   -1    0    0  502  503 -0.00000000000E+00 -0.00000000000E+00 -0.91086717124E+02  0.91086717124E+02  0.00000000000E+00 0. -1.
         -6    2    1    2    0  503 -0.99741838790E+01 -0.91216235775E+02  0.21686022445E+03  0.29148410429E+03  0.17179854508E+03 0.  0.
        -24    2    3    3    0    0  0.26801524674E+02 -0.25637090020E+02  0.42616137644E+02  0.10165215523E+03  0.84507061041E+02 0.  0.
          6    2    1    2  501    0  0.99741838790E+01  0.91216235775E+02  0.94764994406E+02  0.20231454881E+03  0.15339780469E+03 0.  0.
         24    2    5    5    0    0 -0.42266711734E+02  0.33040721088E+02  0.26007109374E+02  0.98087688370E+02  0.77888771341E+02 0.  0.
          5    1    5    5  501    0  0.52240895613E+02  0.58175514686E+02  0.68757885032E+02  0.10422686044E+03  0.47000000000E+01 0. -1.
        -11    1    6    6    0    0 -0.21006089504E+02  0.44451113208E+02 -0.14219289331E+02  0.51179541331E+02  0.00000000000E+00 0.  1.
         12    1    6    6    0    0 -0.21260622229E+02 -0.11410392120E+02  0.40226398705E+02  0.46908147040E+02  0.00000000000E+00 0. -1.
         -5    1    3    3    0  503 -0.36775708553E+02 -0.65579145755E+02  0.17424408681E+03  0.18983194906E+03  0.47000000000E+01 0.  1.
         13    1    4    4    0    0  0.51046056594E+02  0.25163407628E+01  0.39066584453E+02  0.64329074962E+02  0.00000000000E+00 0. -1.
        -14    1    4    4    0    0 -0.24244531920E+02 -0.28153430783E+02  0.35495531907E+01  0.37323080268E+02  0.00000000000E+00 0.  1.
</event>
<event>
12    1  0.1061634E+000  0.2724520E+03  0.7818608E-02  0.1101544E+00
         21   -1    0    0  503  502  0.00000000000E+00  0.00000000000E+00  0.16080427771E+03  0.16080427771E+03  0.00000000000E+00 0. -1.
         21   -1    0    0  501  503 -0.00000000000E+00 -0.00000000000E+00 -0.44239754497E+03  0.44239754497E+03  0.00000000000E+00 0. -1.
          6    2    1    2  501    0 -0.42439840425E+02 -0.19166794337E+03 -0.13824359542E+03  0.29533950032E+03  0.17197787126E+03 0.  0.
         24    2    3    3    0    0  0.31053196509E+02 -0.10059140907E+03 -0.11676695897E+03  0.17626180513E+03  0.79691710042E+02 0.  0.
         -6    2    1    2    0  502  0.42439840425E+02  0.19166794337E+03 -0.14334967183E+03  0.30786232236E+03  0.18892416612E+03 0.  0.
        -24    2    5    5    0    0  0.95973648525E+02  0.18112693230E+03 -0.11501988462E+03  0.24620481375E+03  0.73275709754E+02 0.  0.
          5    1    3    3  501    0 -0.73493036934E+02 -0.91076534304E+02 -0.21476636450E+02  0.11907769519E+03  0.47000000000E+01 0. -1.
        -13    1    4    4    0    0  0.38043550032E+02 -0.44854778223E+02 -0.16094401395E+02  0.60977804033E+02  0.00000000000E+00 0.  1.
         14    1    4    4    0    0 -0.69903535229E+01 -0.55736630846E+02 -0.10067255758E+03  0.11528400110E+03  0.00000000000E+00 0. -1.
         -5    1    5    5    0  502 -0.53533808101E+02  0.10541011068E+02 -0.28329787214E+02  0.61657508608E+02  0.47000000000E+01 0.  1.
         11    1    6    6    0    0 -0.31088053760E+01  0.29261835804E+02  0.34152884565E+01  0.29624042613E+02  0.00000000000E+00 0. -1.
        -12    1    6    6    0    0  0.99082453901E+02  0.15186509650E+03 -0.11843517307E+03  0.21658077114E+03  0.00000000000E+00 0.  1.
</event>
<event>
12    1  0.1061634E+000  0.2217180E+03  0.7818608E-02  0.1132975E+00
         21   -1    0    0  503  502  0.00000000000E+00  0.00000000000E+00  0.18600993215E+04  0.18600993215E+04  0.00000000000E+00 0.  1.
         21   -1    0    0  501  503 -0.00000000000E+00 -0.00000000000E+00 -0.26606118308E+02  0.26606118308E+02  0.00000000000E+00 0.  1.
          6    2    1    2  501    0 -0.12025126806E+03 -0.74813573982E+02  0.79520349541E+03  0.82500661649E+03  0.16801749855E+03 0.  0.
         24    2    3    3    0    0 -0.10299893164E+03  0.11262528668E+02  0.42042667418E+03  0.44005662716E+03  0.78457773793E+02 0.  0.
         -6    2    1    2    0  502  0.12025126806E+03  0.74813573982E+02  0.10382897078E+04  0.10616988233E+04  0.17059142952E+03 0.  0.
        -24    2    5    5    0    0 -0.75586072263E+01  0.24908315318E+02  0.40118384023E+03  0.40996891336E+03  0.80302425531E+02 0.  0.
          5    1    3    3  501    0 -0.17252336419E+02 -0.86076102650E+02  0.37477682123E+03  0.38494998934E+03  0.47000000000E+01 0. -1.
        -13    1    4    4    0    0 -0.47089883278E+02 -0.11662613325E+02  0.31354681756E+03  0.31727760788E+03  0.00000000000E+00 0.  1.
         14    1    4    4    0    0 -0.55909048358E+02  0.22925141993E+02  0.10687985662E+03  0.12277901928E+03  0.00000000000E+00 0. -1.
         -5    1    5    5    0  502  0.12780987528E+03  0.49905258664E+02  0.63710586753E+03  0.65172990993E+03  0.47000000000E+01 0.  1.
         11    1    6    6    0    0  0.33160208391E+00  0.41928986159E+02  0.10317013468E+03  0.11136528422E+03  0.00000000000E+00 0. -1.
        -12    1    6    6    0    0 -0.78902093102E+01 -0.17020670841E+02  0.29801370555E+03  0.29860362914E+03  0.00000000000E+00 0.  1.
</event>
<event>
12    1  0.1061634E+000  0.1973744E+03  0.7818608E-02  0.1151992E+00
         21   -1    0    0  501  502  0.00000000000E+00  0.00000000000E+00  0.36237435608E+03  0.36237435608E+03  0.00000000000E+00 0. -1.
         21   -1    0    0  502  503 -0.00000000000E+00 -0.00000000000E+00 -0.15044451665E+03  0.15044451665E+03  0.00000000000E+00 0. -1.
         -6    2    1    2    0  503 -0.89567493759E+02 -0.36767891131E+02  0.24301065245E+03  0.31301227931E+03  0.17189617807E+03 0.  0.
        -24    2    3    3    0    0 -0.19186769304E+02 -0.23684286779E+02  0.22392891984E+03  0.23877731721E+03  0.77080273194E+02 0.  0.
          6    2    1    2  501    0  0.89567493759E+02  0.36767891131E+02 -0.31080813028E+02  0.19980659342E+03  0.17199547692E+03 0.  0.
         24    2    5    5    0    0  0.11511345006E+03  0.56954760123E+02  0.47572689572E+01  0.15115925348E+03  0.79570957132E+02 0.  0.
          5    1    5    5  501    0 -0.25545956304E+02 -0.20186868991E+02 -0.35838081986E+02  0.48647339944E+02  0.47000000000E+01 0. -1.
        -13    1    6    6    0    0  0.24852024963E+02  0.42122598134E+02 -0.25055026349E+02  0.54951713019E+02  0.00000000000E+00 0.  1.
         14    1    6    6    0    0  0.90261425100E+02  0.14832161988E+02  0.29812295306E+02  0.96207540462E+02  0.00000000000E+00 0. -1.
         -5    1    3    3    0  503 -0.70380724455E+02 -0.13083604353E+02  0.19081732609E+02  0.74234962093E+02  0.47000000000E+01 0.  1.
         11    1    4    4    0    0  0.29093699265E+02 -0.28113647253E+00  0.85459025035E+02  0.90276061802E+02  0.00000000000E+00 0. -1.
        -12    1    4    4    0    0 -0.48280468570E+02 -0.23403150306E+02  0.13846989481E+03  0.14850125541E+03  0.00000000000E+00 0.  1.
</event>
<event>
12    1  0.1061634E+000  0.1962684E+03  0.7818608E-02  0.1152976E+00
         21   -1    0    0  501  502  0.00000000000E+00  0.00000000000E+00  0.23168485718E+03  0.23168485718E+03  0.00000000000E+00 0.  1.
         21   -1    0    0  502  503 -0.00000000000E+00 -0.00000000000E+00 -0.26935187562E+03  0.26935187562E+03  0.00000000000E+00 0.  1.
         -6    2    1    2    0  503  0.95129767562E+02  0.18402766399E+01  0.13630250879E+03  0.23876459686E+03  0.17139748982E+03 0.  0.
        -24    2    3    3    0    0  0.91039471448E+02 -0.27814924835E+02  0.15826462359E+03  0.20134019327E+03  0.80176847909E+02 0.  0.
          6    2    1    2  501    0 -0.95129767562E+02 -0.18402766399E+01 -0.17396952723E+03  0.26227213595E+03  0.17166309329E+03 0.  0.
         24    2    5    5    0    0 -0.97056224216E+02 -0.41094631706E+02 -0.17919199734E+03  0.22234745911E+03  0.78866604139E+02 0.  0.
          5    1    5    5  501    0  0.19264566533E+01  0.39254355066E+02  0.52224701093E+01  0.39924676842E+02  0.47000000000E+01 0. -1.
        -13    1    6    6    0    0 -0.30722404809E+02 -0.45782601101E+02 -0.12480060638E+03  0.13643717996E+03  0.00000000000E+00 0.  1.
         14    1    6    6    0    0 -0.66333819406E+02  0.46879693951E+01 -0.54391390953E+02  0.85910279151E+02  0.00000000000E+00 0. -1.
         -5    1    3    3    0  503  0.40902961149E+01  0.29655201475E+02 -0.21962114805E+02  0.37424403583E+02  0.47000000000E+01 0.  1.
         11    1    4    4    0    0  0.10974239272E+02 -0.34277362917E+02  0.86253906627E+02  0.93461799386E+02  0.00000000000E+00 0. -1.
        -12    1    4    4    0    0  0.80065232176E+02  0.64624380820E+01  0.72010716966E+02  0.10787839389E+03  0.00000000000E+00 0.  1.
</event>
<event>
12    1  0.1061634E+000  0.1824734E+03  0.7818608E-02  0.1166548E+00
         21   -1    0    0  503  502  0.00000000000E+00  0.00000000000E+00  0.36587324933E+02  0.36587324933E+02  0.00000000000E+00 0. -1.
         21   -1    0    0  501  503 -0.00000000000E+00 -0.00000000000E+00 -0.13131757192E+04  0.13131757192E+04  0.00000000000E+00 0. -1.
          6    2    1    2  501    0  0.40716941843E+02 -0.62192278965E+01 -0.25943261540E+03  0.31717793222E+03  0.17776391818E+03 0.  0.
         24    2    3    3    0    0  0.21249175587E+02 -0.27947407406E+02 -0.40549078071E+02  0.96308738756E+02  0.79991001898E+02 0.  0.
         -6    2    1    2    0  502 -0.40716941843E+02  0.62192278965E+01 -0.10171557789E+04  0.10325851120E+04  0.17300169569E+03 0.  0.
        -24    2    5    5    0    0 -0.35402968999E+01  0.35301284351E+02 -0.92363687449E+03  0.92772451678E+03  0.79429142850E+02 0.  0.
          5    1    3    3  501    0  0.19467766257E+02  0.21728179510E+02 -0.21888353733E+03  0.22086919347E+03  0.47000000000E+01 0. -1.
        -13    1    4    4    0    0  0.15629418565E+02  0.41945047063E+01  0.21079764468E+02  0.26574970639E+02  0.00000000000E+00 0.  1.
         14    1    4    4    0    0  0.56197570216E+01 -0.32141912112E+02 -0.61628842539E+02  0.69733768118E+02  0.00000000000E+00 0. -1.
         -5    1    5    5    0  502 -0.37176644943E+02 -0.29082056455E+02 -0.93518904413E+02  0.10486059517E+03  0.47000000000E+01 0.  1.
         11    1    6    6    0    0  0.26668816720E+02 -0.89228159454E+01 -0.48769423747E+03  0.48850436200E+03  0.00000000000E+00 0. -1.
        -12    1    6    6    0    0 -0.30209113620E+02  0.44224100297E+02 -0.43594263702E+03  0.43922015478E+03  0.00000000000E+00 0.  1.
</event>
<event>
12    1  0.1061634E+000  0.2365638E+03  0.7818608E-02  0.1122189E+00
         21   -1    0    0  503  502  0.00000000000E+00  0.00000000000E+00  0.37598527016E+03  0.37598527016E+03  0.00000000000E+00 0.  1.
         21   -1    0    0  501  503 -0.00000000000E+00 -0.00000000000E+00 -0.15582449522E+03  0.15582449522E+03  0.00000000000E+00 0.  1.
          6    2    1    2  501    0  0.94517180705E+02 -0.13021179860E+03  0.16774133518E+03  0.28999924986E+03  0.17341799057E+03 0.  0.
         24    2    3    3    0    0  0.35528189814E+02 -0.10062045360E+03  0.27768415655E+02  0.13517723287E+03  0.78198922152E+02 0.  0.
         -6    2    1    2    0  502 -0.94517180705E+02  0.13021179860E+03  0.52419439763E+02  0.24181051552E+03  0.17273076683E+03 0.  0.
        -24    2    5    5    0    0 -0.49611975893E+02  0.15657831546E+03  0.27788228231E+02  0.18401382693E+03  0.78171515574E+02 0.  0.
          5    1    3    3  501    0  0.58988990891E+02 -0.29591344999E+02  0.13997291952E+03  0.15482201699E+03  0.47000000000E+01 0. -1.
        -11    1    4    4    0    0  0.46834207429E+02 -0.22574495491E+02  0.13474239286E+01  0.52008329942E+02  0.00000000000E+00 0.  1.
         12    1    4    4    0    0 -0.11306017614E+02 -0.78045958106E+02  0.26420991727E+02  0.83168902931E+02  0.00000000000E+00 0. -1.
         -5    1    5    5    0  502 -0.44905204813E+02 -0.26366516867E+02  0.24631211532E+02  0.57796688594E+02  0.47000000000E+01 0.  1.
         13    1    6    6    0    0  0.19690663434E+02  0.18320125627E+02  0.82348060022E+01  0.28127588936E+02  0.00000000000E+00 0. -1.
        -14    1    6    6    0    0 -0.69302639327E+02  0.13825818984E+03  0.19553422229E+02  0.15588623799E+03  0.00000000000E+00 0.  1.
</event>
<event>
12    1  0.1061634E+000  0.2567003E+03  0.7818608E-02  0.1109477E+00
         21   -1    0    0  501  502  0.00000000000E+00  0.00000000000E+00  0.80153228677E+03  0.80153228677E+03  0.00000000000E+00 0. -1.
         21   -1    0    0  502  503 -0.00000000000E+00 -0.00000000000E+00 -0.10410471072E+03  0.10410471072E+03  0.00000000000E+00 0. -1.
         -6    2    1    2    0  503 -0.18523730018E+03  0.45341769780E+02  0.13893975250E+03  0.29188915182E+03  0.17183215258E+03 0.  0.
        -24    2    3    3    0    0 -0.17901081893E+03  0.69931292458E+02  0.15595792401E+03  0.26098410602E+03  0.82792334022E+02 0.  0.
          6    2    1    2  501    0  0.18523730018E+03 -0.45341769780E+02  0.55848782355E+03  0.61374784567E+03  0.16854980138E+03 0.  0.
         24    2    5    5    0    0  0.43459546738E+02  0.27032850536E+02  0.20952546652E+03  0.23016495546E+03  0.80345991753E+02 0.  0.
          5    1    5    5  501    0  0.14177775344E+03 -0.72374620316E+02  0.34896235703E+03  0.38358289021E+03  0.47000000000E+01 0. -1.
        -11    1    6    6    0    0  0.52354858116E+02 -0.96770481004E+01  0.15455082045E+03  0.16346446871E+03  0.00000000000E+00 0.  1.
         12    1    6    6    0    0 -0.88953113776E+01  0.36709898636E+02  0.54974646069E+02  0.66700486751E+02  0.00000000000E+00 0. -1.
         -5    1    3    3    0  503 -0.62264812435E+01 -0.24589522678E+02 -0.17018171511E+02  0.30905045798E+02  0.47000000000E+01 0.  1.
         13    1    4    4    0    0 -0.23444550526E+02  0.16116279268E+02 -0.70598889434E+01  0.29312513347E+02  0.00000000000E+00 0. -1.
        -14    1    4    4    0    0 -0.15556626841E+03  0.53815013190E+02  0.16301781296E+03  0.23167159267E+03  0.00000000000E+00 0.  1.
</event>
<event>
12    1  0.1061634E+000  0.3132219E+03  0.7818608E-02  0.1078934E+00
         21   -1    0    0  501  502  0.00000000000E+00  0.00000000000E+00  0.16218506468E+04  0.16218506468E+04  0.00000000000E+00 0. -1.
         21   -1    0    0  502  503 -0.00000000000E+00 -0.00000000000E+00 -0.70554668052E+02  0.70554668052E+02  0.00000000000E+00 0. -1.
         -6    2    1    2    0  503 -0.63086504253E+02 -0.25347916807E+03  0.10994738006E+04  0.11432193988E+04  0.17284779435E+03 0.  0.
        -24    2    3    3    0    0 -0.76670187277E+02 -0.12357901537E+03  0.42096901049E+03  0.45224226006E+03  0.78473328800E+02 0.  0.
          6    2    1    2  501    0  0.63086504253E+02  0.25347916807E+03  0.45182217818E+03  0.54918591605E+03  0.17096869311E+03 0.  0.
         24    2    5    5    0    0  0.86695180145E+02  0.15395657222E+03  0.37171208796E+03  0.41917886541E+03  0.79513297480E+02 0.  0.
          5    1    5    5  501    0 -0.23608675892E+02  0.99522595843E+02  0.80110090217E+02  0.13000705064E+03  0.47000000000E+01 0. -1.
        -13    1    6    6    0    0  0.78764664551E+01  0.65945967202E+02  0.20007461191E+03  0.21080977123E+03  0.00000000000E+00 0.  1.
         14    1    6    6    0    0  0.78818713690E+02  0.88010605021E+02  0.17163747605E+03  0.20836909418E+03  0.00000000000E+00 0. -1.
         -5    1    3    3    0  503  0.13583683024E+02 -0.12990015269E+03  0.67850479009E+03  0.69097713876E+03  0.47000000000E+01 0.  1.
         13    1    4    4    0    0 -0.14897087964E+02  0.31344602251E+01  0.11189694219E+02  0.18893314358E+02  0.00000000000E+00 0. -1.
        -14    1    4    4    0    0 -0.61773099312E+02 -0.12671347560E+03  0.40977931627E+03  0.43334894570E+03  0.00000000000E+00 0.  1.
</event>
<event>
12    1  0.1061634E+000  0.2686565E+03  0.7818608E-02  0.1102173E+00
         21   -1    0    0  503  502  0.00000000000E+00  0.00000000000E+00  0.46384349140E+03  0.46384349140E+03  0.00000000000E+00 0. -1.
         21   -1    0    0  501  503 -0.00000000000E+00 -0.00000000000E+00 -0.21032907127E+03  0.21032907127E+03  0.00000000000E+00 0. -1.
          6    2    1    2  501    0 -0.98846200781E+02  0.17945414951E+03  0.29931831459E+03  0.40163940882E+03  0.17247723931E+03 0.  0.
         24    2    3    3    0    0 -0.84712200438E+02  0.17814373941E+03  0.17237843601E+03  0.27382192209E+03  0.79704272288E+02 0.  0.
         -6    2    1    2    0  502  0.98846200781E+02 -0.17945414951E+03 -0.45803894468E+02  0.27253315385E+03  0.17378711119E+03 0.  0.
        -24    2    5    5    0    0  0.55833506432E+01 -0.48561040295E+02  0.22561192066E+02  0.97813835195E+02  0.81665112069E+02 0.  0.
          5    1    3    3  501    0 -0.14134000343E+02  0.13104101046E+01  0.12693987858E+03  0.12781748673E+03  0.47000000000E+01 0. -1.
        -11    1    4    4    0    0 -0.78353646230E+02  0.74155088548E+02  0.76666754955E+02  0.13234826161E+03  0.00000000000E+00 0.  1.
         12    1    4    4    0    0 -0.63585542081E+01  0.10398865086E+03  0.95711681056E+02  0.14147366048E+03  0.00000000000E+00 0. -1.
         -5    1    5    5    0  502  0.93262850138E+02 -0.13089310922E+03 -0.68365086534E+02  0.17471931866E+03  0.47000000000E+01 0.  1.
         11    1    6    6    0    0  0.12957772595E+02 -0.37403608321E+02 -0.26056145563E+02  0.47390468532E+02  0.00000000000E+00 0. -1.
        -12    1    6    6    0    0 -0.73744219523E+01 -0.11157431973E+02  0.48617337630E+02  0.50423366663E+02  0.00000000000E+00 0.  1.
</event>
<event>
12    1  0.1061634E+000  0.2877093E+03  0.7818608E-02  0.1091605E+00
         21   -1    0    0  501  502  0.00000000000E+00  0.00000000000E+00  0.56453515237E+03  0.56453515237E+03  0.00000000000E+00 0. -1.
         21   -1    0    0  502  503 -0.00000000000E+00 -0.00000000000E+00 -0.14846999192E+03  0.14846999192E+03  0.00000000000E+00 0. -1.
         -6    2    1    2    0  503 -0.12474662315E+03  0.19383432783E+03  0.25005506356E+03  0.38118783496E+03  0.17217190269E+03 0.  0.
        -24    2    3    3    0    0 -0.74672078725E+02  0.18469219631E+03  0.25007109566E+03  0.33006906321E+03  0.81993334387E+02 0.  0.
          6    2    1    2  501    0  0.12474662315E+03 -0.19383432783E+03  0.16601009689E+03  0.33181730932E+03  0.17149317148E+03 0.  0.
         24    2    5    5    0    0  0.56770956032E+01 -0.56002666005E+02  0.88471134975E+02  0.13380342090E+03  0.83112488276E+02 0.  0.
          5    1    5    5  501    0  0.11906952755E+03 -0.13783166183E+03  0.77538961916E+02  0.19801388842E+03  0.47000000000E+01 0. -1.
        -13    1    6    6    0    0  0.33758335951E+02 -0.57014537499E+02  0.81152591585E+02  0.10476653022E+03  0.00000000000E+00 0.  1.
         14    1    6    6    0    0 -0.28081240348E+02  0.10118714947E+01  0.73185433901E+01  0.29036890687E+02  0.00000000000E+00 0. -1.
         -5    1    3    3    0  503 -0.50074544424E+02  0.91421315213E+01 -0.16032105657E-01  0.51118771748E+02  0.47000000000E+01 0.  1.
         13    1    4    4    0    0 -0.44871594402E+02  0.56358320787E+02  0.14367439832E+03  0.16072352982E+03  0.00000000000E+00 0. -1.
        -14    1    4    4    0    0 -0.29800484323E+02  0.12833387553E+03  0.10639669734E+03  0.16934553339E+03  0.00000000000E+00 0.  1.
</event>
<event>
12    1  0.1061634E+000  0.2470362E+03  0.7818608E-02  0.1115453E+00
         21   -1    0    0  501  502  0.00000000000E+00  0.00000000000E+00  0.65850798082E+03  0.65850798082E+03  0.00000000000E+00 0. -1.
         21   -1    0    0  502  503 -0.00000000000E+00 -0.00000000000E+00 -0.10432759958E+03  0.10432759958E+03  0.00000000000E+00 0. -1.
         -6    2    1    2    0  503 -0.14290812035E+03  0.10529889207E+03  0.40703599396E+03  0.47529714101E+03  0.16946528949E+03 0.  0.
        -24    2    3    3    0    0  0.61803224694E+01  0.40926349898E+02  0.14733052828E+03  0.16896365138E+03  0.71618911059E+02 0.  0.
          6    2    1    2  501    0  0.14290812035E+03 -0.10529889207E+03  0.14714438727E+03  0.28753843939E+03  0.17180307298E+03 0.  0.
         24    2    5    5    0    0  0.11489530107E+03 -0.19472210446E+02  0.40152463144E+02  0.14746596118E+03  0.80956112934E+02 0.  0.
          5    1    5    5  501    0  0.28012819274E+02 -0.85826681627E+02  0.10699192413E+03  0.14007247821E+03  0.47000000000E+01 0. -1.
        -11    1    6    6    0    0  0.17150153007E+02  0.13266833882E+02  0.38715428797E+02  0.44373652727E+02  0.00000000000E+00 0.  1.
         12    1    6    6    0    0  0.97745148067E+02 -0.32739044328E+02  0.14370343470E+01  0.10309230845E+03  0.00000000000E+00 0. -1.
         -5    1    3    3    0  503 -0.14908844282E+03  0.64372542175E+02  0.25970546568E+03  0.30633348963E+03  0.47000000000E+01 0.  1.
         13    1    4    4    0    0  0.32706850105E+02  0.44226057570E+01  0.90923541730E+02  0.96728423569E+02  0.00000000000E+00 0. -1.
        -14    1    4    4    0    0 -0.26526527635E+02  0.36503744141E+02  0.56406986553E+02  0.72235227810E+02  0.00000000000E+00 0.  1.
</event>
<event>
12    1  0.1078282E+000  0.2016506E+03  0.7818608E-02  0.1148772E+00
         21   -1    0    0  503  502  0.00000000000E+00  0.00000000000E+00  0.38475531444E+03  0.38475531444E+03  0.00000000000E+00 0. -1.
         21   -1    0    0  501  503 -0.00000000000E+00 -0.00000000000E+00 -0.36876580186E+03  0.36876580186E+03  0.00000000000E+00 0. -1.
          6    2    1    2  501    0 -0.54149503681E+02 -0.89535435755E+02  0.32683640467E+03  0.38299614317E+03  0.17004483898E+03 0.  0.
         24    2    3    3    0    0  0.78089660415E+01 -0.10548296145E+03  0.24741480520E+03  0.28090277411E+03  0.80651395273E+02 0.  0.
         -6    2    1    2    0  502  0.54149503681E+02  0.89535435755E+02 -0.31084689209E+03  0.37052497313E+03  0.17237807976E+03 0.  0.
        -24    2    5    5    0    0  0.98062170555E+02  0.91655176780E+02 -0.24815748951E+03  0.29381208757E+03  0.82015501462E+02 0.  0.
          5    1    3    3  501    0 -0.61958469723E+02  0.15947525692E+02  0.79421599466E+02  0.10209336907E+03  0.47000000000E+01 0. -1.
        -11    1    4    4    0    0  0.16285423827E+02 -0.46951102680E+01  0.10422125843E+03  0.10559038687E+03  0.00000000000E+00 0.  1.
         12    1    4    4    0    0 -0.84764577852E+01 -0.10078785118E+03  0.14319354677E+03  0.17531238724E+03  0.00000000000E+00 0. -1.
         -5    1    5    5    0  502 -0.43912666874E+02 -0.21197410245E+01 -0.62689402587E+02  0.76712885559E+02  0.47000000000E+01 0.  1.
         11    1    6    6    0    0  0.84994227547E+02  0.32182402367E+02 -0.10901740005E+03  0.14193138924E+03  0.00000000000E+00 0. -1.
        -12    1    6    6    0    0  0.13067943007E+02  0.59472774413E+02 -0.13914008946E+03  0.15188069833E+03  0.00000000000E+00 0.  1.
</event>
<event>
12    1  0.1061634E+000  0.1831036E+03  0.7818608E-02  0.1166134E+00
         21   -1    0    0  503  502  0.00000000000E+00  0.00000000000E+00  0.46767832095E+02  0.46767832095E+02  0.00000000000E+00 0.  1.
         21   -1    0    0  501  503 -0.00000000000E+00 -0.00000000000E+00 -0.75130281626E+03  0.75130281626E+03  0.00000000000E+00 0.  1.
          6    2    1    2  501    0  0.15281296519E+01 -0.57726429149E+02 -0.24876558812E+03  0.30888710874E+03  0.17375917908E+03 0.  0.
         24    2    3    3    0    0  0.30921135247E+01 -0.10263336125E+03 -0.21848668701E+03  0.25449978992E+03  0.80563904205E+02 0.  0.
         -6    2    1    2    0  502 -0.15281296519E+01  0.57726429149E+02 -0.45576939605E+03  0.48918353961E+03  0.16804796116E+03 0.  0.
        -24    2    5    5    0    0 -0.18345782039E+02 -0.28687257250E+02 -0.15105293768E+03  0.17197009628E+03  0.74814420975E+02 0.  0.
          5    1    3    3  501    0 -0.15639838728E+01  0.44906932103E+02 -0.30278901102E+02  0.54387318820E+02  0.47000000000E+01 0. -1.
        -13    1    4    4    0    0 -0.19853242436E+02 -0.11741146116E+02 -0.85765557713E+01  0.24608190836E+02  0.00000000000E+00 0.  1.
         14    1    4    4    0    0  0.22945355961E+02 -0.90892215136E+02 -0.20991013124E+03  0.22989159909E+03  0.00000000000E+00 0. -1.
         -5    1    5    5    0  502  0.16817652387E+02  0.86413686399E+02 -0.30471645837E+03  0.31721344333E+03  0.47000000000E+01 0.  1.
         11    1    6    6    0    0 -0.25082956529E+02  0.18098768376E+02 -0.35278482984E+02  0.46917922872E+02  0.00000000000E+00 0. -1.
        -12    1    6    6    0    0  0.67371744899E+01 -0.46786025626E+02 -0.11577445470E+03  0.12505217341E+03  0.00000000000E+00 0.  1.
</event>
<event>
12    1  0.1061634E+000  0.2180532E+03  0.7818608E-02  0.1135688E+00
         21   -1    0    0  503  502  0.00000000000E+00  0.00000000000E+00  0.37096618166E+02  0.37096618166E+02  0.00000000000E+00 0. -1.
         21   -1    0    0  501  503 -0.00000000000E+00 -0.00000000000E+00 -0.12771968269E+04  0.12771968269E+04  0.00000000000E+00 0. -1.
          6    2    1    2  501    0 -0.38262903109E+02  0.12747031567E+03 -0.57180341118E+03  0.61132274329E+03  0.17042190085E+03 0.  0.
         24    2    3    3    0    0 -0.67674444396E+02  0.13292711969E+03 -0.54513654006E+03  0.57097392067E+03  0.81166010140E+02 0.  0.
         -6    2    1    2    0  502  0.38262903109E+02 -0.12747031567E+03 -0.66829679760E+03  0.70297070182E+03  0.17272656662E+03 0.  0.
        -24    2    5    5    0    0 -0.17210026271E+02 -0.98241890996E+02 -0.58463477513E+03  0.59831426052E+03  0.78958722773E+02 0.  0.
          5    1    3    3  501    0  0.29411541287E+02 -0.54568040279E+01 -0.26666871118E+02  0.40348822613E+02  0.47000000000E+01 0. -1.
        -11    1    4    4    0    0  0.11241815822E+02  0.34405813972E+02 -0.63717043003E+02  0.73280284027E+02  0.00000000000E+00 0.  1.
         12    1    4    4    0    0 -0.78916260219E+02  0.98521305722E+02 -0.48141949706E+03  0.49769363665E+03  0.00000000000E+00 0. -1.
         -5    1    5    5    0  502  0.55472929381E+02 -0.29228424670E+02 -0.83662022465E+02  0.10465644130E+03  0.47000000000E+01 0.  1.
         11    1    6    6    0    0 -0.28371115447E+02 -0.81086910590E+02 -0.27737716866E+03  0.29037579264E+03  0.00000000000E+00 0. -1.
        -12    1    6    6    0    0  0.11161089175E+02 -0.17154980407E+02 -0.30725760648E+03  0.30793846788E+03  0.00000000000E+00 0.  1.
</event>
<event>
12    1  0.1061634E+000  0.2630630E+03  0.7818608E-02  0.1105368E+00
         21   -1    0    0  501  502  0.00000000000E+00  0.00000000000E+00  0.45558826895E+03  0.45558826895E+03  0.00000000000E+00 0. -1.
         21   -1    0    0  502  503 -0.00000000000E+00 -0.00000000000E+00 -0.34582137679E+03  0.34582137679E+03  0.00000000000E+00 0.  1.
         -6    2    1    2    0  503  0.19694414224E+03  0.26223863734E+02  0.35511939612E+03  0.44194106077E+03  0.17241644208E+03 0.  0.
        -24    2    3    3    0    0  0.19167431432E+03  0.25474028643E+02  0.37015728882E+03  0.42531092079E+03  0.80529447840E+02 0.  0.
          6    2    1    2  501    0 -0.19694414224E+03 -0.26223863734E+02 -0.24535250396E+03  0.35946858497E+03  0.17188695758E+03 0.  0.
         24    2    5    5    0    0 -0.17695976197E+03  0.33149219590E+02 -0.16346061654E+03  0.25625565117E+03  0.80832898506E+02 0.  0.
          5    1    5    5  501    0 -0.19984380272E+02 -0.59373083324E+02 -0.81891887419E+02  0.10321293380E+03  0.47000000000E+01 0. -1.
        -11    1    6    6    0    0 -0.63726404959E+01  0.10352452755E+02 -0.46765148829E+02  0.48319385032E+02  0.00000000000E+00 0.  1.
         12    1    6    6    0    0 -0.17058712147E+03  0.22796766835E+02 -0.11669546771E+03  0.20793626614E+03  0.00000000000E+00 0. -1.
         -5    1    3    3    0  503  0.52698279208E+01  0.74983509043E+00 -0.15037892698E+02  0.16630139981E+02  0.47000000000E+01 0.  1.
         13    1    4    4    0    0 -0.70854447618E+01 -0.44497961047E+01  0.17419661619E+02  0.19324824029E+02  0.00000000000E+00 0. -1.
        -14    1    4    4    0    0  0.19875975908E+03  0.29923824748E+02  0.35273762720E+03  0.40598609676E+03  0.00000000000E+00 0.  1.
</event>
<event>
12    1  0.1061634E+000  0.5218647E+03  0.7818608E-02  0.1008275E+00
         21   -1    0    0  503  502  0.00000000000E+00  0.00000000000E+00  0.29441031795E+03  0.29441031795E+03  0.00000000000E+00 0. -1.
         21   -1    0    0  501  503 -0.00000000000E+00 -0.00000000000E+00 -0.10026899774E+04  0.10026899774E+04  0.00000000000E+00 0. -1.
          6    2    1    2  501    0  0.28258516044E+03 -0.40254889975E+03 -0.17173056910E+03  0.54861668377E+03  0.17201420801E+03 0.  0.
         24    2    3    3    0    0  0.28667390417E+03 -0.32136949931E+03 -0.13176441052E+03  0.45791830058E+03  0.82867531080E+02 0.  0.
         -6    2    1    2    0  502 -0.28258516044E+03  0.40254889975E+03 -0.53654909036E+03  0.74848361158E+03  0.17447865443E+03 0.  0.
        -24    2    5    5    0    0 -0.99681205986E+02  0.23060757429E+03 -0.21419165094E+03  0.33988345898E+03  0.80786794784E+02 0.  0.
          5    1    3    3  501    0 -0.40887437351E+01 -0.81179400437E+02 -0.39966158583E+02  0.90698383186E+02  0.47000000000E+01 0. -1.
        -13    1    4    4    0    0  0.26365785010E+03 -0.31416905127E+03 -0.10814305406E+03  0.42416102466E+03  0.00000000000E+00 0.  1.
         14    1    4    4    0    0  0.23016054066E+02 -0.72004480436E+01 -0.23621356461E+02  0.33757275924E+02  0.00000000000E+00 0. -1.
         -5    1    5    5    0  502 -0.18290395445E+03  0.17194132546E+03 -0.32235743942E+03  0.40860015260E+03  0.47000000000E+01 0.  1.
         13    1    6    6    0    0  0.79552786353E+01  0.10907474141E+02 -0.32354396077E+02  0.35058043240E+02  0.00000000000E+00 0. -1.
        -14    1    6    6    0    0 -0.10763648462E+03  0.21970010015E+03 -0.18183725486E+03  0.30482541574E+03  0.00000000000E+00 0.  1.
</event>
<event>
12    1  0.1061634E+000  0.3368038E+03  0.7818608E-02  0.1068236E+00
         21   -1    0    0  503  502  0.00000000000E+00  0.00000000000E+00  0.21811273683E+03  0.21811273683E+03  0.00000000000E+00 0.  1.
         21   -1    0    0  501  503 -0.00000000000E+00 -0.00000000000E+00 -0.63367293512E+03  0.63367293512E+03  0.00000000000E+00 0. -1.
          6    2    1    2  501    0  0.23564448849E+03 -0.16748916746E+03 -0.26499044740E+02  0.33719324663E+03  0.17151134082E+03 0.  0.
         24    2    3    3    0    0  0.11783424794E+03 -0.53758049547E+02 -0.70859967110E+02  0.16747583033E+03  0.79070733708E+02 0.  0.
         -6    2    1    2    0  502 -0.23564448849E+03  0.16748916746E+03 -0.38906115355E+03  0.51459242533E+03  0.17278841637E+03 0.  0.
        -24    2    5    5    0    0 -0.18498359382E+03  0.85769252775E+02 -0.17677626579E+03  0.28150095342E+03  0.80110198642E+02 0.  0.
          5    1    3    3  501    0  0.11781024055E+03 -0.11373111791E+03  0.44360922371E+02  0.16971741629E+03  0.47000000000E+01 0. -1.
        -11    1    4    4    0    0  0.34770500520E+02  0.19985216077E+02 -0.12530724015E+02  0.42016849149E+02  0.00000000000E+00 0.  1.
         12    1    4    4    0    0  0.83063747416E+02 -0.73743265624E+02 -0.58329243096E+02  0.12545898118E+03  0.00000000000E+00 0. -1.
         -5    1    5    5    0  502 -0.50660894672E+02  0.81719914681E+02 -0.21228488776E+03  0.23309147191E+03  0.47000000000E+01 0.  1.
         13    1    6    6    0    0 -0.83477130030E+02  0.49931642435E+02 -0.13418945167E+03  0.16573596199E+03  0.00000000000E+00 0. -1.
        -14    1    6    6    0    0 -0.10150646379E+03  0.35837610340E+02 -0.42586814115E+02  0.11576499143E+03  0.00000000000E+00 0.  1.
</event>
<event>
12    1  0.1061634E+000  0.1873618E+03  0.7818608E-02  0.1162028E+00
         21   -1    0    0  501  502  0.00000000000E+00  0.00000000000E+00  0.34883904871E+03  0.34883904871E+03  0.00000000000E+00 0.  1.
         21   -1    0    0  502  503 -0.00000000000E+00 -0.00000000000E+00 -0.10443446006E+03  0.10443446006E+03  0.00000000000E+00 0.  1.
         -6    2    1    2    0  503  0.58082304920E+02 -0.18749080823E+02  0.64246220330E+02  0.19334760546E+03  0.17184480654E+03 0.  0.
        -24    2    3    3    0    0  0.76410766354E+02 -0.65397705457E+02  0.27910616048E+02  0.13126384899E+03  0.79597301906E+02 0.  0.
          6    2    1    2  501    0 -0.58082304920E+02  0.18749080823E+02  0.18015836833E+03  0.25992590330E+03  0.17714218965E+03 0.  0.
         24    2    5    5    0    0  0.26789336728E+02  0.45442349358E+02  0.75778107499E+02  0.12269232508E+03  0.80798572886E+02 0.  0.
          5    1    5    5  501    0 -0.84871641648E+02 -0.26693268534E+02  0.10438026083E+03  0.13723357822E+03  0.47000000000E+01 0. -1.
        -13    1    6    6    0    0  0.36169959077E+02  0.60166978937E+02  0.78174924704E+02  0.10506973944E+03  0.00000000000E+00 0.  1.
         14    1    6    6    0    0 -0.93806223493E+01 -0.14724629579E+02 -0.23968172051E+01  0.17622585639E+02  0.00000000000E+00 0. -1.
         -5    1    3    3    0  503 -0.18328461434E+02  0.46648624633E+02  0.36335604283E+02  0.62083756469E+02  0.47000000000E+01 0.  1.
         11    1    4    4    0    0  0.37298685852E+02  0.12321095975E+02  0.19493771742E+02  0.43852120918E+02  0.00000000000E+00 0. -1.
        -12    1    4    4    0    0  0.39112080502E+02 -0.77718801431E+02  0.84168443061E+01  0.87411728076E+02  0.00000000000E+00 0.  1.
</event>
<event>
12    1  0.1061634E+000  0.2032764E+03  0.7818608E-02  0.1147090E+00
         21   -1    0    0  503  502  0.00000000000E+00  0.00000000000E+00  0.12116395576E+03  0.12116395576E+03  0.00000000000E+00 0. -1.
         21   -1    0    0  501  503 -0.00000000000E+00 -0.00000000000E+00 -0.43479582381E+03  0.43479582381E+03  0.00000000000E+00 0. -1.
          6    2    1    2  501    0 -0.37001972319E+02 -0.10081079910E+03 -0.27121416908E+02  0.20466287503E+03  0.17210275416E+03 0.  0.
         24    2    3    3    0    0 -0.48304156930E+02 -0.54497146809E+02 -0.78608724271E+02  0.13433701503E+03  0.81017723294E+02 0.  0.
         -6    2    1    2    0  502  0.37001972319E+02  0.10081079910E+03 -0.28651045114E+03  0.35129690454E+03  0.17259580920E+03 0.  0.
        -24    2    5    5    0    0  0.92220220244E+02  0.82493964695E+02 -0.21984294211E+03  0.26268986144E+03  0.73247668038E+02 0.  0.
          5    1    3    3  501    0  0.11302184611E+02 -0.46313652287E+02  0.51487307363E+02  0.70325860000E+02  0.47000000000E+01 0. -1.
        -11    1    4    4    0    0  0.14840273928E+02 -0.52879056363E+01 -0.44703581502E+02  0.47398374185E+02  0.00000000000E+00 0.  1.
         12    1    4    4    0    0 -0.63144430858E+02 -0.49209241173E+02 -0.33905142770E+02  0.86938640842E+02  0.00000000000E+00 0. -1.
         -5    1    5    5    0  502 -0.55218247925E+02  0.18316834401E+02 -0.66667509032E+02  0.88607043100E+02  0.47000000000E+01 0.  1.
         11    1    6    6    0    0  0.45023571328E+02  0.30837555313E+01 -0.11164722078E+03  0.12042314325E+03  0.00000000000E+00 0. -1.
        -12    1    6    6    0    0  0.47196648916E+02  0.79410209164E+02 -0.10819572133E+03  0.14226671818E+03  0.00000000000E+00 0.  1.
</event>
<event>
12    1  0.1061634E+000  0.1772196E+03  0.7818608E-02  0.1171038E+00
         21   -1    0    0  501  502  0.00000000000E+00  0.00000000000E+00  0.65190617854E+03  0.65190617854E+03  0.00000000000E+00 0.  1.
         21   -1    0    0  502  503 -0.00000000000E+00 -0.00000000000E+00 -0.80612844900E+02  0.80612844900E+02  0.00000000000E+00 0.  1.
         -6    2    1    2    0  503  0.17508715657E+02 -0.30042931273E+02  0.51898569401E+03  0.54774116057E+03  0.17165399953E+03 0.  0.
        -24    2    3    3    0    0  0.52703883212E+02 -0.38926258750E+02  0.49083871494E+03  0.50156805415E+03  0.79717726567E+02 0.  0.
          6    2    1    2  501    0 -0.17508715657E+02  0.30042931273E+02  0.52307639632E+02  0.18477786287E+03  0.17377467192E+03 0.  0.
         24    2    5    5    0    0 -0.68623237815E+02  0.38320107662E+02  0.22674160587E+01  0.11261610014E+03  0.80620502459E+02 0.  0.
          5    1    5    5  501    0  0.51114522159E+02 -0.82771763892E+01  0.50040223573E+02  0.72161762726E+02  0.47000000000E+01 0. -1.
        -11    1    6    6    0    0 -0.53752779835E+01  0.23731904740E+02  0.32836253320E+02  0.40869505112E+02  0.00000000000E+00 0.  1.
         12    1    6    6    0    0 -0.63247959832E+02  0.14588202922E+02 -0.30568837261E+02  0.71746595033E+02  0.00000000000E+00 0. -1.
         -5    1    3    3    0  503 -0.35195167555E+02  0.88833274772E+01  0.28146979069E+02  0.46173106425E+02  0.47000000000E+01 0.  1.
         11    1    4    4    0    0 -0.15029766009E+02 -0.31659916172E+02  0.16210254895E+03  0.16584776313E+03  0.00000000000E+00 0. -1.
        -12    1    4    4    0    0  0.67733649220E+02 -0.72663425781E+01  0.32873616599E+03  0.33572029102E+03  0.00000000000E+00 0.  1.
</event>
<event>
12    1  0.1061634E+000  0.2908032E+03  0.7818608E-02  0.1090114E+00
         21   -1    0    0  501  502  0.00000000000E+00  0.00000000000E+00  0.38691774168E+03  0.38691774168E+03  0.00000000000E+00 0.  1.
         21   -1    0    0  502  503 -0.00000000000E+00 -0.00000000000E+00 -0.22052412357E+03  0.22052412357E+03  0.00000000000E+00 0.  1.
         -6    2    1    2    0  503 -0.19322130061E+03  0.13001654537E+03  0.47468951328E+02  0.29326103595E+03  0.17178463489E+03 0.  0.
        -24    2    3    3    0    0 -0.45696905780E+02  0.60278751825E+00  0.18372340823E+02  0.94816911484E+02  0.81019338713E+02 0.  0.
          6    2    1    2  501    0  0.19322130061E+03 -0.13001654537E+03  0.11892466678E+03  0.31418082930E+03  0.17414862633E+03 0.  0.
         24    2    5    5    0    0  0.16568661215E+03 -0.80929170531E+02  0.22617887052E+02  0.20253489226E+03  0.80667401588E+02 0.  0.
          5    1    5    5  501    0  0.27534688456E+02 -0.49087374843E+02  0.96306779724E+02  0.11164593704E+03  0.47000000000E+01 0. -1.
        -13    1    6    6    0    0  0.11128569820E+02 -0.38044247177E+02 -0.43856301222E+01  0.39880365609E+02  0.00000000000E+00 0.  1.
         14    1    6    6    0    0  0.15455804233E+03 -0.42884923354E+02  0.27003517174E+02  0.16265452665E+03  0.00000000000E+00 0. -1.
         -5    1    3    3    0  503 -0.14752439483E+03  0.12941375785E+03  0.29096610505E+02  0.19844412446E+03  0.47000000000E+01 0.  1.
         13    1    4    4    0    0  0.95178553923E+00 -0.22251090104E+02  0.33934101739E+02  0.40589902283E+02  0.00000000000E+00 0. -1.
        -14    1    4    4    0    0 -0.46648691319E+02  0.22853877622E+02 -0.15561760915E+02  0.54227009201E+02  0.00000000000E+00 0.  1.
</event>
<event>
12    1  0.1061634E+000  0.3004531E+03  0.7818608E-02  0.1085112E+00
         21   -1    0    0  503  502  0.00000000000E+00  0.00000000000E+00  0.12308096311E+03  0.12308096311E+03  0.00000000000E+00 0.  1.
         21   -1    0    0  501  503 -0.00000000000E+00 -0.00000000000E+00 -0.91585313378E+03  0.91585313378E+03  0.00000000000E+00 0.  1.
          6    2    1    2  501    0  0.24363673606E+03  0.32193789678E+02 -0.62901798378E+03  0.69675356323E+03  0.17148354062E+03 0.  0.
         24    2    3    3    0    0  0.14325937813E+03  0.88579073831E+02 -0.40290380788E+03  0.44297290046E+03  0.74323686620E+02 0.  0.
         -6    2    1    2    0  502 -0.24363673606E+03 -0.32193789678E+02 -0.16375418689E+03  0.34218053366E+03  0.17284902267E+03 0.  0.
        -24    2    5    5    0    0 -0.26195326507E+03 -0.23719608694E+02 -0.13362326719E+03  0.30561184076E+03  0.79757675243E+02 0.  0.
          5    1    3    3  501    0  0.10037735793E+03 -0.56385284153E+02 -0.22611417590E+03  0.25378066277E+03  0.47000000000E+01 0. -1.
        -13    1    4    4    0    0  0.31919786297E+02  0.54965244305E+01 -0.15913439824E+03  0.16239717129E+03  0.00000000000E+00 0.  1.
         14    1    4    4    0    0  0.11133959183E+03  0.83082549401E+02 -0.24376940964E+03  0.28057572917E+03  0.00000000000E+00 0. -1.
         -5    1    5    5    0  502  0.18316529008E+02 -0.84741809843E+01 -0.30130919700E+02  0.36568692898E+02  0.47000000000E+01 0.  1.
         11    1    6    6    0    0 -0.13864440555E+03  0.92482936653E+01 -0.10662543963E+03  0.17514789894E+03  0.00000000000E+00 0. -1.
        -12    1    6    6    0    0 -0.12330885952E+03 -0.32967902359E+02 -0.26997827557E+02  0.13046394182E+03  0.00000000000E+00 0.  1.
</event>
<event>
12    1  0.1358789E+000  0.2125642E+03  0.7818608E-02  0.1142349E+00
         21   -1    0    0  501  502  0.00000000000E+00  0.00000000000E+00  0.35255316027E+03  0.35255316027E+03  0.00000000000E+00 0.  1.
         21   -1    0    0  502  503 -0.00000000000E+00 -0.00000000000E+00 -0.21154099657E+03  0.21154099657E+03  0.00000000000E+00 0.  1.
         -6    2    1    2    0  503  0.48443613245E+02  0.87893693685E+02  0.25469113130E+03  0.32304135419E+03  0.17151110488E+03 0.  0.
        -24    2    3    3    0    0  0.81574357526E+02  0.93001576020E+02  0.13211618550E+03  0.19587829345E+03  0.74899602307E+02 0.  0.
          6    2    1    2  501    0 -0.48443613245E+02 -0.87893693685E+02 -0.11367896760E+03  0.24105280265E+03  0.18738052444E+03 0.  0.
         24    2    5    5    0    0  0.57632584568E+01 -0.64434881522E+02  0.92740217652E+01  0.10456753458E+03  0.81628994259E+02 0.  0.
          5    1    5    5  501    0 -0.54206871702E+02 -0.23458812164E+02 -0.12295298936E+03  0.13648526807E+03  0.47000000000E+01 0. -1.
        -11    1    6    6    0    0  0.38315139235E+02 -0.22656180761E+02 -0.14077020354E+02  0.46685275230E+02  0.00000000000E+00 0.  1.
         12    1    6    6    0    0 -0.32551880778E+02 -0.41778700761E+02  0.23351042119E+02  0.57882259350E+02  0.00000000000E+00 0. -1.
         -5    1    3    3    0  503 -0.33130744281E+02 -0.51078823345E+01  0.12257494579E+03  0.12716306073E+03  0.47000000000E+01 0.  1.
         11    1    4    4    0    0  0.37962018950E+02  0.15000074492E+02  0.86268663875E+02  0.95437935248E+02  0.00000000000E+00 0. -1.
        -12    1    4    4    0    0  0.43612338576E+02  0.78001501528E+02  0.45847521627E+02  0.10044035820E+03  0.00000000000E+00 0.  1.
</event>
<event>
12    1  0.1061634E+000  0.2594844E+03  0.7818608E-02  0.1107723E+00
         21   -1    0    0  503  502  0.00000000000E+00  0.00000000000E+00  0.15256508615E+04  0.15256508615E+04  0.00000000000E+00 0.  1.
         21   -1    0    0  501  503 -0.00000000000E+00 -0.00000000000E+00 -0.44078581929E+02  0.44078581929E+02  0.00000000000E+00 0.  1.
          6    2    1    2  501    0  0.14412703238E+03 -0.12630712935E+03  0.68449805587E+03  0.73203125802E+03  0.17494593979E+03 0.  0.
         24    2    3    3    0    0  0.32127096568E+02 -0.11958419455E+03  0.39870626389E+03  0.42496738546E+03  0.79360342211E+02 0.  0.
         -6    2    1    2    0  502 -0.14412703238E+03  0.12630712935E+03  0.79707422374E+03  0.83769818544E+03  0.17229288828E+03 0.  0.
        -24    2    5    5    0    0 -0.16921406681E+02  0.92743012321E+01  0.31126587411E+03  0.32203376294E+03  0.80292922587E+02 0.  0.
          5    1    3    3  501    0  0.11199993581E+03 -0.67229347965E+01  0.28579179198E+03  0.30706387257E+03  0.47000000000E+01 0. -1.
        -11    1    4    4    0    0  0.43728840475E+01 -0.27532586688E+02  0.22248228025E+03  0.22422205617E+03  0.00000000000E+00 0.  1.
         12    1    4    4    0    0  0.27754212521E+02 -0.92051607865E+02  0.17622398364E+03  0.20074532929E+03  0.00000000000E+00 0. -1.
         -5    1    5    5    0  502 -0.12720562570E+03  0.11703282812E+03  0.48580834963E+03  0.51566442250E+03  0.47000000000E+01 0.  1.
         11    1    6    6    0    0 -0.37986139667E+02  0.32085403223E+02  0.22268156645E+03  0.22816550997E+03  0.00000000000E+00 0. -1.
        -12    1    6    6    0    0  0.21064732986E+02 -0.22811101991E+02  0.88584307664E+02  0.93868252962E+02  0.00000000000E+00 0.  1.
</event>
<event>
12    1  0.1061634E+000  0.2034498E+03  0.7818608E-02  0.1146941E+00
         21   -1    0    0  501  502  0.00000000000E+00  0.00000000000E+00  0.82304590047E+02  0.82304590047E+02  0.00000000000E+00 0.  1.
         21   -1    0    0  502  503 -0.00000000000E+00 -0.00000000000E+00 -0.50226617254E+03  0.50226617254E+03  0.00000000000E+00 0.  1.
         -6    2    1    2    0  503 -0.97557249979E+02  0.44037769194E+02 -0.20242436960E+03  0.28672136147E+03  0.17255947257E+03 0.  0.
        -24    2    3    3    0    0  0.13354618719E+02  0.36693738114E+02 -0.10453185919E+03  0.13853090630E+03  0.82092180837E+02 0.  0.
          6    2    1    2  501    0  0.97557249979E+02 -0.44037769194E+02 -0.21753721289E+03  0.29784940112E+03  0.17301758470E+03 0.  0.
         24    2    5    5    0    0  0.75112153255E+02 -0.18510860630E+02 -0.23494015915E+03  0.25937398084E+03  0.78060848235E+02 0.  0.
          5    1    5    5  501    0  0.22445096724E+02 -0.25526908564E+02  0.17402946253E+02  0.38475420285E+02  0.47000000000E+01 0. -1.
        -11    1    6    6    0    0  0.84365271572E+02 -0.11618930326E+02 -0.14096007263E+03  0.16468831369E+03  0.00000000000E+00 0.  1.
         12    1    6    6    0    0 -0.92531183167E+01 -0.68919303033E+01 -0.93980086513E+02  0.94685667146E+02  0.00000000000E+00 0. -1.
         -5    1    3    3    0  503 -0.11091186870E+03  0.73440310798E+01 -0.97892510409E+02  0.14819045517E+03  0.47000000000E+01 0.  1.
         11    1    4    4    0    0  0.29383301450E+02 -0.66458229996E+01 -0.81522158834E+02  0.86910343161E+02  0.00000000000E+00 0. -1.
        -12    1    4    4    0    0 -0.16028682731E+02  0.43339561113E+02 -0.23009700360E+02  0.51620563134E+02  0.00000000000E+00 0.  1.
</event>
<event>
12    1  0.1061634E+000  0.1728284E+03  0.7818608E-02  0.1175003E+00
         21   -1    0    0  503  502  0.00000000000E+00  0.00000000000E+00  0.44034708369E+03  0.44034708369E+03  0.00000000000E+00 0. -1.
         21   -1    0    0  501  503 -0.00000000000E+00 -0.00000000000E+00 -0.76597328192E+02  0.76597328192E+02  0.00000000000E+00 0. -1.
          6    2    1    2  501    0  0.12388587692E+02  0.41048252881E+01  0.94013724646E+02  0.19674412322E+03  0.17233497295E+03 0.  0.
         24    2    3    3    0    0  0.59779070316E+02 -0.38785060112E+02  0.44718706270E+02  0.11588938341E+03  0.79704255599E+02 0.  0.
         -6    2    1    2    0  502 -0.12388587692E+02 -0.41048252881E+01  0.26973603085E+03  0.32020028866E+03  0.17204758593E+03 0.  0.
        -24    2    5    5    0    0 -0.33234607840E+02 -0.63593174465E+02  0.18621184354E+03  0.21545392782E+03  0.81221384758E+02 0.  0.
          5    1    3    3  501    0 -0.47390482624E+02  0.42889885400E+02  0.49295018377E+02  0.80854739810E+02  0.47000000000E+01 0. -1.
        -13    1    4    4    0    0  0.31610564781E+02  0.20505292683E+02  0.31086227979E+02  0.48847194431E+02  0.00000000000E+00 0.  1.
         14    1    4    4    0    0  0.28168505534E+02 -0.59290352795E+02  0.13632478291E+02  0.67042188978E+02  0.00000000000E+00 0. -1.
         -5    1    5    5    0  502  0.20846020149E+02  0.59488349177E+02  0.83524187315E+02  0.10474636085E+03  0.47000000000E+01 0.  1.
         13    1    6    6    0    0 -0.27851482995E+02 -0.37850469661E+02  0.18302541652E+03  0.18896207622E+03  0.00000000000E+00 0. -1.
        -14    1    6    6    0    0 -0.53831248448E+01 -0.25742704804E+02  0.31864270163E+01  0.26491851594E+02  0.00000000000E+00 0.  1.
</event>
<event>
12    1  0.1061634E+000  0.2915863E+03  0.7818608E-02  0.1089910E+00
         21   -1    0    0  503  502  0.00000000000E+00  0.00000000000E+00  0.91322458772E+02  0.91322458772E+02  0.00000000000E+00 0. -1.
         21   -1    0    0  501  503 -0.00000000000E+00 -0.00000000000E+00 -0.92316757631E+03  0.92316757631E+03  0.00000000000E+00 0. -1.
          6    2    1    2  501    0 -0.16273712055E+03  0.16661891224E+03 -0.43906111755E+03  0.52706474494E+03  0.17543474027E+03 0.  0.
         24    2    3    3    0    0 -0.32733556237E+02  0.10498869768E+03 -0.14171430746E+03  0.19670671862E+03  0.80724691816E+02 0.  0.
         -6    2    1    2    0  502  0.16273712055E+03 -0.16661891224E+03 -0.39278399999E+03  0.48742529014E+03  0.17046674311E+03 0.  0.
        -24    2    5    5    0    0  0.16135729292E+03 -0.13086736506E+03 -0.22879693734E+03  0.31951482661E+03  0.81112530886E+02 0.  0.
          5    1    3    3  501    0 -0.13000356431E+03  0.61630214557E+02 -0.29734681009E+03  0.33035802632E+03  0.47000000000E+01 0. -1.
        -11    1    4    4    0    0 -0.56333034299E+02  0.93363022260E+02 -0.10371004405E+03  0.15048534120E+03  0.00000000000E+00 0.  1.
         12    1    4    4    0    0  0.23599478062E+02  0.11625675418E+02 -0.38004263410E+02  0.46221377425E+02  0.00000000000E+00 0. -1.
         -5    1    5    5    0  502  0.13798276241E+01 -0.35751547172E+02 -0.16398706265E+03  0.16791046354E+03  0.47000000000E+01 0.  1.
         13    1    6    6    0    0  0.13165928951E+03 -0.57105410345E+02 -0.14654987404E+03  0.20511475322E+03  0.00000000000E+00 0. -1.
        -14    1    6    6    0    0  0.29698003413E+02 -0.73761954718E+02 -0.82247063302E+02  0.11440007339E+03  0.00000000000E+00 0.  1.
</event>
<event>
12    1  0.1829565E+000  0.5955434E+03  0.7818608E-02  0.9915186E-01
         21   -1    0    0  501  502  0.00000000000E+00  0.00000000000E+00  0.16919958522E+04  0.16919958522E+04  0.00000000000E+00 0. -1.
         21   -1    0    0  502  503 -0.00000000000E+00 -0.00000000000E+00 -0.57806721567E+03  0.57806721567E+03  0.00000000000E+00 0.  1.
         -6    2    1    2    0  503 -0.27918754454E+03 -0.49686677305E+03  0.14636933945E+04  0.15802120896E+04  0.17277042483E+03 0.  0.
        -24    2    3    3    0    0 -0.11465322238E+03 -0.32813538332E+03  0.95416265740E+03  0.10187982608E+04  0.81886068935E+02 0.  0.
          6    2    1    2  501    0  0.27918754454E+03  0.49686677305E+03 -0.34976475795E+03  0.68985097834E+03  0.16951905859E+03 0.  0.
         24    2    5    5    0    0  0.57852187654E+02  0.18608585656E+03 -0.85171135997E+02  0.22551705427E+03  0.75026646816E+02 0.  0.
          5    1    5    5  501    0  0.22133535689E+03  0.31078091649E+03 -0.26459362195E+03  0.46433392407E+03  0.47000000000E+01 0. -1.
        -13    1    6    6    0    0 -0.11723008025E+02  0.67192991125E+02 -0.46111684230E+02  0.82332341131E+02  0.00000000000E+00 0.  1.
         14    1    6    6    0    0  0.69575195679E+02  0.11889286544E+03 -0.39059451767E+02  0.14318471314E+03  0.00000000000E+00 0. -1.
         -5    1    3    3    0  503 -0.16453432215E+03 -0.16873138972E+03  0.50953073710E+03  0.56141382874E+03  0.47000000000E+01 0.  1.
         11    1    4    4    0    0 -0.12020939656E+03 -0.23911450626E+03  0.73274499961E+03  0.78009055922E+03  0.00000000000E+00 0. -1.
        -12    1    4    4    0    0  0.55561741752E+01 -0.89020877063E+02  0.22141765778E+03  0.23870770160E+03  0.00000000000E+00 0.  1.
</event>
<event>
12    1  0.1061634E+000  0.1929035E+03  0.7818608E-02  0.1155928E+00
         21   -1    0    0  503  502  0.00000000000E+00  0.00000000000E+00  0.13453494811E+03  0.13453494811E+03  0.00000000000E+00 0.  1.
         21   -1    0    0  501  503 -0.00000000000E+00 -0.00000000000E+00 -0.47000249439E+03  0.47000249439E+03  0.00000000000E+00 0.  1.
          6    2    1    2  501    0  0.87436508167E+02 -0.95610072553E+01  0.26291481489E+02  0.19468692785E+03  0.17168343560E+03 0.  0.
         24    2    3    3    0    0  0.46016759483E+01  0.11078126609E+02  0.63062055497E+02  0.10161841337E+03  0.78775496073E+02 0.  0.
         -6    2    1    2    0  502 -0.87436508167E+02  0.95610072553E+01 -0.36175902777E+03  0.40985051465E+03  0.17138055423E+03 0.  0.
        -24    2    5    5    0    0 -0.10089174218E+03  0.35330151760E+02 -0.17173525309E+03  0.21755850474E+03  0.80070859679E+02 0.  0.
          5    1    3    3  501    0  0.82834832219E+02 -0.20639133864E+02 -0.36770574008E+02  0.93068514484E+02  0.47000000000E+01 0. -1.
        -13    1    4    4    0    0 -0.93162792429E+01 -0.28233313480E+02  0.50249905066E+01  0.30152339521E+02  0.00000000000E+00 0.  1.
         14    1    4    4    0    0  0.13917955191E+02  0.39311440089E+02  0.58037064991E+02  0.71466073848E+02  0.00000000000E+00 0. -1.
         -5    1    5    5    0  502  0.13455234011E+02 -0.25769144505E+02 -0.19002377468E+03  0.19229200991E+03  0.47000000000E+01 0.  1.
         11    1    6    6    0    0 -0.29253165856E+02 -0.57756937123E+01 -0.11127336713E+03  0.11519925600E+03  0.00000000000E+00 0. -1.
        -12    1    6    6    0    0 -0.71638576322E+02  0.41105845472E+02 -0.60461885954E+02  0.10235924874E+03  0.00000000000E+00 0.  1.
</event>
<event>
12    1  0.1061634E+000  0.2596457E+03  0.7818608E-02  0.1107499E+00
         21   -1    0    0  501  502  0.00000000000E+00  0.00000000000E+00  0.16241888243E+03  0.16241888243E+03  0.00000000000E+00 0. -1.
         21   -1    0    0  502  503 -0.00000000000E+00 -0.00000000000E+00 -0.74679329624E+03  0.74679329624E+03  0.00000000000E+00 0. -1.
         -6    2    1    2    0  503 -0.46258162493E+02  0.18882660114E+03  0.11190694809E+02  0.25988679253E+03  0.17210639263E+03 0.  0.
        -24    2    3    3    0    0 -0.87802945008E+02  0.98314581175E+02  0.35399479717E+02  0.15728781602E+03  0.78174291692E+02 0.  0.
          6    2    1    2  501    0  0.46258162493E+02 -0.18882660114E+03 -0.59556510862E+03  0.64932538614E+03  0.17067617169E+03 0.  0.
         24    2    5    5    0    0 -0.31136472220E+02 -0.11536147977E+03 -0.41286993449E+03  0.43769677231E+03  0.82699037289E+02 0.  0.
          5    1    5    5  501    0  0.77394634713E+02 -0.73465121376E+02 -0.18269517413E+03  0.21162861383E+03  0.47000000000E+01 0. -1.
        -11    1    6    6    0    0 -0.36182868530E+02 -0.92358341869E+02 -0.19717322281E+03  0.22071824365E+03  0.00000000000E+00 0.  1.
         12    1    6    6    0    0  0.50463963094E+01 -0.23003137900E+02 -0.21569671168E+03  0.21697852866E+03  0.00000000000E+00 0. -1.
         -5    1    3    3    0  503  0.41544782515E+02  0.90512019970E+02 -0.24208784908E+02  0.10259897651E+03  0.47000000000E+01 0.  1.
         13    1    4    4    0    0 -0.47343952603E+02  0.33716677516E+01 -0.20266715294E+01  0.47507108826E+02  0.00000000000E+00 0. -1.
        -14    1    4    4    0    0 -0.40458992405E+02  0.94942913423E+02  0.37426151246E+02  0.10978070720E+03  0.00000000000E+00 0.  1.
</event>
<event>
12    1  0.1061634E+000  0.2615866E+03  0.7818608E-02  0.1106463E+00
         21   -1    0    0  501  502  0.00000000000E+00  0.00000000000E+00  0.82922657618E+02  0.82922657618E+02  0.00000000000E+00 0. -1.
         21   -1    0    0  502  503 -0.00000000000E+00 -0.00000000000E+00 -0.83175761233E+03  0.83175761233E+03  0.00000000000E+00 0. -1.
         -6    2    1    2    0  503 -0.15123553369E+03  0.12573322858E+03 -0.43115241126E+03  0.50430144879E+03  0.17247178928E+03 0.  0.
        -24    2    3    3    0    0 -0.31649360356E+02  0.99426822124E+02 -0.16045494995E+03  0.20716160725E+03  0.79263898377E+02 0.  0.
          6    2    1    2  501    0  0.15123553369E+03 -0.12573322858E+03 -0.31768254345E+03  0.41037882116E+03  0.16972786165E+03 0.  0.
         24    2    5    5    0    0  0.64169568798E+02 -0.15745325736E+01 -0.90093353311E+02  0.13685589066E+03  0.80576111757E+02 0.  0.
          5    1    5    5  501    0  0.87065964887E+02 -0.12415869601E+03 -0.22758919014E+03  0.27352293049E+03  0.47000000000E+01 0. -1.
        -11    1    6    6    0    0  0.26037852837E+02 -0.28968237806E+02 -0.79786616003E+02  0.88786444208E+02  0.00000000000E+00 0.  1.
         12    1    6    6    0    0  0.38131715961E+02  0.27393705233E+02 -0.10306737308E+02  0.48069446455E+02  0.00000000000E+00 0. -1.
         -5    1    3    3    0  503 -0.11958617333E+03  0.26306406460E+02 -0.27069746131E+03  0.29713984155E+03  0.47000000000E+01 0.  1.
         11    1    4    4    0    0 -0.27273345957E+02  0.11039122187E+03 -0.15869087397E+03  0.19522512837E+03  0.00000000000E+00 0. -1.
        -12    1    4    4    0    0 -0.43760143998E+01 -0.10964399748E+02 -0.17640759746E+01  0.11936478874E+02  0.00000000000E+00 0.  1.
</event>
<event>
12    1  0.1061634E+000  0.2121931E+03  0.7818608E-02  0.1140352E+00
         21   -1    0    0  503  502  0.00000000000E+00  0.00000000000E+00  0.73537467929E+03  0.73537467929E+03  0.00000000000E+00 0.  1.
         21   -1    0    0  501  503 -0.00000000000E+00 -0.00000000000E+00 -0.68627805818E+02  0.68627805818E+02  0.00000000000E+00 0.  1.
          6    2    1    2  501    0 -0.11627115102E+02  0.12042040352E+03  0.47369225601E+03  0.51904744079E+03  0.17432621432E+03 0.  0.
         24    2    3    3    0    0 -0.35247149013E+02  0.14105291954E+02  0.11808636449E+03  0.14710867025E+03  0.79090142303E+02 0.  0.
         -6    2    1    2    0  502  0.11627115102E+02 -0.12042040352E+03  0.19305461746E+03  0.28495504432E+03  0.17115206270E+03 0.  0.
        -24    2    5    5    0    0  0.53652399060E+02 -0.19623945505E+02  0.11004609113E+03  0.14770142547E+03  0.80261383943E+02 0.  0.
          5    1    3    3  501    0  0.23620033912E+02  0.10631511157E+03  0.35560589152E+03  0.37193877054E+03  0.47000000000E+01 0. -1.
        -13    1    4    4    0    0 -0.36442165023E+02  0.39399602088E+02  0.10650576711E+03  0.11926373491E+03  0.00000000000E+00 0.  1.
         14    1    4    4    0    0  0.11950160099E+01 -0.25294310134E+02  0.11580597375E+02  0.27844935338E+02  0.00000000000E+00 0. -1.
         -5    1    5    5    0  502 -0.42025283959E+02 -0.10079645802E+03  0.83008526336E+02  0.13725361884E+03  0.47000000000E+01 0.  1.
         11    1    6    6    0    0  0.39550604962E+02 -0.27972725529E+00  0.48874078400E+01  0.39852419696E+02  0.00000000000E+00 0. -1.
        -12    1    6    6    0    0  0.14101794098E+02 -0.19344218250E+02  0.10515868329E+03  0.10784900578E+03  0.00000000000E+00 0.  1.
</event>
<event>
12    1  0.1061634E+000  0.2009909E+03  0.7818608E-02  0.1152843E+00
         21   -1    0    0  503  502  0.00000000000E+00  0.00000000000E+00  0.11377301806E+03  0.11377301806E+03  0.00000000000E+00 0.  1.
         21   -1    0    0  501  503 -0.00000000000E+00 -0.00000000000E+00 -0.65436039790E+03  0.65436039790E+03  0.00000000000E+00 0.  1.
          6    2    1    2  501    0  0.46133813733E+02 -0.42453855188E+02 -0.53672849350E+03  0.56710542722E+03  0.17204775867E+03 0.  0.
         24    2    3    3    0    0  0.43860899951E+01  0.33357565381E+02 -0.17664773996E+03  0.19674009003E+03  0.79813996503E+02 0.  0.
         -6    2    1    2    0  502 -0.46133813733E+02  0.42453855188E+02 -0.38588863441E+01  0.20102798874E+03  0.19096256875E+03 0.  0.
        -24    2    5    5    0    0 -0.14901104729E+02  0.40695106453E+02 -0.78634549219E+02  0.11983645551E+03  0.79367809141E+02 0.  0.
          5    1    3    3  501    0  0.41747723738E+02 -0.75811420569E+02 -0.36008075354E+03  0.37036533720E+03  0.47000000000E+01 0. -1.
        -13    1    4    4    0    0  0.19291241383E+02  0.38627283010E+02 -0.17567261147E+03  0.18090076121E+03  0.00000000000E+00 0.  1.
         14    1    4    4    0    0 -0.14905151388E+02 -0.52697176295E+01 -0.97512849183E+00  0.15839328817E+02  0.00000000000E+00 0. -1.
         -5    1    5    5    0  502 -0.31232709004E+02  0.17587487354E+01  0.74775662875E+02  0.81191533224E+02  0.47000000000E+01 0.  1.
         13    1    6    6    0    0  0.21729486351E+02  0.48301524536E+02 -0.44060875545E+02  0.68895345295E+02  0.00000000000E+00 0. -1.
        -14    1    6    6    0    0 -0.36630591080E+02 -0.76064180835E+01 -0.34573673674E+02  0.50941110218E+02  0.00000000000E+00 0.  1.
</event>
<event>
12    1  0.1061634E+000  0.1744102E+03  0.7818608E-02  0.1173468E+00
         21   -1    0    0  501  502  0.00000000000E+00  0.00000000000E+00  0.14079135024E+03  0.14079135024E+03  0.00000000000E+00 0. -1.
         21   -1    0    0  502  503 -0.00000000000E+00 -0.00000000000E+00 -0.22590899731E+03  0.22590899731E+03  0.00000000000E+00 0. -1.
         -6    2    1    2    0  503 -0.79142686866E+00  0.30089800830E+02 -0.82121601020E+02  0.19226438804E+03  0.17121803376E+03 0.  0.
        -24    2    3    3    0    0  0.37050993843E+02 -0.32642313975E+02 -0.21786867906E+02  0.97239459451E+02  0.80886018908E+02 0.  0.
          6    2    1    2  501    0  0.79142686866E+00 -0.30089800830E+02 -0.29960460431E+01  0.17443595951E+03  0.17179320478E+03 0.  0.
         24    2    5    5    0    0  0.53733980548E+02  0.60974748689E+01  0.31306826896E+02  0.10155791066E+03  0.80058553207E+02 0.  0.
          5    1    5    5  501    0 -0.52942553679E+02 -0.36187275699E+02 -0.34302872939E+02  0.72878048852E+02  0.47000000000E+01 0. -1.
        -11    1    6    6    0    0  0.46008264481E+01  0.82447434786E-01  0.48831119205E+02  0.49047452578E+02  0.00000000000E+00 0.  1.
         12    1    6    6    0    0  0.49133154100E+02  0.60150274342E+01 -0.17524292309E+02  0.52510458080E+02  0.00000000000E+00 0. -1.
         -5    1    3    3    0  503 -0.37842420712E+02  0.62732114805E+02 -0.60334733114E+02  0.95024928588E+02  0.47000000000E+01 0.  1.
         11    1    4    4    0    0 -0.23309669898E+02  0.73021146261E-02  0.45217843826E+01  0.23744205568E+02  0.00000000000E+00 0. -1.
        -12    1    4    4    0    0  0.60360663741E+02 -0.32649616090E+02 -0.26308652289E+02  0.73495253883E+02  0.00000000000E+00 0.  1.
</event>
<event>
12    1  0.1061634E+000  0.1748356E+03  0.7818608E-02  0.1173071E+00
         21   -1    0    0  503  502  0.00000000000E+00  0.00000000000E+00  0.61274297284E+03  0.61274297284E+03  0.00000000000E+00 0. -1.
         21   -1    0    0  501  503 -0.00000000000E+00 -0.00000000000E+00 -0.52335696098E+02  0.52335696098E+02  0.00000000000E+00 0. -1.
          6    2    1    2  501    0  0.19672161130E+02  0.24104444737E+02  0.35444917710E+03  0.39491905080E+03  0.17134415474E+03 0.  0.
         24    2    3    3    0    0  0.37593455346E+02  0.46259430384E+02  0.35213817348E+03  0.36594584054E+03  0.79761282605E+02 0.  0.
         -6    2    1    2    0  502 -0.19672161130E+02 -0.24104444737E+02  0.20595809965E+03  0.27015961814E+03  0.17204494262E+03 0.  0.
        -24    2    5    5    0    0  0.14932861083E+02 -0.72197151497E+02  0.95718715858E+02  0.14491893887E+03  0.80025041407E+02 0.  0.
          5    1    3    3  501    0 -0.17921294216E+02 -0.22154985647E+02  0.23110036206E+01  0.28973210266E+02  0.47000000000E+01 0. -1.
        -13    1    4    4    0    0  0.16661357613E+02 -0.12278202125E+02  0.22805318243E+02  0.30796714518E+02  0.00000000000E+00 0.  1.
         14    1    4    4    0    0  0.20932097733E+02  0.58537632509E+02  0.32933285523E+03  0.33514912602E+03  0.00000000000E+00 0. -1.
         -5    1    5    5    0  502 -0.34605022213E+02  0.48092706760E+02  0.11023938379E+03  0.12524067927E+03  0.47000000000E+01 0.  1.
         11    1    6    6    0    0  0.22527353585E+01 -0.47099292622E+02  0.21343908389E+01  0.47201417419E+02  0.00000000000E+00 0. -1.
        -12    1    6    6    0    0  0.12680125724E+02 -0.25097858875E+02  0.93584325019E+02  0.97717521447E+02  0.00000000000E+00 0.  1.
</event>
<event>
12    1  0.1061634E+000  0.1866037E+03  0.7818608E-02  0.1163516E+00
         21   -1    0    0  501  502  0.00000000000E+00  0.00000000000E+00  0.18674814027E+04  0.18674814027E+04  0.00000000000E+00 0.  1.
         21   -1    0    0  502  503 -0.00000000000E+00 -0.00000000000E+00 -0.19003667185E+02  0.19003667185E+02  0.00000000000E+00 0.  1.
         -6    2    1    2    0  503 -0.45123544033E+02  0.54475166459E+02  0.67013128698E+03  0.69345476691E+03  0.16370673159E+03 0.  0.
        -24    2    3    3    0    0 -0.13708589874E+01 -0.28395408851E+02  0.32615691981E+03  0.33691264461E+03  0.79521162339E+02 0.  0.
          6    2    1    2  501    0  0.45123544033E+02 -0.54475166459E+02  0.11783464485E+04  0.11930303029E+04  0.17267678786E+03 0.  0.
         24    2    5    5    0    0  0.69390382613E+02 -0.92465980965E+02  0.81159063594E+03  0.82348450404E+03  0.77989648121E+02 0.  0.
          5    1    5    5  501    0 -0.24266838581E+02  0.37990814506E+02  0.36675581257E+03  0.36954579891E+03  0.47000000000E+01 0. -1.
        -13    1    6    6    0    0  0.16571605941E+02 -0.13562136003E+02  0.34436785888E+02  0.40551718567E+02  0.00000000000E+00 0.  1.
         14    1    6    6    0    0  0.52818776673E+02 -0.78903844963E+02  0.77715385005E+03  0.78293278547E+03  0.00000000000E+00 0. -1.
         -5    1    3    3    0  503 -0.43752685046E+02  0.82870575310E+02  0.34397436717E+03  0.35654212229E+03  0.47000000000E+01 0.  1.
         11    1    4    4    0    0 -0.11315695151E+01  0.27119609114E+01 -0.41825606919E+01  0.51116529122E+01  0.00000000000E+00 0. -1.
        -12    1    4    4    0    0 -0.23928947228E+00 -0.31107369763E+02  0.33033948051E+03  0.33180099170E+03  0.00000000000E+00 0.  1.
</event>
<event>
12    1  0.1061634E+000  0.2540438E+03  0.7818608E-02  0.1110782E+00
         21   -1    0    0  503  502  0.00000000000E+00  0.00000000000E+00  0.15308718269E+03  0.15308718269E+03  0.00000000000E+00 0.  1.
         21   -1    0    0  501  503 -0.00000000000E+00 -0.00000000000E+00 -0.42437241896E+03  0.42437241896E+03  0.00000000000E+00 0.  1.
          6    2    1    2  501    0 -0.88334754945E+02 -0.16505192582E+03 -0.11193904754E+03  0.27757720368E+03  0.17167873044E+03 0.  0.
         24    2    3    3    0    0 -0.35370663589E+01 -0.14460597604E+03 -0.83247883088E+02  0.18563179721E+03  0.81274565223E+02 0.  0.
         -6    2    1    2    0  502  0.88334754945E+02  0.16505192582E+03 -0.15934618872E+03  0.29988239797E+03  0.17173548732E+03 0.  0.
        -24    2    5    5    0    0  0.10961819711E+03  0.18103215962E+03 -0.13171267732E+03  0.26122940669E+03  0.78126702230E+02 0.  0.
          5    1    3    3  501    0 -0.84797688586E+02 -0.20445949779E+02 -0.28691164456E+02  0.91945406463E+02  0.47000000000E+01 0. -1.
        -13    1    4    4    0    0  0.12016643061E+02 -0.57425479971E+01 -0.35583424201E+02  0.37994165945E+02  0.00000000000E+00 0.  1.
         14    1    4    4    0    0 -0.15553709420E+02 -0.13886342805E+03 -0.47664458886E+02  0.14763763127E+03  0.00000000000E+00 0. -1.
         -5    1    5    5    0  502 -0.21283442162E+02 -0.15980233796E+02 -0.27633511400E+02  0.38652991278E+02  0.47000000000E+01 0.  1.
         13    1    6    6    0    0  0.11275777389E+03  0.15163405423E+03 -0.87981044352E+02  0.20844151731E+03  0.00000000000E+00 0. -1.
        -14    1    6    6    0    0 -0.31395767866E+01  0.29398105393E+02 -0.43731632971E+02  0.52787889382E+02  0.00000000000E+00 0.  1.
</event>
<event>
12    1  0.1061634E+000  0.1854806E+03  0.7818608E-02  0.1162623E+00
         21   -1    0    0  501  502  0.00000000000E+00  0.00000000000E+00  0.52679716841E+02  0.52679716841E+02  0.00000000000E+00 0.  1.
         21   -1    0    0  502  503 -0.00000000000E+00 -0.00000000000E+00 -0.74110925489E+03  0.74110925489E+03  0.00000000000E+00 0.  1.
         -6    2    1    2    0  503 -0.22130083637E+02 -0.66732881253E+02 -0.48119452585E+03  0.51567135510E+03  0.17153937368E+03 0.  0.
        -24    2    3    3    0    0  0.18565142940E+02 -0.63878151965E+02 -0.15115917524E+03  0.18309102857E+03  0.79045212708E+02 0.  0.
          6    2    1    2  501    0  0.22130083637E+02  0.66732881253E+02 -0.20723501220E+03  0.27811761663E+03  0.17163927393E+03 0.  0.
         24    2    5    5    0    0 -0.46629605213E+02  0.21215936431E+02 -0.81034108815E+02  0.12729173990E+03  0.83739024439E+02 0.  0.
          5    1    5    5  501    0  0.68759688850E+02  0.45516944822E+02 -0.12620090339E+03  0.15082587673E+03  0.47000000000E+01 0. -1.
        -11    1    6    6    0    0 -0.42292682642E+01  0.26235063167E+02  0.86638012154E+01  0.27950432929E+02  0.00000000000E+00 0.  1.
         12    1    6    6    0    0 -0.42400336949E+02 -0.50191267361E+01 -0.89697910031E+02  0.99341306970E+02  0.00000000000E+00 0. -1.
         -5    1    3    3    0  503 -0.40695226576E+02 -0.28547292877E+01 -0.33003535061E+03  0.33258032654E+03  0.47000000000E+01 0.  1.
         13    1    4    4    0    0  0.30351875178E+02 -0.57563257342E+02 -0.15587380659E+03  0.16891242850E+03  0.00000000000E+00 0. -1.
        -14    1    4    4    0    0 -0.11786732238E+02 -0.63148946236E+01  0.47146313505E+01  0.14178600063E+02  0.00000000000E+00 0.  1.
</event>
<event>
12    1  0.1061634E+000  0.1974367E+03  0.7818608E-02  0.1152236E+00
         21   -1    0    0  501  502  0.00000000000E+00  0.00000000000E+00  0.52668474669E+02  0.52668474669E+02  0.00000000000E+00 0.  1.
         21   -1    0    0  502  503 -0.00000000000E+00 -0.00000000000E+00 -0.73974595974E+03  0.73974595974E+03  0.00000000000E+00 0.  1.
         -6    2    1    2    0  503  0.89994872655E+02 -0.80041403704E+01 -0.31184412474E+03  0.36909079013E+03  0.17555087541E+03 0.  0.
        -24    2    3    3    0    0  0.99716891542E+02  0.50075372446E+02 -0.22374238287E+03  0.26301650305E+03  0.81645732265E+02 0.  0.
          6    2    1    2  501    0 -0.89994872655E+02  0.80041403704E+01 -0.37523336033E+03  0.42332364428E+03  0.17389562885E+03 0.  0.
         24    2    5    5    0    0 -0.99848674929E+02  0.32873115352E+01 -0.14625533087E+03  0.19403698119E+03  0.79241175907E+02 0.  0.
          5    1    5    5  501    0  0.98538022739E+01  0.47168288351E+01 -0.22897802947E+03  0.22928666309E+03  0.47000000000E+01 0. -1.
        -13    1    6    6    0    0 -0.37016678873E+02 -0.14626789723E+02 -0.11483807376E+03  0.12153995507E+03  0.00000000000E+00 0.  1.
         14    1    6    6    0    0 -0.62831996056E+02  0.17914101258E+02 -0.31417257104E+02  0.72497026120E+02  0.00000000000E+00 0. -1.
         -5    1    3    3    0  503 -0.97220188869E+01 -0.58079512816E+02 -0.88101741867E+02  0.10607428708E+03  0.47000000000E+01 0.  1.
         13    1    4    4    0    0  0.44870559071E+02  0.68450266527E+01 -0.16692970123E+03  0.17299059690E+03  0.00000000000E+00 0. -1.
        -14    1    4    4    0    0  0.54846332471E+02  0.43230345793E+02 -0.56812681640E+02  0.90025906149E+02  0.00000000000E+00 0.  1.
</event>
<event>
12    1  0.1061634E+000  0.2931098E+03  0.7818608E-02  0.1088777E+00
         21   -1    0    0  503  502  0.00000000000E+00  0.00000000000E+00  0.12329526408E+03  0.12329526408E+03  0.00000000000E+00 0. -1.
         21   -1    0    0  501  503 -0.00000000000E+00 -0.00000000000E+00 -0.10716512570E+04  0.10716512570E+04  0.00000000000E+00 0. -1.
          6    2    1    2  501    0 -0.49169279967E+02 -0.23177612580E+03 -0.12030054519E+03  0.31654502473E+03  0.17201959460E+03 0.  0.
         24    2    3    3    0    0 -0.47368771550E+02 -0.49537313085E+02 -0.88865492601E+01  0.10288783394E+03  0.76218040573E+02 0.  0.
         -6    2    1    2    0  502  0.49169279967E+02  0.23177612580E+03 -0.82805544768E+03  0.87840149631E+03  0.17255600162E+03 0.  0.
        -24    2    5    5    0    0  0.49264658929E+02  0.14492477785E+03 -0.32800147115E+03  0.37083944573E+03  0.80664314164E+02 0.  0.
          5    1    3    3  501    0 -0.18005084172E+01 -0.18223881271E+03 -0.11141399593E+03  0.21365719080E+03  0.47000000000E+01 0. -1.
        -11    1    4    4    0    0 -0.25499461519E+02 -0.57480396729E+02 -0.31596790533E+02  0.70374538847E+02  0.00000000000E+00 0.  1.
         12    1    4    4    0    0 -0.21869310031E+02  0.79430836440E+01  0.22710241273E+02  0.32513295091E+02  0.00000000000E+00 0. -1.
         -5    1    5    5    0  502 -0.95378961907E-01  0.86851347945E+02 -0.50005397653E+03  0.50756205057E+03  0.47000000000E+01 0.  1.
         13    1    6    6    0    0  0.43961478812E+02  0.91892588860E+02 -0.12654141194E+03  0.16244872558E+03  0.00000000000E+00 0. -1.
        -14    1    6    6    0    0  0.53031801165E+01  0.53032188991E+02 -0.20146005921E+03  0.20839072015E+03  0.00000000000E+00 0.  1.
</event>
<event>
12    1  0.1061634E+000  0.2426812E+03  0.7818608E-02  0.1118100E+00
         21   -1    0    0  501  502  0.00000000000E+00  0.00000000000E+00  0.66950192296E+03  0.66950192296E+03  0.00000000000E+00 0.  1.
         21   -1    0    0  502  503 -0.00000000000E+00 -0.00000000000E+00 -0.89723424563E+02  0.89723424563E+02  0.00000000000E+00 0.  1.
         -6    2    1    2    0  503 -0.10346963266E+03  0.13945630742E+03  0.34589078044E+03  0.42253355228E+03  0.16952918404E+03 0.  0.
        -24    2    3    3    0    0 -0.43564371136E+02  0.14400200160E+03  0.30573403908E+03  0.35011837727E+03  0.80468282917E+02 0.  0.
          6    2    1    2  501    0  0.10346963266E+03 -0.13945630742E+03  0.23388771795E+03  0.33669179525E+03  0.16883090302E+03 0.  0.
         24    2    5    5    0    0  0.35312337286E+02 -0.13684540744E+03  0.10780459805E+03  0.19326489109E+03  0.75867384720E+02 0.  0.
          5    1    5    5  501    0  0.68157295372E+02 -0.26108999780E+01  0.12608311991E+03  0.14342690416E+03  0.47000000000E+01 0. -1.
        -11    1    6    6    0    0 -0.97718889898E+01 -0.26159186786E+02 -0.56314748718E+01  0.28486950994E+02  0.00000000000E+00 0.  1.
         12    1    6    6    0    0  0.45084226276E+02 -0.11068622066E+03  0.11343607292E+03  0.16477794009E+03  0.00000000000E+00 0. -1.
         -5    1    3    3    0  503 -0.59905261522E+02 -0.45456941836E+01  0.40156741367E+02  0.72415175004E+02  0.47000000000E+01 0.  1.
         11    1    4    4    0    0 -0.29942239779E+02  0.12094137400E+03  0.16445025155E+03  0.20631829512E+03  0.00000000000E+00 0. -1.
        -12    1    4    4    0    0 -0.13622131358E+02  0.23060627605E+02  0.14128378753E+03  0.14380008215E+03  0.00000000000E+00 0.  1.
</event>
<event>
12    1  0.1061634E+000  0.3196143E+03  0.7818608E-02  0.1075846E+00
         21   -1    0    0  501  502  0.00000000000E+00  0.00000000000E+00  0.21846963714E+03  0.21846963714E+03  0.00000000000E+00 0. -1.
         21   -1    0    0  502  503 -0.00000000000E+00 -0.00000000000E+00 -0.62791220714E+03  0.62791220714E+03  0.00000000000E+00 0. -1.
         -6    2    1    2    0  503 -0.26780585669E+03 -0.26309605415E+02 -0.41868423012E+03  0.52663399435E+03  0.17214734164E+03 0.  0.
        -24    2    3    3    0    0 -0.38642969352E+02 -0.12643099273E+02 -0.13566546344E+03  0.16218356614E+03  0.79026983473E+02 0.  0.
          6    2    1    2  501    0  0.26780585669E+03  0.26309605415E+02  0.92416601265E+01  0.31974784993E+03  0.17245610177E+03 0.  0.
         24    2    5    5    0    0  0.14173279726E+03  0.73188360265E+02  0.11804335460E+02  0.18513473291E+03  0.93224487637E+02 0.  0.
          5    1    5    5  501    0  0.12607305943E+03 -0.46878754850E+02 -0.25626753331E+01  0.13461311703E+03  0.47000000000E+01 0. -1.
        -11    1    6    6    0    0  0.15298090724E+03  0.76580630144E+02  0.17697304074E+02  0.17199112031E+03  0.00000000000E+00 0.  1.
         12    1    6    6    0    0 -0.11248109980E+02 -0.33922698781E+01 -0.58929686142E+01  0.13143612599E+02  0.00000000000E+00 0. -1.
         -5    1    3    3    0  503 -0.22916288734E+03 -0.13666506142E+02 -0.28301876668E+03  0.36445042820E+03  0.47000000000E+01 0.  1.
         11    1    4    4    0    0  0.15693833758E+02 -0.22013011902E+02 -0.18696376994E+02  0.32869798048E+02  0.00000000000E+00 0. -1.
        -12    1    4    4    0    0 -0.54336803110E+02  0.93699126284E+01 -0.11696908645E+03  0.12931376810E+03  0.00000000000E+00 0.  1.
</event>
<event>
12    1  0.1061634E+000  0.4829939E+03  0.7818608E-02  0.1018867E+00
         21   -1    0    0  501  502  0.00000000000E+00  0.00000000000E+00  0.29504047598E+03  0.29504047598E+03  0.00000000000E+00 0.  1.
         21   -1    0    0  502  503 -0.00000000000E+00 -0.00000000000E+00 -0.14711351780E+04  0.14711351780E+04  0.00000000000E+00 0.  1.
         -6    2    1    2    0  503  0.40756416040E+03 -0.18043538372E+03 -0.11969603021E+04  0.12907350941E+04  0.18605817866E+03 0.  0.
        -24    2    3    3    0    0  0.42214549274E+03 -0.17883038099E+03 -0.11314366018E+04  0.12234250905E+04  0.80206271259E+02 0.  0.
          6    2    1    2  501    0 -0.40756416040E+03  0.18043538372E+03  0.20865600087E+02  0.47544055985E+03  0.16414286503E+03 0.  0.
         24    2    5    5    0    0 -0.41631949376E+03  0.16564561652E+03  0.10272549732E+02  0.45471145490E+03  0.76789262176E+02 0.  0.
          5    1    5    5  501    0  0.87553333559E+01  0.14789767205E+02  0.10593050354E+02  0.20729104949E+02  0.47000000000E+01 0. -1.
        -11    1    6    6    0    0 -0.26932892915E+03  0.66915510153E+02  0.49505666532E+01  0.27756128275E+03  0.00000000000E+00 0.  1.
         12    1    6    6    0    0 -0.14699056461E+03  0.98730106363E+02  0.53219830790E+01  0.17715017214E+03  0.00000000000E+00 0. -1.
         -5    1    3    3    0  503 -0.14581332343E+02 -0.16050027266E+01 -0.65523700347E+02  0.67310003668E+02  0.47000000000E+01 0.  1.
         11    1    4    4    0    0  0.11294314649E+03 -0.85303270984E+02 -0.31148900458E+03  0.34213769502E+03  0.00000000000E+00 0. -1.
        -12    1    4    4    0    0  0.30920234626E+03 -0.93527110010E+02 -0.81994759717E+03  0.88128739543E+03  0.00000000000E+00 0.  1.
</event>
<event>
12    1  0.1061634E+000  0.3424964E+03  0.7818608E-02  0.1066179E+00
         21   -1    0    0  503  502  0.00000000000E+00  0.00000000000E+00  0.36504340357E+03  0.36504340357E+03  0.00000000000E+00 0. -1.
         21   -1    0    0  501  503 -0.00000000000E+00 -0.00000000000E+00 -0.36650006163E+03  0.36650006163E+03  0.00000000000E+00 0. -1.
          6    2    1    2  501    0 -0.13774798959E+03  0.26215528380E+03  0.13307753788E+03  0.36744174663E+03  0.17205785254E+03 0.  0.
         24    2    3    3    0    0 -0.95667692809E+02  0.26587276829E+03  0.13814135372E+03  0.32463633460E+03  0.80405719760E+02 0.  0.
         -6    2    1    2    0  502  0.13774798959E+03 -0.26215528380E+03 -0.13453419594E+03  0.36410171857E+03  0.16361757280E+03 0.  0.
        -24    2    5    5    0    0  0.10093941635E+03 -0.18245683730E+03 -0.15597057554E+03  0.27361237218E+03  0.84009800205E+02 0.  0.
          5    1    3    3  501    0 -0.42080296783E+02 -0.37174844963E+01 -0.50638158326E+01  0.42805412030E+02  0.47000000000E+01 0. -1.
        -11    1    4    4    0    0 -0.51466663749E+02  0.79562798324E+02  0.12414064505E+02  0.95567595722E+02  0.00000000000E+00 0.  1.
         12    1    4    4    0    0 -0.44201029061E+02  0.18630996997E+03  0.12572728921E+03  0.22906873888E+03  0.00000000000E+00 0. -1.
         -5    1    5    5    0  502  0.36808573247E+02 -0.79698446499E+02  0.21436379595E+02  0.90489346384E+02  0.47000000000E+01 0.  1.
         13    1    6    6    0    0 -0.23305734011E+01 -0.77191215520E+01  0.89777314366E+01  0.12067148448E+02  0.00000000000E+00 0. -1.
        -14    1    6    6    0    0  0.10326998975E+03 -0.17473771575E+03 -0.16494830697E+03  0.26154522374E+03  0.00000000000E+00 0.  1.
</event>
<event>
12    1  0.1061634E+000  0.1752139E+03  0.7818608E-02  0.1172595E+00
         21   -1    0    0  503  502  0.00000000000E+00  0.00000000000E+00  0.31246084470E+02  0.31246084470E+02  0.00000000000E+00 0.  1.
         21   -1    0    0  501  503 -0.00000000000E+00 -0.00000000000E+00 -0.16749654811E+04  0.16749654811E+04  0.00000000000E+00 0.  1.
          6    2    1    2  501    0 -0.32650771985E+02  0.56676674753E+01 -0.27307858499E+03  0.32445618932E+03  0.17205147440E+03 0.  0.
         24    2    3    3    0    0 -0.48123754944E+02 -0.49865814350E+02 -0.12032400219E+03  0.16111778792E+03  0.81722584705E+02 0.  0.
         -6    2    1    2    0  502  0.32650771985E+02 -0.56676674753E+01 -0.13706408116E+04  0.13817553762E+04  0.17173668769E+03 0.  0.
        -24    2    5    5    0    0  0.35492469931E+02 -0.10886860849E+02 -0.33473288330E+03  0.34581974059E+03  0.78529934808E+02 0.  0.
          5    1    3    3  501    0  0.15472982960E+02  0.55533481825E+02 -0.15275458280E+03  0.16333840140E+03  0.47000000000E+01 0. -1.
        -13    1    4    4    0    0 -0.13709483073E+02 -0.91061659821E+01  0.10713525833E+02  0.19638019778E+02  0.00000000000E+00 0.  1.
         14    1    4    4    0    0 -0.34414271871E+02 -0.40759648368E+02 -0.13103752802E+03  0.14147976814E+03  0.00000000000E+00 0. -1.
         -5    1    5    5    0  502 -0.28416979468E+01  0.52191933740E+01 -0.10359079283E+04  0.10359356356E+04  0.47000000000E+01 0.  1.
         11    1    6    6    0    0  0.25393495399E+02 -0.44631427695E+02 -0.21220597647E+03  0.21833041565E+03  0.00000000000E+00 0. -1.
        -12    1    6    6    0    0  0.10098974532E+02  0.33744566845E+02 -0.12252690683E+03  0.12748932495E+03  0.00000000000E+00 0.  1.
</event>
<event>
12    1  0.1061634E+000  0.2182029E+03  0.7818608E-02  0.1136071E+00
         21   -1    0    0  503  502  0.00000000000E+00  0.00000000000E+00  0.42350975479E+02  0.42350975479E+02  0.00000000000E+00 0.  1.
         21   -1    0    0  501  503 -0.00000000000E+00 -0.00000000000E+00 -0.11244116120E+04  0.11244116120E+04  0.00000000000E+00 0.  1.
          6    2    1    2  501    0  0.10337438506E+03  0.87823117696E+02 -0.62953282182E+03  0.66627626945E+03  0.17091907438E+03 0.  0.
         24    2    3    3    0    0  0.10056640261E+03 -0.16512851960E+01 -0.39913456619E+03  0.41905369819E+03  0.78621065657E+02 0.  0.
         -6    2    1    2    0  502 -0.10337438506E+03 -0.87823117696E+02 -0.45252781468E+03  0.50048631801E+03  0.16524517533E+03 0.  0.
        -24    2    5    5    0    0 -0.13105868464E+02 -0.27072245167E+02 -0.28515057027E+03  0.30079579358E+03  0.90898797928E+02 0.  0.
          5    1    3    3  501    0  0.28079824436E+01  0.89474402892E+02 -0.23039825564E+03  0.24722257126E+03  0.47000000000E+01 0. -1.
        -11    1    4    4    0    0  0.10077441914E+02 -0.12542621573E+01 -0.20074099430E+03  0.20099769850E+03  0.00000000000E+00 0.  1.
         12    1    4    4    0    0  0.90488960701E+02 -0.39702303868E+00 -0.19839357188E+03  0.21805599969E+03  0.00000000000E+00 0. -1.
         -5    1    5    5    0  502 -0.90268516594E+02 -0.60750872529E+02 -0.16737724441E+03  0.19969052443E+03  0.47000000000E+01 0.  1.
         11    1    6    6    0    0 -0.49400629586E+02 -0.23813351945E+02 -0.12415357719E+03  0.13572622688E+03  0.00000000000E+00 0. -1.
        -12    1    6    6    0    0  0.36294761122E+02 -0.32588932221E+01 -0.16099699308E+03  0.16506956670E+03  0.00000000000E+00 0.  1.
</event>
<event>
12    1  0.1061634E+000  0.1730240E+03  0.7818608E-02  0.1175261E+00
         21   -1    0    0  503  502  0.00000000000E+00  0.00000000000E+00  0.26666016778E+03  0.26666016778E+03  0.00000000000E+00 0.  1.
         21   -1    0    0  501  503 -0.00000000000E+00 -0.00000000000E+00 -0.10285650309E+04  0.10285650309E+04  0.00000000000E+00 0.  1.
          6    2    1    2  501    0 -0.74511476421E+00 -0.20579075423E+01  0.23049364090E+03  0.28820934625E+03  0.17301016903E+03 0.  0.
         24    2    3    3    0    0 -0.32076907480E+01 -0.69435697272E+02  0.11932688861E+03  0.15810950903E+03  0.76994189161E+02 0.  0.
         -6    2    1    2    0  502  0.74511476421E+00  0.20579075423E+01 -0.99239850404E+03  0.10070158525E+04  0.17094252280E+03 0.  0.
        -24    2    5    5    0    0  0.27049683636E+02  0.75887377319E+01 -0.25122472952E+03  0.26533992966E+03  0.80635843292E+02 0.  0.
          5    1    3    3  501    0  0.24625759838E+01  0.67377789730E+02  0.11116675229E+03  0.13009983721E+03  0.47000000000E+01 0. -1.
        -13    1    4    4    0    0 -0.18303242920E+02 -0.55211950534E+02  0.12389641605E+03  0.13687107106E+03  0.00000000000E+00 0.  1.
         14    1    4    4    0    0  0.15095552173E+02 -0.14223746738E+02 -0.45695274326E+01  0.21238437975E+02  0.00000000000E+00 0. -1.
         -5    1    5    5    0  502 -0.26304568872E+02 -0.55308301897E+01 -0.74117377451E+03  0.74167592280E+03  0.47000000000E+01 0.  1.
         11    1    6    6    0    0  0.10866703135E+02  0.77247796408E+01 -0.24858526638E+03  0.24894254783E+03  0.00000000000E+00 0. -1.
        -12    1    6    6    0    0  0.16182980501E+02 -0.13604190886E+00 -0.26394631425E+01  0.16397381833E+02  0.00000000000E+00 0.  1.
</event>
<event>
12    1  0.1061634E+000  0.5300926E+03  0.7818608E-02  0.1006238E+00
         21   -1    0    0  503  502  0.00000000000E+00  0.00000000000E+00  0.79682742749E+03  0.79682742749E+03  0.00000000000E+00 0. -1.
         21   -1    0    0  501  503 -0.00000000000E+00 -0.00000000000E+00 -0.58944763989E+03  0.58944763989E+03  0.00000000000E+00 0. -1.
          6    2    1    2  501    0 -0.48256376422E+02 -0.49863238526E+03  0.54333331690E+03  0.75908451612E+03  0.17330688349E+03 0.  0.
         24    2    3    3    0    0 -0.28141213979E+02 -0.46860331804E+03  0.54357142878E+03  0.72263576669E+03  0.79696646764E+02 0.  0.
         -6    2    1    2    0  502  0.48256376422E+02  0.49863238526E+03 -0.33595352930E+03  0.62719055125E+03  0.17187286065E+03 0.  0.
        -24    2    5    5    0    0  0.30630869069E+02  0.49540317771E+03 -0.29701861132E+03  0.58407322145E+03  0.80987121937E+02 0.  0.
          5    1    3    3  501    0 -0.20115162443E+02 -0.30029067220E+02 -0.23811187854E+00  0.36448749436E+02  0.47000000000E+01 0. -1.
        -13    1    4    4    0    0 -0.36460103996E+01 -0.33079493895E+03  0.32986155880E+03  0.46716938363E+03  0.00000000000E+00 0.  1.
         14    1    4    4    0    0 -0.24495203580E+02 -0.13780837910E+03  0.21370986997E+03  0.25546638306E+03  0.00000000000E+00 0. -1.
         -5    1    5    5    0  502  0.17625507353E+02  0.32292075553E+01 -0.38934917984E+02  0.43117329803E+02  0.47000000000E+01 0.  1.
         13    1    6    6    0    0 -0.13103060500E+02  0.41227100152E+02 -0.46641910409E+02  0.63614713612E+02  0.00000000000E+00 0. -1.
        -14    1    6    6    0    0  0.43733929568E+02  0.45417607756E+03 -0.25037670091E+03  0.52045850783E+03  0.00000000000E+00 0.  1.
</event>
<event>
12    1  0.1061634E+000  0.2367489E+03  0.7818608E-02  0.1122207E+00
         21   -1    0    0  503  502  0.00000000000E+00  0.00000000000E+00  0.82895165331E+03  0.82895165331E+03  0.00000000000E+00 0.  1.
         21   -1    0    0  501  503 -0.00000000000E+00 -0.00000000000E+00 -0.94824276075E+02  0.94824276075E+02  0.00000000000E+00 0.  1.
          6    2    1    2  501    0 -0.15963440562E+03  0.16777963765E+02  0.61696242399E+03  0.66082725838E+03  0.17402697857E+03 0.  0.
         24    2    3    3    0    0 -0.18698993214E+03  0.30038959811E+02  0.56787713908E+03  0.60289942360E+03  0.71663770906E+02 0.  0.
         -6    2    1    2    0  502  0.15963440562E+03 -0.16777963765E+02  0.11716495324E+03  0.26294867101E+03  0.17219098057E+03 0.  0.
        -24    2    5    5    0    0  0.90964599938E+01  0.15052726044E+02  0.32660460557E+02  0.87341253249E+02  0.79072490093E+02 0.  0.
          5    1    3    3  501    0  0.27355526515E+02 -0.13260996046E+02  0.49085284914E+02  0.57927834779E+02  0.47000000000E+01 0. -1.
        -13    1    4    4    0    0 -0.97296387558E+02 -0.21972407221E+01  0.19370066406E+03  0.21677491127E+03  0.00000000000E+00 0.  1.
         14    1    4    4    0    0 -0.89693544579E+02  0.32236200533E+02  0.37417647502E+03  0.38612451233E+03  0.00000000000E+00 0. -1.
         -5    1    5    5    0  502  0.15053794563E+03 -0.31830689810E+02  0.84504492684E+02  0.17560741776E+03  0.47000000000E+01 0.  1.
         11    1    6    6    0    0  0.38815313450E+02 -0.90047107991E+01  0.28266363778E+02  0.48853870840E+02  0.00000000000E+00 0. -1.
        -12    1    6    6    0    0 -0.29718853456E+02  0.24057436844E+02  0.43940967791E+01  0.38487382409E+02  0.00000000000E+00 0.  1.
</event>
<event>
12    1  0.1061634E+000  0.2264031E+03  0.7818608E-02  0.1129485E+00
         21   -1    0    0  501  502  0.00000000000E+00  0.00000000000E+00  0.64121784456E+03  0.64121784456E+03  0.00000000000E+00 0. -1.
         21   -1    0    0  502  503 -0.00000000000E+00 -0.00000000000E+00 -0.79580725202E+02  0.79580725202E+02  0.00000000000E+00 0. -1.
         -6    2    1    2    0  503 -0.66327595354E+02 -0.13060915874E+03  0.26161083684E+03  0.34493403865E+03  0.17053198765E+03 0.  0.
        -24    2    3    3    0    0 -0.36306547849E+02 -0.68759504818E+02  0.25125411910E+03  0.27524907194E+03  0.81162702740E+02 0.  0.
          6    2    1    2  501    0  0.66327595354E+02  0.13060915874E+03  0.30002628252E+03  0.37586453112E+03  0.17262755661E+03 0.  0.
         24    2    5    5    0    0  0.88601430089E+02  0.46139184954E+02  0.23590263514E+03  0.26739687540E+03  0.76628962562E+02 0.  0.
          5    1    5    5  501    0 -0.22273834736E+02  0.84469973782E+02  0.64123647373E+02  0.10846765572E+03  0.47000000000E+01 0. -1.
        -13    1    6    6    0    0  0.42565125348E+02  0.32784915416E+02  0.43548144426E+02  0.69159825460E+02  0.00000000000E+00 0.  1.
         14    1    6    6    0    0  0.46036304741E+02  0.13354269538E+02  0.19235449072E+03  0.19823704994E+03  0.00000000000E+00 0. -1.
         -5    1    3    3    0  503 -0.30021047505E+02 -0.61849653918E+02  0.10356717739E+02  0.69684966710E+02  0.47000000000E+01 0.  1.
         11    1    4    4    0    0  0.15031644014E+02 -0.42645942939E+02  0.57701822031E+02  0.73308437691E+02  0.00000000000E+00 0. -1.
        -12    1    4    4    0    0 -0.51338191863E+02 -0.26113561879E+02  0.19355229707E+03  0.20194063424E+03  0.00000000000E+00 0.  1.
</event>
<event>
12    1  0.1061634E+000  0.1855700E+03  0.7818608E-02  0.1163361E+00
         21   -1    0    0  503  502  0.00000000000E+00  0.00000000000E+00  0.45987140387E+03  0.45987140387E+03  0.00000000000E+00 0.  1.
         21   -1    0    0  501  503 -0.00000000000E+00 -0.00000000000E+00 -0.73893614833E+02  0.73893614833E+02  0.00000000000E+00 0.  1.
          6    2    1    2  501    0 -0.13812463231E+02 -0.66149014778E+02  0.17403116550E+03  0.25440727258E+03  0.17282863617E+03 0.  0.
         24    2    3    3    0    0 -0.58079015562E+02 -0.14700995115E+01  0.56450885853E+02  0.11302091575E+03  0.78814285778E+02 0.  0.
         -6    2    1    2    0  502  0.13812463231E+02  0.66149014778E+02  0.21194662353E+03  0.27935774612E+03  0.16897604207E+03 0.  0.
        -24    2    5    5    0    0  0.18989988857E+02  0.10190165643E+03  0.10627161780E+03  0.16757959533E+03  0.77747647948E+02 0.  0.
          5    1    3    3  501    0  0.44266552331E+02 -0.64678915267E+02  0.11758027965E+03  0.14138635683E+03  0.47000000000E+01 0. -1.
        -13    1    4    4    0    0 -0.90085582567E+01 -0.26310661472E+02 -0.73707118746E+01  0.28770339284E+02  0.00000000000E+00 0.  1.
         14    1    4    4    0    0 -0.49070457305E+02  0.24840561961E+02  0.63821597728E+02  0.84250576468E+02  0.00000000000E+00 0. -1.
         -5    1    5    5    0  502 -0.51775256259E+01 -0.35752641654E+02  0.10567500573E+03  0.11177815079E+03  0.47000000000E+01 0.  1.
         13    1    6    6    0    0  0.38214399034E+02  0.28818220656E+02  0.67212346083E+02  0.82512602682E+02  0.00000000000E+00 0. -1.
        -14    1    6    6    0    0 -0.19224410177E+02  0.73083435776E+02  0.39059271716E+02  0.85066992650E+02  0.00000000000E+00 0.  1.
</event>
<event>
12    1  0.1061634E+000  0.2212349E+03  0.7818608E-02  0.1132997E+00
         21   -1    0    0  501  502  0.00000000000E+00  0.00000000000E+00  0.25661471618E+03  0.25661471618E+03  0.00000000000E+00 0. -1.
         21   -1    0    0  502  503 -0.00000000000E+00 -0.00000000000E+00 -0.32150478988E+03  0.32150478988E+03  0.00000000000E+00 0. -1.
         -6    2    1    2    0  503  0.13669369246E+03  0.23247328645E+02  0.15200267920E+03  0.26842074630E+03  0.17239280354E+03 0.  0.
        -24    2    3    3    0    0  0.85147726658E+02 -0.24807410575E+02  0.23444023145E+02  0.12173856402E+03  0.80031948457E+02 0.  0.
          6    2    1    2  501    0 -0.13669369246E+03 -0.23247328645E+02 -0.21689275290E+03  0.30969875977E+03  0.17217796518E+03 0.  0.
         24    2    5    5    0    0 -0.60978953663E+02 -0.59721444884E+02 -0.18773906864E+03  0.22061952464E+03  0.78370485431E+02 0.  0.
          5    1    5    5  501    0 -0.75714738793E+02  0.36474116239E+02 -0.29153684256E+02  0.89079235131E+02  0.47000000000E+01 0. -1.
        -11    1    6    6    0    0 -0.40642654757E+02 -0.58476401053E+02 -0.65697689399E+02  0.96889118368E+02  0.00000000000E+00 0.  1.
         12    1    6    6    0    0 -0.20336298906E+02 -0.12450438314E+01 -0.12204137925E+03  0.12373040627E+03  0.00000000000E+00 0. -1.
         -5    1    3    3    0  503  0.51545965797E+02  0.48054739220E+02  0.12855865606E+03  0.14668218228E+03  0.47000000000E+01 0.  1.
         13    1    4    4    0    0  0.16714660564E+02 -0.23275811022E+01 -0.28368645667E+02  0.33008749878E+02  0.00000000000E+00 0. -1.
        -14    1    4    4    0    0  0.68433066094E+02 -0.22479829472E+02  0.51812668812E+02  0.88729814141E+02  0.00000000000E+00 0.  1.
</event>
<event>
12    1  0.1061634E+000  0.2031688E+03  0.7818608E-02  0.1147329E+00
         21   -1    0    0  501  502  0.00000000000E+00  0.00000000000E+00  0.26370807117E+03  0.26370807117E+03  0.00000000000E+00 0. -1.
         21   -1    0    0  502  503 -0.00000000000E+00 -0.00000000000E+00 -0.15633711978E+03  0.15633711978E+03  0.00000000000E+00 0. -1.
         -6    2    1    2    0  503 -0.38570181681E+02 -0.99032420899E+02  0.39903803367E+02  0.20705039475E+03  0.17315447768E+03 0.  0.
        -24    2    3    3    0    0 -0.88810978088E+02 -0.68650035942E+02  0.51194314016E+02  0.14707712929E+03  0.80066265734E+02 0.  0.
          6    2    1    2  501    0  0.38570181681E+02  0.99032420899E+02  0.67467148018E+02  0.21299479620E+03  0.17181352636E+03 0.  0.
         24    2    5    5    0    0  0.83188089305E+02  0.86038836546E+02  0.21989220019E+02  0.14780336386E+03  0.83900947400E+02 0.  0.
          5    1    5    5  501    0 -0.44617907624E+02  0.12993584353E+02  0.45477927999E+02  0.65191432337E+02  0.47000000000E+01 0. -1.
        -13    1    6    6    0    0  0.26859189906E+02  0.44379467214E+00  0.35426140332E+02  0.44459244876E+02  0.00000000000E+00 0.  1.
         14    1    6    6    0    0  0.56328899399E+02  0.85595041874E+02 -0.13436920313E+02  0.10334411898E+03  0.00000000000E+00 0. -1.
         -5    1    3    3    0  503  0.50240796407E+02 -0.30382384958E+02 -0.11290510649E+02  0.59973265461E+02  0.47000000000E+01 0.  1.
         13    1    4    4    0    0 -0.38839935625E+02 -0.53093959250E+01  0.53548021732E+02  0.66363551109E+02  0.00000000000E+00 0. -1.
        -14    1    4    4    0    0 -0.49971042463E+02 -0.63340640017E+02 -0.23537077161E+01  0.80713578180E+02  0.00000000000E+00 0.  1.
</event>
<event>
12    1  0.1061634E+000  0.1901540E+03  0.7818608E-02  0.1161689E+00
         21   -1    0    0  501  502  0.00000000000E+00  0.00000000000E+00  0.40645691680E+03  0.40645691680E+03  0.00000000000E+00 0. -1.
         21   -1    0    0  502  503 -0.00000000000E+00 -0.00000000000E+00 -0.11093893101E+03  0.11093893101E+03  0.00000000000E+00 0. -1.
         -6    2    1    2    0  503  0.16640006088E+02  0.35336641057E+02  0.28323457981E+03  0.34114565886E+03  0.18609934269E+03 0.  0.
        -24    2    3    3    0    0  0.36699264004E+02  0.10885082265E+02  0.41707275893E+02  0.97511135248E+02  0.79395236889E+02 0.  0.
          6    2    1    2  501    0 -0.16640006088E+02 -0.35336641057E+02  0.12283405985E+02  0.17625018895E+03  0.17142834958E+03 0.  0.
         24    2    5    5    0    0  0.44997126657E+02 -0.51109633298E+02  0.32681514305E+02  0.10927186231E+03  0.78964058224E+02 0.  0.
          5    1    5    5  501    0 -0.61637132745E+02  0.15772992240E+02 -0.20398108319E+02  0.66978326646E+02  0.47000000000E+01 0. -1.
        -13    1    6    6    0    0  0.37991955946E+02 -0.64599618560E+02  0.19293881324E+01  0.74968139721E+02  0.00000000000E+00 0.  1.
         14    1    6    6    0    0  0.70051707115E+01  0.13489985262E+02  0.30752126172E+02  0.34303722585E+02  0.00000000000E+00 0. -1.
         -5    1    3    3    0  503 -0.20059257917E+02  0.24451558793E+02  0.24152730392E+03  0.24363452361E+03  0.47000000000E+01 0.  1.
         13    1    4    4    0    0 -0.22926711460E+02 -0.62248224622E+01  0.22118631830E+02  0.32459457591E+02  0.00000000000E+00 0. -1.
        -14    1    4    4    0    0  0.59625975464E+02  0.17109904727E+02  0.19588644063E+02  0.65051677657E+02  0.00000000000E+00 0.  1.
</event>
<event>
12    1  0.1061634E+000  0.1882572E+03  0.7818608E-02  0.1161521E+00
         21   -1    0    0  501  502  0.00000000000E+00  0.00000000000E+00  0.19333777331E+03  0.19333777331E+03  0.00000000000E+00 0. -1.
         21   -1    0    0  502  503 -0.00000000000E+00 -0.00000000000E+00 -0.30860274016E+03  0.30860274016E+03  0.00000000000E+00 0. -1.
         -6    2    1    2    0  503 -0.72424056511E+02  0.16308386762E+02  0.10670720702E+03  0.21088651827E+03  0.16605868878E+03 0.  0.
        -24    2    3    3    0    0  0.10095270557E+02  0.45659758397E+02  0.39428614453E+02  0.10034493617E+03  0.79547234726E+02 0.  0.
          6    2    1    2  501    0  0.72424056511E+02 -0.16308386762E+02 -0.22197217387E+03  0.29105399520E+03  0.17300166100E+03 0.  0.
         24    2    5    5    0    0  0.33387820815E+02 -0.67880204736E+02 -0.90530506147E+02  0.14448495986E+03  0.83412602813E+02 0.  0.
          5    1    5    5  501    0  0.39036235696E+02  0.51571817974E+02 -0.13144166772E+03  0.14656903534E+03  0.47000000000E+01 0. -1.
        -13    1    6    6    0    0 -0.25873548318E+02 -0.97554611689E+01 -0.35042979353E+02  0.44638771568E+02  0.00000000000E+00 0.  1.
         14    1    6    6    0    0  0.59261369133E+02 -0.58124743567E+02 -0.55487526794E+02  0.99846188290E+02  0.00000000000E+00 0. -1.
         -5    1    3    3    0  503 -0.82519327068E+02 -0.29351371636E+02  0.67278592563E+02  0.11054158210E+03  0.47000000000E+01 0.  1.
         13    1    4    4    0    0 -0.22378580847E+02 -0.34136645485E+01 -0.87732432252E+01  0.24278051467E+02  0.00000000000E+00 0. -1.
        -14    1    4    4    0    0  0.32473851404E+02  0.49073422946E+02  0.48201857678E+02  0.76066884702E+02  0.00000000000E+00 0.  1.
</event>
<event>
12    1  0.1061634E+000  0.2782426E+03  0.7818608E-02  0.1096728E+00
         21   -1    0    0  501  502  0.00000000000E+00  0.00000000000E+00  0.56196166988E+03  0.56196166988E+03  0.00000000000E+00 0. -1.
         21   -1    0    0  502  503 -0.00000000000E+00 -0.00000000000E+00 -0.13761193295E+03  0.13761193295E+03  0.00000000000E+00 0. -1.
         -6    2    1    2    0  503  0.15012722720E+03  0.15778311442E+03  0.22257482385E+03  0.35631235642E+03  0.17316248897E+03 0.  0.
        -24    2    3    3    0    0  0.92678770371E+02  0.35465051589E+02  0.49093244385E+02  0.13635785635E+03  0.79600213465E+02 0.  0.
          6    2    1    2  501    0 -0.15012722720E+03 -0.15778311442E+03  0.20177491308E+03  0.34326124641E+03  0.17228311638E+03 0.  0.
         24    2    5    5    0    0 -0.17653695444E+03 -0.15342884898E+03  0.16406465157E+03  0.29677913002E+03  0.80342604742E+02 0.  0.
          5    1    5    5  501    0  0.26409727241E+02 -0.43542654493E+01  0.37710261515E+02  0.46482116390E+02  0.47000000000E+01 0. -1.
        -11    1    6    6    0    0 -0.14620367588E+03 -0.87378091646E+02  0.13916800712E+03  0.21995040337E+03  0.00000000000E+00 0.  1.
         12    1    6    6    0    0 -0.30333278566E+02 -0.66050757330E+02  0.24896644451E+02  0.76828726641E+02  0.00000000000E+00 0. -1.
         -5    1    3    3    0  503  0.57448456830E+02  0.12231806284E+03  0.17348157946E+03  0.21995450007E+03  0.47000000000E+01 0.  1.
         13    1    4    4    0    0  0.99759523677E+02  0.41254183273E+02  0.58876931503E+02  0.12296488631E+03  0.00000000000E+00 0. -1.
        -14    1    4    4    0    0 -0.70807533057E+01 -0.57891316836E+01 -0.97836871178E+01  0.13392970046E+02  0.00000000000E+00 0.  1.
</event>
<event>
12    1  0.1061634E+000  0.2183993E+03  0.7818608E-02  0.1135158E+00
         21   -1    0    0  501  502  0.00000000000E+00  0.00000000000E+00  0.23481743578E+03  0.23481743578E+03  0.00000000000E+00 0.  1.
         21   -1    0    0  502  503 -0.00000000000E+00 -0.00000000000E+00 -0.26560776295E+03  0.26560776295E+03  0.00000000000E+00 0.  1.
         -6    2    1    2    0  503  0.33806853008E+02 -0.12961733060E+03  0.10633203110E+03  0.24254769530E+03  0.17198641795E+03 0.  0.
        -24    2    3    3    0    0  0.53095408449E+02 -0.11505868209E+02  0.33600021876E+02  0.10242488815E+03  0.80064903929E+02 0.  0.
          6    2    1    2  501    0 -0.33806853008E+02  0.12961733060E+03 -0.13712235827E+03  0.25787750343E+03  0.17249553599E+03 0.  0.
         24    2    5    5    0    0 -0.15644488265E+02  0.14920447895E+02 -0.11198784032E+03  0.13896963831E+03  0.79397192738E+02 0.  0.
          5    1    5    5  501    0 -0.18162364742E+02  0.11469688270E+03 -0.25134517954E+02  0.11890786512E+03  0.47000000000E+01 0. -1.
        -13    1    6    6    0    0  0.57122240693E+00  0.23857725459E+02 -0.11730331193E+03  0.11970624190E+03  0.00000000000E+00 0.  1.
         14    1    6    6    0    0 -0.16215710672E+02 -0.89372775647E+01  0.53154716140E+01  0.19263396413E+02  0.00000000000E+00 0. -1.
         -5    1    3    3    0  503 -0.19288555442E+02 -0.11811146239E+03  0.72732009222E+02  0.14012280715E+03  0.47000000000E+01 0.  1.
         11    1    4    4    0    0  0.28950620416E+02 -0.67270891099E+01 -0.25017676225E+02  0.38849405067E+02  0.00000000000E+00 0. -1.
        -12    1    4    4    0    0  0.24144788033E+02 -0.47787790991E+01  0.58617698100E+02  0.63575483084E+02  0.00000000000E+00 0.  1.
</event>
<event>
12    1  0.1061634E+000  0.1910080E+03  0.7818608E-02  0.1157762E+00
         21   -1    0    0  501  502  0.00000000000E+00  0.00000000000E+00  0.27684866506E+03  0.27684866506E+03  0.00000000000E+00 0. -1.
         21   -1    0    0  502  503 -0.00000000000E+00 -0.00000000000E+00 -0.20373676495E+03  0.20373676495E+03  0.00000000000E+00 0. -1.
         -6    2    1    2    0  503 -0.43270766082E+01  0.80523375612E+02  0.18004129330E+03  0.26248601303E+03  0.17315109625E+03 0.  0.
        -24    2    3    3    0    0  0.22160256944E+02 -0.21073279734E+02  0.92006401767E+02  0.12538863398E+03  0.79510826042E+02 0.  0.
          6    2    1    2  501    0  0.43270766082E+01 -0.80523375612E+02 -0.10692939320E+03  0.21809941697E+03  0.17213576892E+03 0.  0.
         24    2    5    5    0    0 -0.25903022659E+02 -0.73949595470E+02 -0.15678426853E+01  0.10818936368E+03  0.74585327181E+02 0.  0.
          5    1    5    5  501    0  0.30230099267E+02 -0.65737801425E+01 -0.10536155052E+03  0.10991005329E+03  0.47000000000E+01 0. -1.
        -13    1    6    6    0    0 -0.13622708539E+02 -0.75239021833E+02 -0.26043038641E+02  0.80775791274E+02  0.00000000000E+00 0.  1.
         14    1    6    6    0    0 -0.12280314120E+02  0.12894263630E+01  0.24475195955E+02  0.27413572410E+02  0.00000000000E+00 0. -1.
         -5    1    3    3    0  503 -0.26487333552E+02  0.10159665535E+03  0.88034891538E+02  0.13709737906E+03  0.47000000000E+01 0.  1.
         11    1    4    4    0    0  0.49702689742E+02 -0.12230781367E+02  0.77884760208E+02  0.93198633322E+02  0.00000000000E+00 0. -1.
        -12    1    4    4    0    0 -0.27542432798E+02 -0.88424983674E+01  0.14121641559E+02  0.32190000655E+02  0.00000000000E+00 0.  1.
</event>
<event>
12    1  0.1061634E+000  0.2100605E+03  0.7818608E-02  0.1141984E+00
         21   -1    0    0  501  502  0.00000000000E+00  0.00000000000E+00  0.83095889772E+02  0.83095889772E+02  0.00000000000E+00 0.  1.
         21   -1    0    0  502  503 -0.00000000000E+00 -0.00000000000E+00 -0.53568435638E+03  0.53568435638E+03  0.00000000000E+00 0.  1.
         -6    2    1    2    0  503  0.60070970468E+02  0.10494320063E+03 -0.27099203770E+03  0.34287327450E+03  0.17176670521E+03 0.  0.
        -24    2    3    3    0    0 -0.48354975749E+01  0.12081844599E+03 -0.17506952829E+03  0.22587715994E+03  0.75833190107E+02 0.  0.
          6    2    1    2  501    0 -0.60070970468E+02 -0.10494320063E+03 -0.18159642891E+03  0.27590697165E+03  0.16889581748E+03 0.  0.
         24    2    5    5    0    0  0.10234146499E+02 -0.41489746097E+02 -0.15099602777E+03  0.17626950423E+03  0.80280763156E+02 0.  0.
          5    1    5    5  501    0 -0.70305116967E+02 -0.63453454535E+02 -0.30600401134E+02  0.99637467419E+02  0.47000000000E+01 0. -1.
        -11    1    6    6    0    0  0.69510351429E+01  0.17422542253E+02 -0.59459641414E+01  0.19677813844E+02  0.00000000000E+00 0.  1.
         12    1    6    6    0    0  0.32831113561E+01 -0.58912288349E+02 -0.14505006363E+03  0.15659169039E+03  0.00000000000E+00 0. -1.
         -5    1    3    3    0  503  0.64906468042E+02 -0.15875245358E+02 -0.95922509412E+02  0.11699611455E+03  0.47000000000E+01 0.  1.
         11    1    4    4    0    0  0.32039386678E+02  0.79447417481E+02 -0.89168796265E+02  0.12365067194E+03  0.00000000000E+00 0. -1.
        -12    1    4    4    0    0 -0.36874884253E+02  0.41371028508E+02 -0.85900732020E+02  0.10222648801E+03  0.00000000000E+00 0.  1.
</event>
<event>
12    1  0.1061634E+000  0.1964496E+03  0.7818608E-02  0.1153084E+00
         21   -1    0    0  503  502  0.00000000000E+00  0.00000000000E+00  0.55053843204E+03  0.55053843204E+03  0.00000000000E+00 0.  1.
         21   -1    0    0  501  503 -0.00000000000E+00 -0.00000000000E+00 -0.70569229578E+02  0.70569229578E+02  0.00000000000E+00 0.  1.
          6    2    1    2  501    0  0.51675895963E+02  0.79859286324E+02  0.20238362028E+03  0.28103970760E+03  0.17022421583E+03 0.  0.
         24    2    3    3    0    0  0.76613917177E+02  0.14169798143E+02  0.65862397723E+02  0.12742607550E+03  0.76348371290E+02 0.  0.
         -6    2    1    2    0  502 -0.51675895963E+02 -0.79859286324E+02  0.27758558218E+03  0.34006795402E+03  0.17188529337E+03 0.  0.
        -24    2    5    5    0    0 -0.89565056764E+02 -0.45330162417E+02  0.25123240101E+03  0.28223691510E+03  0.80394240540E+02 0.  0.
          5    1    3    3  501    0 -0.24938021213E+02  0.65689488181E+02  0.13652122255E+03  0.15361363210E+03  0.47000000000E+01 0. -1.
        -11    1    4    4    0    0  0.52244045669E+02  0.13356819665E+02  0.82031831618E+02  0.98168560844E+02  0.00000000000E+00 0.  1.
         12    1    4    4    0    0  0.24369871508E+02  0.81297847741E+00 -0.16169433895E+02  0.29257514655E+02  0.00000000000E+00 0. -1.
         -5    1    5    5    0  502  0.37889160801E+02 -0.34529123907E+02  0.26353181173E+02  0.57831038914E+02  0.47000000000E+01 0.  1.
         13    1    6    6    0    0 -0.54310237504E+02  0.10338371150E+02  0.68746203991E+02  0.88218616964E+02  0.00000000000E+00 0. -1.
        -14    1    6    6    0    0 -0.35254819260E+02 -0.55668533568E+02  0.18248619702E+03  0.19401829814E+03  0.00000000000E+00 0.  1.
</event>
<event>
12    1  0.1061634E+000  0.2663879E+03  0.7818608E-02  0.1104052E+00
         21   -1    0    0  503  502  0.00000000000E+00  0.00000000000E+00  0.72283077110E+02  0.72283077110E+02  0.00000000000E+00 0. -1.
         21   -1    0    0  501  503 -0.00000000000E+00 -0.00000000000E+00 -0.11730534545E+04  0.11730534545E+04  0.00000000000E+00 0. -1.
          6    2    1    2  501    0 -0.17681542918E+03 -0.92607857754E+02 -0.29190085242E+03  0.39518174321E+03  0.17641596075E+03 0.  0.
         24    2    3    3    0    0 -0.17543045183E+03 -0.56609550829E+02 -0.15514995550E+03  0.25368724129E+03  0.79405434518E+02 0.  0.
         -6    2    1    2    0  502  0.17681542918E+03  0.92607857754E+02 -0.80886952494E+03  0.85015478837E+03  0.16927298809E+03 0.  0.
        -24    2    5    5    0    0  0.13297650069E+03 -0.11960356948E+01 -0.44140275652E+03  0.46834994559E+03  0.82650455729E+02 0.  0.
          5    1    3    3  501    0 -0.13849773553E+01 -0.35998306925E+02 -0.13675089692E+03  0.14149450191E+03  0.47000000000E+01 0. -1.
        -11    1    4    4    0    0 -0.14498566146E+03 -0.24039832704E+02 -0.14792931593E+03  0.20852299177E+03  0.00000000000E+00 0.  1.
         12    1    4    4    0    0 -0.30444790364E+02 -0.32569718126E+02 -0.72206395689E+01  0.45164249522E+02  0.00000000000E+00 0. -1.
         -5    1    5    5    0  502  0.43838928490E+02  0.93803893449E+02 -0.36746676842E+03  0.38180484278E+03  0.47000000000E+01 0.  1.
         13    1    6    6    0    0  0.19544054457E+02 -0.14398727891E+02 -0.19127656865E+02  0.30905674020E+02  0.00000000000E+00 0. -1.
        -14    1    6    6    0    0  0.11343244623E+03  0.13202692196E+02 -0.42227509965E+03  0.43744427157E+03  0.00000000000E+00 0.  1.
</event>
<event>
12    1  0.1061634E+000  0.2389756E+03  0.7818608E-02  0.1120975E+00
         21   -1    0    0  503  502  0.00000000000E+00  0.00000000000E+00  0.31266103820E+03  0.31266103820E+03  0.00000000000E+00 0.  1.
         21   -1    0    0  501  503 -0.00000000000E+00 -0.00000000000E+00 -0.25644914508E+03  0.25644914508E+03  0.00000000000E+00 0.  1.
          6    2    1    2  501    0  0.98590910454E+02 -0.13509308147E+03  0.18317788962E+03  0.30110375933E+03  0.17070157103E+03 0.  0.
         24    2    3    3    0    0  0.91221500794E+02 -0.28762933711E+02  0.12371750715E+03  0.17896434880E+03  0.87026134023E+02 0.  0.
         -6    2    1    2    0  502 -0.98590910454E+02  0.13509308147E+03 -0.12696599649E+03  0.26800642395E+03  0.16654360009E+03 0.  0.
        -24    2    5    5    0    0 -0.48048181813E+02  0.12546140752E+03 -0.14564314734E+03  0.21306770787E+03  0.78337278601E+02 0.  0.
          5    1    3    3  501    0  0.73694096602E+01 -0.10633014776E+03  0.59460382469E+02  0.12213941053E+03  0.47000000000E+01 0. -1.
        -11    1    4    4    0    0 -0.48550657830E+01 -0.15263862601E+02 -0.58900788276E+01  0.17066053845E+02  0.00000000000E+00 0.  1.
         12    1    4    4    0    0  0.96076566577E+02 -0.13499071110E+02  0.12960758598E+03  0.16189829495E+03  0.00000000000E+00 0. -1.
         -5    1    5    5    0  502 -0.50542728641E+02  0.96316739491E+01  0.18677150841E+02  0.54938716085E+02  0.47000000000E+01 0.  1.
         13    1    6    6    0    0 -0.42371225304E+02  0.15195253968E+02 -0.45550501957E+02  0.64039555788E+02  0.00000000000E+00 0. -1.
        -14    1    6    6    0    0 -0.56769565096E+01  0.11026615355E+03 -0.10009264538E+03  0.14902815208E+03  0.00000000000E+00 0.  1.
</event>
<event>
12    1  0.1061634E+000  0.1952503E+03  0.7818608E-02  0.1156635E+00
         21   -1    0    0  503  502  0.00000000000E+00  0.00000000000E+00  0.50286446544E+03  0.50286446544E+03  0.00000000000E+00 0. -1.
         21   -1    0    0  501  503 -0.00000000000E+00 -0.00000000000E+00 -0.74567199713E+02  0.74567199713E+02  0.00000000000E+00 0. -1.
          6    2    1    2  501    0  0.36153895708E+02  0.46663271979E+02  0.27029259435E+03  0.32625813926E+03  0.17292114315E+03 0.  0.
         24    2    3    3    0    0  0.55201469111E+01  0.31965492248E+02  0.27737261692E+03  0.29123431860E+03  0.82641363713E+02 0.  0.
         -6    2    1    2    0  502 -0.36153895708E+02 -0.46663271979E+02  0.15800467138E+03  0.25117352589E+03  0.18611313442E+03 0.  0.
        -24    2    5    5    0    0 -0.87488280801E+01 -0.97351540974E+02  0.65847377490E+02  0.14238292353E+03  0.79894651062E+02 0.  0.
          5    1    3    3  501    0  0.30633748797E+02  0.14697779731E+02 -0.70800225685E+01  0.35023820664E+02  0.47000000000E+01 0. -1.
        -13    1    4    4    0    0 -0.20372252502E+02  0.31321735328E+02  0.50142141483E+02  0.62532504575E+02  0.00000000000E+00 0.  1.
         14    1    4    4    0    0  0.25892399413E+02  0.64375691999E+00  0.22723047544E+03  0.22870181402E+03  0.00000000000E+00 0. -1.
         -5    1    5    5    0  502 -0.27405067628E+02  0.50688268994E+02  0.92157293886E+02  0.10879060236E+03  0.47000000000E+01 0.  1.
         11    1    6    6    0    0  0.19871314765E+02 -0.13735447814E+02  0.45768568711E+02  0.51752232406E+02  0.00000000000E+00 0. -1.
        -12    1    6    6    0    0 -0.28620142845E+02 -0.83616093160E+02  0.20078808779E+02  0.90630691125E+02  0.00000000000E+00 0.  1.
</event>
<event>
12    1  0.1061634E+000  0.2239036E+03  0.7818608E-02  0.1132541E+00
         21   -1    0    0  501  502  0.00000000000E+00  0.00000000000E+00  0.21289129199E+03  0.21289129199E+03  0.00000000000E+00 0. -1.
         21   -1    0    0  502  503 -0.00000000000E+00 -0.00000000000E+00 -0.24105314515E+03  0.24105314515E+03  0.00000000000E+00 0. -1.
         -6    2    1    2    0  503 -0.91279143422E+02  0.11240140815E+03 -0.68860090034E+02  0.22637212747E+03  0.15980196970E+03 0.  0.
        -24    2    3    3    0    0 -0.50947363039E+02 -0.97742267617E+01 -0.32984543810E+02  0.92720778465E+02  0.69411766432E+02 0.  0.
          6    2    1    2  501    0  0.91279143422E+02 -0.11240140815E+03  0.40698236877E+02  0.22757230966E+03  0.17078305262E+03 0.  0.
         24    2    5    5    0    0  0.20220086220E+02 -0.47155988694E+02 -0.41224063900E+02  0.10092434191E+03  0.76509869884E+02 0.  0.
          5    1    5    5  501    0  0.71059057202E+02 -0.65245419456E+02  0.81922300776E+02  0.12664796775E+03  0.47000000000E+01 0. -1.
        -13    1    6    6    0    0  0.12307273201E+02 -0.67153337386E+02 -0.21065960894E+02  0.71447983905E+02  0.00000000000E+00 0.  1.
         14    1    6    6    0    0  0.79128130190E+01  0.19997348692E+02 -0.20158103006E+02  0.29476358008E+02  0.00000000000E+00 0. -1.
         -5    1    3    3    0  503 -0.40331780383E+02  0.12217563491E+03 -0.35875546224E+02  0.13365134901E+03  0.47000000000E+01 0.  1.
         13    1    4    4    0    0 -0.32768076888E+02 -0.15462373820E+02  0.16413514378E+02  0.39777321696E+02  0.00000000000E+00 0. -1.
        -14    1    4    4    0    0 -0.18179286152E+02  0.56881470580E+01 -0.49398058188E+02  0.52943456769E+02  0.00000000000E+00 0.  1.
</event>
<event>
12    1  0.1061634E+000  0.1839130E+03  0.7818608E-02  0.1165888E+00
         21   -1    0    0  503  502  0.00000000000E+00  0.00000000000E+00  0.57677814857E+02  0.57677814857E+02  0.00000000000E+00 0.  1.
         21   -1    0    0  501  503 -0.00000000000E+00 -0.00000000000E+00 -0.67667903778E+03  0.67667903778E+03  0.00000000000E+00 0.  1.
          6    2    1    2  501    0  0.38398312658E+02 -0.51289014535E+02 -0.16414845010E+03  0.24651312121E+03  0.17239202948E+03 0.  0.
         24    2    3    3    0    0  0.16943627009E+02 -0.10271449740E+03 -0.12659761874E+03  0.17915557701E+03  0.72335394022E+02 0.  0.
         -6    2    1    2    0  502 -0.38398312658E+02  0.51289014535E+02 -0.45485277282E+03  0.48784373143E+03  0.16430297601E+03 0.  0.
        -24    2    5    5    0    0 -0.46722371161E+02  0.94081871866E+02 -0.35224788329E+03  0.37626249670E+03  0.80377338595E+02 0.  0.
          5    1    3    3  501    0  0.21454685650E+02  0.51425482870E+02 -0.37550831362E+02  0.67357544200E+02  0.47000000000E+01 0. -1.
        -13    1    4    4    0    0  0.19089737925E+02  0.12454593935E+01 -0.38014647279E+02  0.42556816973E+02  0.00000000000E+00 0.  1.
         14    1    4    4    0    0 -0.21461109165E+01 -0.10395995680E+03 -0.88582971464E+02  0.13659876003E+03  0.00000000000E+00 0. -1.
         -5    1    5    5    0  502  0.83240585023E+01 -0.42792857331E+02 -0.10260488953E+03  0.11158123473E+03  0.47000000000E+01 0.  1.
         11    1    6    6    0    0 -0.14264967357E+02  0.97643682483E+02 -0.28277958130E+03  0.29950303775E+03  0.00000000000E+00 0. -1.
        -12    1    6    6    0    0 -0.32457403804E+02 -0.35618106171E+01 -0.69468301992E+02  0.76759458949E+02  0.00000000000E+00 0.  1.
</event>
<event>
12    1  0.1061634E+000  0.1777409E+03  0.7818608E-02  0.1171403E+00
         21   -1    0    0  503  502  0.00000000000E+00  0.00000000000E+00  0.29120030957E+03  0.29120030957E+03  0.00000000000E+00 0. -1.
         21   -1    0    0  501  503 -0.00000000000E+00 -0.00000000000E+00 -0.29197261731E+03  0.29197261731E+03  0.00000000000E+00 0. -1.
          6    2    1    2  501    0  0.10630702812E+02  0.14108812824E+02  0.23287002496E+03  0.29295096588E+03  0.17686081942E+03 0.  0.
         24    2    3    3    0    0  0.54753437749E+02 -0.38940272119E+02  0.17006865949E+03  0.19953189579E+03  0.79845756064E+02 0.  0.
         -6    2    1    2    0  502 -0.10630702812E+02 -0.14108812824E+02 -0.23364233270E+03  0.29022196100E+03  0.17125412863E+03 0.  0.
        -24    2    5    5    0    0 -0.51081186038E+02 -0.22989037153E+02 -0.66451219783E+02  0.11791392805E+03  0.79687805981E+02 0.  0.
          5    1    3    3  501    0 -0.44122734938E+02  0.53049084943E+02  0.62801365470E+02  0.93419070090E+02  0.47000000000E+01 0. -1.
        -13    1    4    4    0    0  0.34559199483E+02 -0.62026287695E+02  0.13776504281E+03  0.15498646927E+03  0.00000000000E+00 0.  1.
         14    1    4    4    0    0  0.20194238266E+02  0.23086015577E+02  0.32303616673E+02  0.44545426527E+02  0.00000000000E+00 0. -1.
         -5    1    5    5    0  502  0.40450483227E+02  0.88802243293E+01 -0.16719111292E+03  0.17230803294E+03  0.47000000000E+01 0.  1.
         11    1    6    6    0    0 -0.21646008738E+02 -0.51219713231E+02 -0.29836795199E+02  0.63105016168E+02  0.00000000000E+00 0. -1.
        -12    1    6    6    0    0 -0.29435177300E+02  0.28230676078E+02 -0.36614424584E+02  0.54808911886E+02  0.00000000000E+00 0.  1.
</event>
<event>
12    1  0.1061634E+000  0.2938648E+03  0.7818608E-02  0.1088904E+00
         21   -1    0    0  501  502  0.00000000000E+00  0.00000000000E+00  0.87798533110E+03  0.87798533110E+03  0.00000000000E+00 0.  1.
         21   -1    0    0  502  503 -0.00000000000E+00 -0.00000000000E+00 -0.12193032440E+03  0.12193032440E+03  0.00000000000E+00 0.  1.
         -6    2    1    2    0  503 -0.98343069278E+02 -0.21136974670E+03  0.60222255567E+03  0.66822160436E+03  0.17175440863E+03 0.  0.
        -24    2    3    3    0    0 -0.69911865181E+02 -0.14914774193E+03  0.25043784605E+03  0.30981613124E+03  0.78321150565E+02 0.  0.
          6    2    1    2  501    0  0.98343069278E+02  0.21136974670E+03  0.15383245103E+03  0.33169405114E+03  0.17890777366E+03 0.  0.
         24    2    5    5    0    0  0.70921321041E+02  0.16455435467E+03  0.32138234239E+02  0.19837036379E+03  0.78803335674E+02 0.  0.
          5    1    5    5  501    0  0.27421748237E+02  0.46815392036E+02  0.12169421679E+03  0.13332368735E+03  0.47000000000E+01 0. -1.
        -13    1    6    6    0    0 -0.13684398150E+02  0.33493290794E+02 -0.85015685607E+01  0.37166381972E+02  0.00000000000E+00 0.  1.
         14    1    6    6    0    0  0.84605719190E+02  0.13106106387E+03  0.40639802800E+02  0.16120398182E+03  0.00000000000E+00 0. -1.
         -5    1    3    3    0  503 -0.28431204096E+02 -0.62222004773E+02  0.35178470961E+03  0.35840547312E+03  0.47000000000E+01 0.  1.
         11    1    4    4    0    0 -0.92383545975E+01 -0.95531249969E+02  0.17265926338E+03  0.19754186429E+03  0.00000000000E+00 0. -1.
        -12    1    4    4    0    0 -0.60673510584E+02 -0.53616491962E+02  0.77778582671E+02  0.11227426695E+03  0.00000000000E+00 0.  1.
</event>
<event>
12    1  0.1061634E+000  0.2683047E+03  0.7818608E-02  0.1102867E+00
         21   -1    0    0  503  502  0.00000000000E+00  0.00000000000E+00  0.27755728105E+03  0.27755728105E+03  0.00000000000E+00 0.  1.
         21   -1    0    0  501  503 -0.00000000000E+00 -0.00000000000E+00 -0.77841660310E+03  0.77841660310E+03  0.00000000000E+00 0.  1.
          6    2    1    2  501    0  0.19440763601E+03 -0.55587666783E+02 -0.68390555993E+03  0.73465244154E+03  0.17636064561E+03 0.  0.
         24    2    3    3    0    0  0.45868989233E+02 -0.51709014024E+02 -0.40545074959E+03  0.41899765394E+03  0.79943338424E+02 0.  0.
         -6    2    1    2    0  502 -0.19440763601E+03  0.55587666783E+02  0.18304623788E+03  0.32132144262E+03  0.16987414943E+03 0.  0.
        -24    2    5    5    0    0 -0.93791421719E+02  0.90714299933E+02  0.13672704282E+03  0.20502414787E+03  0.79465099075E+02 0.  0.
          5    1    3    3  501    0  0.14853864678E+03 -0.38786527589E+01 -0.27845481034E+03  0.31565478760E+03  0.47000000000E+01 0. -1.
        -13    1    4    4    0    0  0.44363666190E+02 -0.29523159503E+02 -0.10522351420E+03  0.11794803841E+03  0.00000000000E+00 0.  1.
         14    1    4    4    0    0  0.15053230427E+01 -0.22185854521E+02 -0.30022723539E+03  0.30104961553E+03  0.00000000000E+00 0. -1.
         -5    1    5    5    0  502 -0.10061621429E+03 -0.35126633150E+02  0.46319195065E+02  0.11629729475E+03  0.47000000000E+01 0.  1.
         11    1    6    6    0    0 -0.69967087728E+02  0.16340444917E+02  0.85243190493E+02  0.11148455064E+03  0.00000000000E+00 0. -1.
        -12    1    6    6    0    0 -0.23824333991E+02  0.74373855016E+02  0.51483852323E+02  0.93539597230E+02  0.00000000000E+00 0.  1.
</event>
<event>
12    1  0.1061634E+000  0.1862313E+03  0.7818608E-02  0.1162393E+00
         21   -1    0    0  501  502  0.00000000000E+00  0.00000000000E+00  0.12726046123E+03  0.12726046123E+03  0.00000000000E+00 0.  1.
         21   -1    0    0  502  503 -0.00000000000E+00 -0.00000000000E+00 -0.43049801951E+03  0.43049801951E+03  0.00000000000E+00 0.  1.
         -6    2    1    2    0  503  0.83836925909E+01 -0.67796986634E+02  0.18404171552E+02  0.18713852903E+03  0.17324952473E+03 0.  0.
        -24    2    3    3    0    0  0.20263548094E+02 -0.43695588165E+02 -0.55941455628E+02  0.10794654298E+03  0.78759722426E+02 0.  0.
          6    2    1    2  501    0 -0.83836925909E+01  0.67796986634E+02 -0.32164172983E+03  0.37061995171E+03  0.17099423539E+03 0.  0.
         24    2    5    5    0    0  0.23498461469E+01  0.94865031898E+02 -0.31708892892E+03  0.34077525496E+03  0.81101723108E+02 0.  0.
          5    1    5    5  501    0 -0.10733538738E+02 -0.27068045264E+02 -0.45528009114E+01  0.29844696754E+02  0.47000000000E+01 0. -1.
        -11    1    6    6    0    0 -0.24862338443E+02  0.53188309682E+01 -0.11906045581E+03  0.12174488890E+03  0.00000000000E+00 0.  1.
         12    1    6    6    0    0  0.27212184590E+02  0.89546200929E+02 -0.19802847311E+03  0.21903036606E+03  0.00000000000E+00 0. -1.
         -5    1    3    3    0  503 -0.11879855503E+02 -0.24101398469E+02  0.74345627179E+02  0.79191986057E+02  0.47000000000E+01 0.  1.
         13    1    4    4    0    0  0.34593776366E+01 -0.24737012793E+02 -0.73165788674E+02  0.77311834332E+02  0.00000000000E+00 0. -1.
        -14    1    4    4    0    0  0.16804170457E+02 -0.18958575372E+02  0.17224333046E+02  0.30634708645E+02  0.00000000000E+00 0.  1.
</event>
<event>
12    1  0.1061634E+000  0.1907925E+03  0.7818608E-02  0.1158801E+00
         21   -1    0    0  501  502  0.00000000000E+00  0.00000000000E+00  0.84921480304E+02  0.84921480304E+02  0.00000000000E+00 0.  1.
         21   -1    0    0  502  503 -0.00000000000E+00 -0.00000000000E+00 -0.51723717653E+03  0.51723717653E+03  0.00000000000E+00 0.  1.
         -6    2    1    2    0  503 -0.36588906417E+02  0.64453510580E+02 -0.34567414328E+03  0.39261498371E+03  0.17077151110E+03 0.  0.
        -24    2    3    3    0    0 -0.83334266989E+01 -0.29322744793E+02 -0.14393363955E+03  0.16830787493E+03  0.81739701531E+02 0.  0.
          6    2    1    2  501    0  0.36588906417E+02 -0.64453510580E+02 -0.86641552950E+02  0.20954367312E+03  0.17580895640E+03 0.  0.
         24    2    5    5    0    0  0.47991482442E+02 -0.55587181564E+02 -0.12544955771E+03  0.16786895941E+03  0.83959983688E+02 0.  0.
          5    1    5    5  501    0 -0.11402576026E+02 -0.88663290160E+01  0.38808004759E+02  0.41674713720E+02  0.47000000000E+01 0. -1.
        -13    1    6    6    0    0  0.46006042869E+02  0.69134810127E+01 -0.36467711048E+02  0.59112148914E+02  0.00000000000E+00 0.  1.
         14    1    6    6    0    0  0.19854395733E+01 -0.62500662577E+02 -0.88981846661E+02  0.10875681049E+03  0.00000000000E+00 0. -1.
         -5    1    3    3    0  503 -0.28255479718E+02  0.93776255373E+02 -0.20174050372E+03  0.22430710878E+03  0.47000000000E+01 0.  1.
         13    1    4    4    0    0  0.25007829173E+02  0.14651989602E+02 -0.30007117385E+02  0.41719293055E+02  0.00000000000E+00 0. -1.
        -14    1    4    4    0    0 -0.33341255872E+02 -0.43974734395E+02 -0.11392652217E+03  0.12658858188E+03  0.00000000000E+00 0.  1.
</event>
<event>
12    1  0.1061634E+000  0.2412058E+03  0.7818608E-02  0.1119170E+00
         21   -1    0    0  503  502  0.00000000000E+00  0.00000000000E+00  0.42763057975E+03  0.42763057975E+03  0.00000000000E+00 0. -1.
         21   -1    0    0  501  503 -0.00000000000E+00 -0.00000000000E+00 -0.46316408654E+03  0.46316408654E+03  0.00000000000E+00 0. -1.
          6    2    1    2  501    0  0.95890288212E+02  0.13830336056E+03  0.35689655037E+03  0.43016296327E+03  0.17129582712E+03 0.  0.
         24    2    3    3    0    0  0.19130128383E+02  0.42784257168E+02  0.64429741217E+02  0.11302743119E+03  0.80172028635E+02 0.  0.
         -6    2    1    2    0  502 -0.95890288212E+02 -0.13830336056E+03 -0.39243005716E+03  0.46063170302E+03  0.17279308189E+03 0.  0.
        -24    2    5    5    0    0  0.89495765670E+01 -0.18459641012E+02 -0.11977743845E+03  0.14485416289E+03  0.78836796470E+02 0.  0.
          5    1    3    3  501    0  0.76760159829E+02  0.95519103392E+02  0.29246680915E+03  0.31713553207E+03  0.47000000000E+01 0. -1.
        -11    1    4    4    0    0  0.32579044871E+02  0.57627427577E+02  0.65290186532E+02  0.92979153745E+02  0.00000000000E+00 0.  1.
         12    1    4    4    0    0 -0.13448916488E+02 -0.14843170409E+02 -0.86044531467E+00  0.20048277448E+02  0.00000000000E+00 0. -1.
         -5    1    5    5    0  502 -0.10483986478E+03 -0.11984371955E+03 -0.27265261871E+03  0.31577754013E+03  0.47000000000E+01 0.  1.
         11    1    6    6    0    0  0.10677818097E+02  0.15866381784E+02  0.11285034491E+01  0.19158063323E+02  0.00000000000E+00 0. -1.
        -12    1    6    6    0    0 -0.17282415303E+01 -0.34326022797E+02 -0.12090594190E+03  0.12569609956E+03  0.00000000000E+00 0.  1.
</event>
<event>
12    1  0.1061634E+000  0.2256301E+03  0.7818608E-02  0.1129774E+00
         21   -1    0    0  503  502  0.00000000000E+00  0.00000000000E+00  0.26685442189E+03  0.26685442189E+03  0.00000000000E+00 0.  1.
         21   -1    0    0  501  503 -0.00000000000E+00 -0.00000000000E+00 -0.29740647464E+03  0.29740647464E+03  0.00000000000E+00 0.  1.
          6    2    1    2  501    0  0.92973756700E+02 -0.11270604333E+03  0.15373502733E+03  0.27293518259E+03  0.17179168674E+03 0.  0.
         24    2    3    3    0    0  0.92572149375E+01  0.48565397253E+01  0.69997016151E+02  0.10601135321E+03  0.78927452344E+02 0.  0.
         -6    2    1    2    0  502 -0.92973756700E+02  0.11270604333E+03 -0.18428708008E+03  0.29132571393E+03  0.17193653503E+03 0.  0.
        -24    2    5    5    0    0  0.16575715265E+02  0.31087558063E+02 -0.90513539875E+02  0.12556012406E+03  0.79570429496E+02 0.  0.
          5    1    3    3  501    0  0.83716541763E+02 -0.11756258305E+03  0.83738011175E+02  0.16692382938E+03  0.47000000000E+01 0. -1.
        -13    1    4    4    0    0 -0.78158768407E+01 -0.33609690450E-01  0.83397702257E+02  0.83763153010E+02  0.00000000000E+00 0.  1.
         14    1    4    4    0    0  0.17073091778E+02  0.48901494158E+01 -0.13400686106E+02  0.22248200203E+02  0.00000000000E+00 0. -1.
         -5    1    5    5    0  502 -0.10954947197E+03  0.81618485263E+02 -0.93773540200E+02  0.16576558987E+03  0.47000000000E+01 0.  1.
         13    1    6    6    0    0 -0.24380628358E+02  0.23472228712E+02 -0.10641023332E+02  0.35476639319E+02  0.00000000000E+00 0. -1.
        -14    1    6    6    0    0  0.40956343623E+02  0.76153293508E+01 -0.79872516542E+02  0.90083484740E+02  0.00000000000E+00 0.  1.
</event>
<event>
12    1  0.1061634E+000  0.2295125E+03  0.7818608E-02  0.1128099E+00
         21   -1    0    0  501  502  0.00000000000E+00  0.00000000000E+00  0.56093276627E+03  0.56093276627E+03  0.00000000000E+00 0.  1.
         21   -1    0    0  502  503 -0.00000000000E+00 -0.00000000000E+00 -0.14534369514E+03  0.14534369514E+03  0.00000000000E+00 0.  1.
         -6    2    1    2    0  503  0.13654530235E+03 -0.42251438862E+02  0.42117025238E+03  0.47669610513E+03  0.17153714314E+03 0.  0.
        -24    2    3    3    0    0  0.30032451641E+02 -0.68720910902E+02  0.24773742000E+03  0.27139959356E+03  0.81605136904E+02 0.  0.
          6    2    1    2  501    0 -0.13654530235E+03  0.42251438862E+02 -0.55811812533E+01  0.22958035627E+03  0.17957223260E+03 0.  0.
         24    2    5    5    0    0 -0.77887275956E+02  0.10977840073E+02  0.67217478432E+02  0.13088619792E+03  0.80162751135E+02 0.  0.
          5    1    5    5  501    0 -0.58658026390E+02  0.31273598789E+02 -0.72798659686E+02  0.98694158354E+02  0.47000000000E+01 0. -1.
        -11    1    6    6    0    0  0.29446828771E+01  0.29106985474E+02  0.14070912134E+02  0.32463492247E+02  0.00000000000E+00 0.  1.
         12    1    6    6    0    0 -0.80831958833E+02 -0.18129145401E+02  0.53146566299E+02  0.98422705669E+02  0.00000000000E+00 0. -1.
         -5    1    3    3    0  503  0.10651285071E+03  0.26469472040E+02  0.17343283238E+03  0.20529651157E+03  0.47000000000E+01 0.  1.
         13    1    4    4    0    0  0.54528005361E+02 -0.37829265398E+02  0.19186001721E+03  0.20301384901E+03  0.00000000000E+00 0. -1.
        -14    1    4    4    0    0 -0.24495553720E+02 -0.30891645503E+02  0.55877402795E+02  0.68385744546E+02  0.00000000000E+00 0.  1.
</event>
<event>
12    1  0.1061634E+000  0.1926991E+03  0.7818608E-02  0.1156069E+00
         21   -1    0    0  501  502  0.00000000000E+00  0.00000000000E+00  0.47579243749E+03  0.47579243749E+03  0.00000000000E+00 0. -1.
         21   -1    0    0  502  503 -0.00000000000E+00 -0.00000000000E+00 -0.10466135286E+03  0.10466135286E+03  0.00000000000E+00 0. -1.
         -6    2    1    2    0  503  0.56074182598E+02 -0.64352517164E+02  0.33199484083E+03  0.38382067341E+03  0.17266202413E+03 0.  0.
        -24    2    3    3    0    0 -0.18952314273E+01 -0.18973420477E+02  0.28421679238E+03  0.29593126965E+03  0.80203171394E+02 0.  0.
          6    2    1    2  501    0 -0.56074182598E+02  0.64352517164E+02  0.39136243793E+02  0.19663311694E+03  0.17276393339E+03 0.  0.
         24    2    5    5    0    0 -0.93161509311E+02  0.51772557624E+02  0.66484037248E+02  0.14863606503E+03  0.79454943709E+02 0.  0.
          5    1    5    5  501    0  0.37087326713E+02  0.12579959540E+02 -0.27347793455E+02  0.47997051905E+02  0.47000000000E+01 0. -1.
        -13    1    6    6    0    0 -0.43626681660E+02  0.48133593927E+02  0.73925989041E+02  0.98413322638E+02  0.00000000000E+00 0.  1.
         14    1    6    6    0    0 -0.49534827651E+02  0.36389636971E+01 -0.74419517930E+01  0.50222742395E+02  0.00000000000E+00 0. -1.
         -5    1    3    3    0  503  0.57969414025E+02 -0.45379096687E+02  0.47778048457E+02  0.87889403758E+02  0.47000000000E+01 0.  1.
         13    1    4    4    0    0  0.33265404906E+01  0.30512168038E+01 -0.44733879119E+01  0.63550763197E+01  0.00000000000E+00 0. -1.
        -14    1    4    4    0    0 -0.52217719179E+01 -0.22024637280E+02  0.28869018029E+03  0.28957619333E+03  0.00000000000E+00 0.  1.
</event>
<event>
12    1  0.1061634E+000  0.3174513E+03  0.7818608E-02  0.1076992E+00
         21   -1    0    0  501  502  0.00000000000E+00  0.00000000000E+00  0.18866492864E+03  0.18866492864E+03  0.00000000000E+00 0. -1.
         21   -1    0    0  502  503 -0.00000000000E+00 -0.00000000000E+00 -0.62989128745E+03  0.62989128745E+03  0.00000000000E+00 0. -1.
         -6    2    1    2    0  503 -0.21068267579E+03  0.16379889262E+03 -0.38254728175E+03  0.49710941744E+03  0.17192464347E+03 0.  0.
        -24    2    3    3    0    0 -0.15873410916E+03  0.42668563247E+02 -0.24910748825E+03  0.30949417617E+03  0.81944985681E+02 0.  0.
          6    2    1    2  501    0  0.21068267579E+03 -0.16379889262E+03 -0.58679077061E+02  0.32144679864E+03  0.16931492306E+03 0.  0.
         24    2    5    5    0    0  0.66985219174E+02 -0.40501359956E+02 -0.68980410467E+02  0.13176430586E+03  0.80474564450E+02 0.  0.
          5    1    5    5  501    0  0.14369745662E+03 -0.12329753266E+03  0.10301333406E+02  0.18968249278E+03  0.47000000000E+01 0. -1.
        -11    1    6    6    0    0 -0.15918762436E+02  0.36388944562E+01 -0.21021831254E+01  0.16464134483E+02  0.00000000000E+00 0.  1.
         12    1    6    6    0    0  0.82903981610E+02 -0.44140254412E+02 -0.66878227341E+02  0.11530017137E+03  0.00000000000E+00 0. -1.
         -5    1    3    3    0  503 -0.51948566626E+02  0.12113032937E+03 -0.13343979350E+03  0.18761524127E+03  0.47000000000E+01 0.  1.
         13    1    4    4    0    0 -0.20938303080E+02  0.38926132986E+02 -0.79226326753E+02  0.90721922466E+02  0.00000000000E+00 0. -1.
        -14    1    4    4    0    0 -0.13779580608E+03  0.37424302618E+01 -0.16988116150E+03  0.21877225370E+03  0.00000000000E+00 0.  1.
</event>
<event>
12    1  0.1061634E+000  0.2042938E+03  0.7818608E-02  0.1146369E+00
         21   -1    0    0  501  502  0.00000000000E+00  0.00000000000E+00  0.53583907094E+02  0.53583907094E+02  0.00000000000E+00 0. -1.
         21   -1    0    0  502  503 -0.00000000000E+00 -0.00000000000E+00 -0.80186006173E+03  0.80186006173E+03  0.00000000000E+00 0.  1.
         -6    2    1    2    0  503  0.96934274727E+02  0.54899486095E+02 -0.29518133202E+03  0.35842195051E+03  0.17007077539E+03 0.  0.
        -24    2    3    3    0    0 -0.33423885080E+01  0.60063305495E+02 -0.11560783622E+03  0.15262883931E+03  0.79445695711E+02 0.  0.
          6    2    1    2  501    0 -0.96934274727E+02 -0.54899486095E+02 -0.45309482261E+03  0.49702201831E+03  0.17124766048E+03 0.  0.
         24    2    5    5    0    0 -0.44722766061E+02  0.32737534428E+02 -0.27553758344E+03  0.29219293789E+03  0.79899193378E+02 0.  0.
          5    1    5    5  501    0 -0.52211508666E+02 -0.87637020523E+02 -0.17755723917E+03  0.20482908042E+03  0.47000000000E+01 0. -1.
        -13    1    6    6    0    0 -0.11787286714E+02 -0.14588753378E+02 -0.17726343839E+03  0.17825290585E+03  0.00000000000E+00 0.  1.
         14    1    6    6    0    0 -0.32935479347E+02  0.47326287806E+02 -0.98274145048E+02  0.11394003204E+03  0.00000000000E+00 0. -1.
         -5    1    3    3    0  503  0.10027666324E+03 -0.51638194002E+01 -0.17957349581E+03  0.20579311120E+03  0.47000000000E+01 0.  1.
         13    1    4    4    0    0  0.31842958520E+02  0.41969802032E+02 -0.93462737220E+02  0.10728803073E+03  0.00000000000E+00 0. -1.
        -14    1    4    4    0    0 -0.35185347027E+02  0.18093503464E+02 -0.22145098996E+02  0.45340808579E+02  0.00000000000E+00 0.  1.
</event>
<event>
12    1  0.1061634E+000  0.1852912E+03  0.7818608E-02  0.1164416E+00
         21   -1    0    0  503  502  0.00000000000E+00  0.00000000000E+00  0.21637734280E+03  0.21637734280E+03  0.00000000000E+00 0. -1.
         21   -1    0    0  501  503 -0.00000000000E+00 -0.00000000000E+00 -0.17215418427E+03  0.17215418427E+03  0.00000000000E+00 0. -1.
          6    2    1    2  501    0  0.40835652018E+02  0.22776570363E+02  0.86818376478E+02  0.19840739290E+03  0.17216776827E+03 0.  0.
         24    2    3    3    0    0 -0.23783611529E+02 -0.35425263809E+02  0.30182294410E+02  0.94518805873E+02  0.78754201631E+02 0.  0.
         -6    2    1    2    0  502 -0.40835652018E+02 -0.22776570363E+02 -0.42595217955E+02  0.19012413417E+03  0.17929448170E+03 0.  0.
        -24    2    5    5    0    0 -0.74666144510E+02 -0.45104999257E+02 -0.74008021187E+02  0.13862738509E+03  0.78299876131E+02 0.  0.
          5    1    3    3  501    0  0.64619263547E+02  0.58201834172E+02  0.56636082068E+02  0.10388858703E+03  0.47000000000E+01 0. -1.
        -13    1    4    4    0    0  0.11939095730E+02 -0.44021668277E+02  0.34957698619E+02  0.57467294851E+02  0.00000000000E+00 0.  1.
         14    1    4    4    0    0 -0.35722707259E+02  0.85964044680E+01 -0.47754042094E+01  0.37051511022E+02  0.00000000000E+00 0. -1.
         -5    1    5    5    0  502  0.33830492492E+02  0.22328428894E+02  0.31412803232E+02  0.51496749082E+02  0.47000000000E+01 0.  1.
         11    1    6    6    0    0  0.18097977835E+01  0.15484195388E+02 -0.24949272996E+02  0.29419413622E+02  0.00000000000E+00 0. -1.
        -12    1    6    6    0    0 -0.76475942293E+02 -0.60589194645E+02 -0.49058748191E+02  0.10920797146E+03  0.00000000000E+00 0.  1.
</event>
<event>
12    1  0.1061634E+000  0.3075539E+03  0.7818608E-02  0.1081767E+00
         21   -1    0    0  501  502  0.00000000000E+00  0.00000000000E+00  0.12396950433E+03  0.12396950433E+03  0.00000000000E+00 0.  1.
         21   -1    0    0  502  503 -0.00000000000E+00 -0.00000000000E+00 -0.76094782227E+03  0.76094782227E+03  0.00000000000E+00 0. -1.
         -6    2    1    2    0  503  0.20145942555E+03 -0.15290952252E+03 -0.34473411929E+03  0.46065786964E+03  0.17145506013E+03 0.  0.
        -24    2    3    3    0    0  0.57395622189E+02 -0.10027668809E+02 -0.85458597381E+02  0.13139279434E+03  0.81031370154E+02 0.  0.
          6    2    1    2  501    0 -0.20145942555E+03  0.15290952252E+03 -0.29224419866E+03  0.42425945695E+03  0.17499197966E+03 0.  0.
         24    2    5    5    0    0 -0.32753862647E+02  0.12870178765E+02 -0.10514652181E+03  0.13598837718E+03  0.78731128910E+02 0.  0.
          5    1    5    5  501    0 -0.16870556290E+03  0.14003934375E+03 -0.18709767684E+03  0.28827107977E+03  0.47000000000E+01 0. -1.
        -11    1    6    6    0    0  0.18741875081E+02  0.26714217691E+02 -0.34674073659E+02  0.47615109918E+02  0.00000000000E+00 0.  1.
         12    1    6    6    0    0 -0.51495737729E+02 -0.13844038927E+02 -0.70472448151E+02  0.88373267262E+02  0.00000000000E+00 0. -1.
         -5    1    3    3    0  503  0.14406380336E+03 -0.14288185371E+03 -0.25927552191E+03  0.32926507531E+03  0.47000000000E+01 0.  1.
         13    1    4    4    0    0 -0.60645210593E+01 -0.58000318976E+00 -0.63183403220E+02  0.63476430758E+02  0.00000000000E+00 0. -1.
        -14    1    4    4    0    0  0.63460143248E+02 -0.94476656188E+01 -0.22275194161E+02  0.67916363578E+02  0.00000000000E+00 0.  1.
</event>
<event>
12    1  0.1061634E+000  0.2001444E+03  0.7818608E-02  0.1149736E+00
         21   -1    0    0  503  502  0.00000000000E+00  0.00000000000E+00  0.29846099813E+03  0.29846099813E+03  0.00000000000E+00 0.  1.
         21   -1    0    0  501  503 -0.00000000000E+00 -0.00000000000E+00 -0.33467473848E+03  0.33467473848E+03  0.00000000000E+00 0.  1.
          6    2    1    2  501    0 -0.35327481168E+02 -0.90808967944E+02 -0.26334985260E+03  0.33077325004E+03  0.17482419309E+03 0.  0.
         24    2    3    3    0    0 -0.75286068052E+02 -0.50218745317E+02 -0.92567851613E+02  0.15068206008E+03  0.77112655602E+02 0.  0.
         -6    2    1    2    0  502  0.35327481168E+02  0.90808967944E+02  0.22713611225E+03  0.30236248657E+03  0.17417795559E+03 0.  0.
        -24    2    5    5    0    0  0.80610230436E+02  0.81408556548E+02  0.11703972734E+03  0.18285433168E+03  0.81314491370E+02 0.  0.
          5    1    3    3  501    0  0.39958586883E+02 -0.40590222627E+02 -0.17078200099E+03  0.18009118996E+03  0.47000000000E+01 0. -1.
        -11    1    4    4    0    0 -0.13454238939E+02  0.82589698988E+00  0.12589530570E+02  0.18444373973E+02  0.00000000000E+00 0.  1.
         12    1    4    4    0    0 -0.61831829113E+02 -0.51044642307E+02 -0.10515738218E+03  0.13223768611E+03  0.00000000000E+00 0. -1.
         -5    1    5    5    0  502 -0.45282749268E+02  0.94004113959E+01  0.11009638491E+03  0.11950815490E+03  0.47000000000E+01 0.  1.
         13    1    6    6    0    0  0.56104191408E+02  0.45247312453E+02  0.17528050280E+02  0.74177032323E+02  0.00000000000E+00 0. -1.
        -14    1    6    6    0    0  0.24506039028E+02  0.36161244096E+02  0.99511677060E+02  0.10867729935E+03  0.00000000000E+00 0.  1.
</event>
<event>
12    1  0.1087463E+000  0.1948965E+03  0.7818608E-02  0.1156860E+00
         21   -1    0    0  503  502  0.00000000000E+00  0.00000000000E+00  0.30912156109E+03  0.30912156109E+03  0.00000000000E+00 0.  1.
         21   -1    0    0  501  503 -0.00000000000E+00 -0.00000000000E+00 -0.20906266048E+03  0.20906266048E+03  0.00000000000E+00 0.  1.
          6    2    1    2  501    0  0.53827481094E+01 -0.62807731465E+02  0.22256705103E+03  0.28798236276E+03  0.17153414805E+03 0.  0.
         24    2    3    3    0    0  0.10485125768E+01 -0.10351668979E+03  0.12136824329E+03  0.17871528824E+03  0.80573564707E+02 0.  0.
         -6    2    1    2    0  502 -0.53827481094E+01  0.62807731465E+02 -0.12250815042E+03  0.23020185881E+03  0.18442034533E+03 0.  0.
        -24    2    5    5    0    0 -0.74127015424E+02  0.25849545648E+02 -0.47320319181E+02  0.12172613916E+03  0.80093863195E+02 0.  0.
          5    1    3    3  501    0  0.43342355326E+01  0.40708958321E+02  0.10119880774E+03  0.10926707451E+03  0.47000000000E+01 0. -1.
        -11    1    4    4    0    0 -0.17346043712E+02  0.19977731056E+01  0.84972074935E+00  0.17481371663E+02  0.00000000000E+00 0.  1.
         12    1    4    4    0    0  0.18394556289E+02 -0.10551446289E+03  0.12051852254E+03  0.16123391658E+03  0.00000000000E+00 0. -1.
         -5    1    5    5    0  502  0.68744267315E+02  0.36958185817E+02 -0.75187831235E+02  0.10847571965E+03  0.47000000000E+01 0.  1.
         13    1    6    6    0    0 -0.70312135206E+01  0.14624318582E+02 -0.51078542013E+02  0.53594086537E+02  0.00000000000E+00 0. -1.
        -14    1    6    6    0    0 -0.67095801903E+02  0.11225227066E+02  0.37582228317E+01  0.68132052623E+02  0.00000000000E+00 0.  1.
</event>
<event>
12    1  0.1061634E+000  0.4060190E+03  0.7818608E-02  0.1041758E+00
         21   -1    0    0  501  502  0.00000000000E+00  0.00000000000E+00  0.54203871074E+03  0.54203871074E+03  0.00000000000E+00 0.  1.
         21   -1    0    0  502  503 -0.00000000000E+00 -0.00000000000E+00 -0.52200538565E+03  0.52200538565E+03  0.00000000000E+00 0.  1.
         -6    2    1    2    0  503 -0.18130649131E+03 -0.31964849654E+03  0.35401988455E+03  0.53830800515E+03  0.17145910477E+03 0.  0.
        -24    2    3    3    0    0 -0.54432659131E+02 -0.18034261790E+03  0.11927543095E+03  0.23725959440E+03  0.81111728458E+02 0.  0.
          6    2    1    2  501    0  0.18130649131E+03  0.31964849654E+03 -0.33398655947E+03  0.52573609125E+03  0.17263896026E+03 0.  0.
         24    2    5    5    0    0  0.57938244091E+02  0.24146974820E+03 -0.22506046642E+03  0.34347631822E+03  0.75228240788E+02 0.  0.
          5    1    5    5  501    0  0.12336824722E+03  0.78178748346E+02 -0.10892609305E+03  0.18225977303E+03  0.47000000000E+01 0. -1.
        -11    1    6    6    0    0  0.23650060824E+02  0.66657196146E+02 -0.11206689149E+03  0.13251979227E+03  0.00000000000E+00 0.  1.
         12    1    6    6    0    0  0.34288183267E+02  0.17481255205E+03 -0.11299357493E+03  0.21095652595E+03  0.00000000000E+00 0. -1.
         -5    1    3    3    0  503 -0.12687383218E+03 -0.13930587865E+03  0.23474445360E+03  0.30104841075E+03  0.47000000000E+01 0.  1.
         11    1    4    4    0    0 -0.34300365883E+02 -0.13219691666E+02  0.20584685902E+02  0.42130803946E+02  0.00000000000E+00 0. -1.
        -12    1    4    4    0    0 -0.20132293249E+02 -0.16712292623E+03  0.98690745052E+02  0.19512879045E+03  0.00000000000E+00 0.  1.
</event>
<event>
12    1  0.1061634E+000  0.1890441E+03  0.7818608E-02  0.1159347E+00
         21   -1    0    0  501  502  0.00000000000E+00  0.00000000000E+00  0.13400408612E+04  0.13400408612E+04  0.00000000000E+00 0.  1.
         21   -1    0    0  502  503 -0.00000000000E+00 -0.00000000000E+00 -0.31342577803E+02  0.31342577803E+02  0.00000000000E+00 0.  1.
         -6    2    1    2    0  503  0.72934191139E+02  0.30664662219E+02  0.91962688831E+03  0.93885637936E+03  0.17169149546E+03 0.  0.
        -24    2    3    3    0    0  0.77721885819E+02  0.59705377543E+02  0.42526129060E+03  0.44359309648E+03  0.79512554486E+02 0.  0.
          6    2    1    2  501    0 -0.72934191139E+02 -0.30664662219E+02  0.38907139507E+03  0.43252705963E+03  0.17159076054E+03 0.  0.
         24    2    5    5    0    0  0.19065490499E+02 -0.38251106872E+02  0.24323449899E+03  0.25986558210E+03  0.80873105268E+02 0.  0.
          5    1    5    5  501    0 -0.91999681638E+02  0.75864446524E+01  0.14583689608E+03  0.17266147753E+03  0.47000000000E+01 0. -1.
        -11    1    6    6    0    0  0.27678936321E+02 -0.34352421682E+02  0.51141728800E+02  0.67540275509E+02  0.00000000000E+00 0.  1.
         12    1    6    6    0    0 -0.86134458218E+01 -0.38986851896E+01  0.19209277019E+03  0.19232530659E+03  0.00000000000E+00 0. -1.
         -5    1    3    3    0  503 -0.47876946803E+01 -0.29040715324E+02  0.49436559771E+03  0.49526328288E+03  0.47000000000E+01 0.  1.
         11    1    4    4    0    0  0.56313010251E+02  0.32877109914E+02  0.12144323074E+03  0.13784236566E+03  0.00000000000E+00 0. -1.
        -12    1    4    4    0    0  0.21408875568E+02  0.26828267630E+02  0.30381805987E+03  0.30575073082E+03  0.00000000000E+00 0.  1.
</event>
<event>
12    1  0.1061634E+000  0.2531913E+03  0.7818608E-02  0.1112887E+00
         21   -1    0    0  503  502  0.00000000000E+00  0.00000000000E+00  0.11329252652E+03  0.11329252652E+03  0.00000000000E+00 0.  1.
         21   -1    0    0  501  503 -0.00000000000E+00 -0.00000000000E+00 -0.55785043448E+03  0.55785043448E+03  0.00000000000E+00 0. -1.
          6    2    1    2  501    0  0.18470522596E+03  0.15523102989E+02 -0.17337500199E+03  0.30686271954E+03  0.17247854971E+03 0.  0.
         24    2    3    3    0    0  0.14731095136E+03 -0.11838767395E+02 -0.51423405210E+02  0.17632044409E+03  0.81264134750E+02 0.  0.
         -6    2    1    2    0  502 -0.18470522596E+03 -0.15523102989E+02 -0.27118290597E+03  0.36428024145E+03  0.15748948727E+03 0.  0.
        -24    2    5    5    0    0 -0.13842120771E+03 -0.61061418510E+02 -0.22760281601E+03  0.28593955747E+03  0.84080087405E+02 0.  0.
          5    1    3    3  501    0  0.37394274594E+02  0.27361870385E+02 -0.12195159678E+03  0.13054227545E+03  0.47000000000E+01 0. -1.
        -11    1    4    4    0    0  0.10713515870E+03  0.23737641639E+02 -0.13393513445E+02  0.11054774563E+03  0.00000000000E+00 0.  1.
         12    1    4    4    0    0  0.40175792658E+02 -0.35576409034E+02 -0.38029891766E+02  0.65772698464E+02  0.00000000000E+00 0. -1.
         -5    1    5    5    0  502 -0.46284018245E+02  0.45538315521E+02 -0.43580089966E+02  0.78340683982E+02  0.47000000000E+01 0.  1.
         11    1    6    6    0    0 -0.97845488673E+01  0.69434520100E+01 -0.71651220609E+02  0.72648787582E+02  0.00000000000E+00 0. -1.
        -12    1    6    6    0    0 -0.12863665884E+03 -0.68004870520E+02 -0.15595159540E+03  0.21329076989E+03  0.00000000000E+00 0.  1.
</event>
<event>
12    1  0.1061634E+000  0.2346134E+03  0.7818608E-02  0.1123728E+00
         21   -1    0    0  501  502  0.00000000000E+00  0.00000000000E+00  0.49369102456E+02  0.49369102456E+02  0.00000000000E+00 0.  1.
         21   -1    0    0  502  503 -0.00000000000E+00 -0.00000000000E+00 -0.15616405840E+04  0.15616405840E+04  0.00000000000E+00 0.  1.
         -6    2    1    2    0  503 -0.65163115759E-01 -0.15745566374E+03 -0.31949018421E+03  0.39537376656E+03  0.17162210576E+03 0.  0.
        -24    2    3    3    0    0 -0.37563185999E+02 -0.16168426861E+03 -0.20584724893E+03  0.27553725477E+03  0.77426695747E+02 0.  0.
          6    2    1    2  501    0  0.65163115759E-01  0.15745566374E+03 -0.11927812974E+04  0.12156359199E+04  0.17392865260E+03 0.  0.
         24    2    5    5    0    0 -0.65792728299E+02  0.11891731933E+03 -0.84120357898E+03  0.85584230143E+03  0.79828388999E+02 0.  0.
          5    1    5    5  501    0  0.65857891415E+02  0.38538344409E+02 -0.35157771839E+03  0.35979361851E+03  0.47000000000E+01 0. -1.
        -13    1    6    6    0    0 -0.59429013541E+02  0.30080453077E+02 -0.42771038545E+03  0.43286581654E+03  0.00000000000E+00 0.  1.
         14    1    6    6    0    0 -0.63637147582E+01  0.88836866257E+02 -0.41349319352E+03  0.42297648488E+03  0.00000000000E+00 0. -1.
         -5    1    3    3    0  503  0.37498022883E+02  0.42286048649E+01 -0.11364293528E+03  0.11983651179E+03  0.47000000000E+01 0.  1.
         13    1    4    4    0    0 -0.10655191111E+02 -0.13722208311E+03 -0.12113632451E+03  0.18335059942E+03  0.00000000000E+00 0. -1.
        -14    1    4    4    0    0 -0.26907994887E+02 -0.24462185494E+02 -0.84710924417E+02  0.92186655345E+02  0.00000000000E+00 0.  1.
</event>
<event>
12    1  0.1061634E+000  0.1766811E+03  0.7818608E-02  0.1171793E+00
         21   -1    0    0  501  502  0.00000000000E+00  0.00000000000E+00  0.19579306895E+03  0.19579306895E+03  0.00000000000E+00 0.  1.
         21   -1    0    0  502  503 -0.00000000000E+00 -0.00000000000E+00 -0.18071274434E+03  0.18071274434E+03  0.00000000000E+00 0.  1.
         -6    2    1    2    0  503  0.38821147242E+02 -0.15202475216E+02  0.76097647250E+02  0.19237220903E+03  0.17169163685E+03 0.  0.
        -24    2    3    3    0    0  0.60816890507E+02  0.34246174212E+02  0.89504284842E+01  0.10600195582E+03  0.79276792621E+02 0.  0.
          6    2    1    2  501    0 -0.38821147242E+02  0.15202475216E+02 -0.61017322642E+02  0.18413360427E+03  0.16865311687E+03 0.  0.
         24    2    5    5    0    0 -0.53074742618E+02 -0.43942565730E+02 -0.13325352636E+02  0.10668739808E+03  0.80353957581E+02 0.  0.
          5    1    5    5  501    0  0.14253595377E+02  0.59145040946E+02 -0.47691970007E+02  0.77446206187E+02  0.47000000000E+01 0. -1.
        -13    1    6    6    0    0 -0.49375716102E+02 -0.27221675566E+02  0.27267644795E+02  0.62629908301E+02  0.00000000000E+00 0.  1.
         14    1    6    6    0    0 -0.36990265169E+01 -0.16720890164E+02 -0.40592997431E+02  0.44057489777E+02  0.00000000000E+00 0. -1.
         -5    1    3    3    0  503 -0.21995743265E+02 -0.49448649428E+02  0.67147218766E+02  0.86370253212E+02  0.47000000000E+01 0.  1.
         13    1    4    4    0    0  0.62836949651E+02  0.81674347973E+01  0.32135757026E+02  0.71048547573E+02  0.00000000000E+00 0. -1.
        -14    1    4    4    0    0 -0.20200591440E+01  0.26078739415E+02 -0.23185328542E+02  0.34953408246E+02  0.00000000000E+00 0.  1.
</event>
<event>
12    1  0.1061634E+000  0.1919878E+03  0.7818608E-02  0.1157225E+00
         21   -1    0    0  501  502  0.00000000000E+00  0.00000000000E+00  0.24108473050E+04  0.24108473050E+04  0.00000000000E+00 0. -1.
         21   -1    0    0  502  503 -0.00000000000E+00 -0.00000000000E+00 -0.21684765873E+02  0.21684765873E+02  0.00000000000E+00 0. -1.
         -6    2    1    2    0  503  0.78252117381E+02 -0.26781776056E+02  0.18702918413E+04  0.18801199117E+04  0.17325892054E+03 0.  0.
        -24    2    3    3    0    0  0.26051807876E+02  0.38920067971E+02  0.11945471963E+04  0.11991687241E+04  0.94176199064E+02 0.  0.
          6    2    1    2  501    0 -0.78252117381E+02  0.26781776056E+02  0.51887069787E+03  0.55241215916E+03  0.17056299445E+03 0.  0.
         24    2    5    5    0    0 -0.11948112157E+03  0.34611385519E+02  0.40307832702E+03  0.42915999197E+03  0.78946023164E+02 0.  0.
          5    1    5    5  501    0  0.41229004185E+02 -0.78296094628E+01  0.11579237085E+03  0.12325216719E+03  0.47000000000E+01 0. -1.
        -13    1    6    6    0    0 -0.12820916153E+03  0.25542014814E+02  0.32902201285E+03  0.35404161981E+03  0.00000000000E+00 0.  1.
         14    1    6    6    0    0  0.87280399596E+01  0.90693707047E+01  0.74056314177E+02  0.75118372160E+02  0.00000000000E+00 0. -1.
         -5    1    3    3    0  503  0.52200309506E+02 -0.65701844027E+02  0.67574464503E+03  0.68095118761E+03  0.47000000000E+01 0.  1.
         13    1    4    4    0    0  0.12384061308E+02  0.28481063542E+02  0.10526780719E+03  0.10975357482E+03  0.00000000000E+00 0. -1.
        -14    1    4    4    0    0  0.13667746568E+02  0.10439004429E+02  0.10892793891E+04  0.10894151493E+04  0.00000000000E+00 0.  1.
</event>
<event>
12    1  0.1061634E+000  0.1813720E+03  0.7818608E-02  0.1166946E+00
         21   -1    0    0  503  502  0.00000000000E+00  0.00000000000E+00  0.67733729673E+02  0.67733729673E+02  0.00000000000E+00 0. -1.
         21   -1    0    0  501  503 -0.00000000000E+00 -0.00000000000E+00 -0.10452664277E+04  0.10452664277E+04  0.00000000000E+00 0. -1.
          6    2    1    2  501    0  0.20724567232E+02  0.47807025924E+02 -0.80916278700E+02  0.19860327395E+03  0.17372621233E+03 0.  0.
         24    2    3    3    0    0 -0.46286765462E+02  0.32865948499E+02 -0.87154836409E+02  0.12950360603E+03  0.77152985927E+02 0.  0.
         -6    2    1    2    0  502 -0.20724567232E+02 -0.47807025924E+02 -0.89661641937E+03  0.91439688347E+03  0.17171382472E+03 0.  0.
        -24    2    5    5    0    0  0.90065221029E+01 -0.29803626727E+02 -0.20335126690E+03  0.22024508330E+03  0.78656120927E+02 0.  0.
          5    1    3    3  501    0  0.67011332694E+02  0.14941077424E+02  0.62385577085E+01  0.69099667918E+02  0.47000000000E+01 0. -1.
        -11    1    4    4    0    0  0.13520505048E+02  0.22512968679E+02 -0.40164611471E+01  0.26566327854E+02  0.00000000000E+00 0.  1.
         12    1    4    4    0    0 -0.59807270510E+02  0.10352979820E+02 -0.83138375262E+02  0.10293727818E+03  0.00000000000E+00 0. -1.
         -5    1    5    5    0  502 -0.29731089335E+02 -0.18003399197E+02 -0.69326515247E+03  0.69415180017E+03  0.47000000000E+01 0.  1.
         11    1    6    6    0    0 -0.19073364886E+02  0.17390785723E+02 -0.99195424582E+02  0.10249860943E+03  0.00000000000E+00 0. -1.
        -12    1    6    6    0    0  0.28079886989E+02 -0.47194412450E+02 -0.10415584232E+03  0.11774647387E+03  0.00000000000E+00 0.  1.
</event>
<event>
12    1  0.1061634E+000  0.1807993E+03  0.7818608E-02  0.1167066E+00
         21   -1    0    0  501  502  0.00000000000E+00  0.00000000000E+00  0.40390953000E+02  0.40390953000E+02  0.00000000000E+00 0.  1.
         21   -1    0    0  502  503 -0.00000000000E+00 -0.00000000000E+00 -0.81959142187E+03  0.81959142187E+03  0.00000000000E+00 0.  1.
         -6    2    1    2    0  503  0.15855086468E+02 -0.52168585604E+02 -0.43910865271E+03  0.47481899618E+03  0.17223160323E+03 0.  0.
        -24    2    3    3    0    0 -0.81139672329E+01 -0.46225966996E+02 -0.10976561770E+03  0.14451798957E+03  0.81451101850E+02 0.  0.
          6    2    1    2  501    0 -0.15855086468E+02  0.52168585604E+02 -0.34009181615E+03  0.38516337869E+03  0.17238166892E+03 0.  0.
         24    2    5    5    0    0 -0.52911561535E+02  0.80250212190E+02 -0.17347556399E+03  0.21211764606E+03  0.75235593755E+02 0.  0.
          5    1    5    5  501    0  0.37056475067E+02 -0.28081626586E+02 -0.16661625217E+03  0.17304573263E+03  0.47000000000E+01 0. -1.
        -13    1    6    6    0    0 -0.36758375038E+02 -0.31744522977E+01 -0.58161750874E+02  0.68877024816E+02  0.00000000000E+00 0.  1.
         14    1    6    6    0    0 -0.16153186498E+02  0.83424664488E+02 -0.11531381311E+03  0.14324062124E+03  0.00000000000E+00 0. -1.
         -5    1    3    3    0  503  0.23969053701E+02 -0.59426186083E+01 -0.32934303501E+03  0.33030100660E+03  0.47000000000E+01 0.  1.
         11    1    4    4    0    0  0.35724776286E+02 -0.14632448807E+02 -0.33910462882E+02  0.51383729834E+02  0.00000000000E+00 0. -1.
        -12    1    4    4    0    0 -0.43838743519E+02 -0.31593518188E+02 -0.75855154817E+02  0.93134259740E+02  0.00000000000E+00 0.  1.
</event>
<event>
12    1  0.1061634E+000  0.2070531E+03  0.7818608E-02  0.1144431E+00
         21   -1    0    0  501  502  0.00000000000E+00  0.00000000000E+00  0.25853332484E+03  0.25853332484E+03  0.00000000000E+00 0.  1.
         21   -1    0    0  502  503 -0.00000000000E+00 -0.00000000000E+00 -0.16858966119E+03  0.16858966119E+03  0.00000000000E+00 0. -1.
         -6    2    1    2    0  503  0.68370220723E+02 -0.84755782963E+02  0.80637208407E+02  0.21986082284E+03  0.17314269321E+03 0.  0.
        -24    2    3    3    0    0  0.42717785296E+02  0.23381291326E+02  0.20965334730E+02  0.93628906162E+02  0.77170803054E+02 0.  0.
          6    2    1    2  501    0 -0.68370220723E+02  0.84755782963E+02  0.93064552489E+01  0.20726216319E+03  0.17610498106E+03 0.  0.
         24    2    5    5    0    0 -0.10825166763E+02  0.10799748037E+03  0.36382023266E+02  0.13938885388E+03  0.79529623212E+02 0.  0.
          5    1    5    5  501    0 -0.57545053960E+02 -0.23241697406E+02 -0.27075568017E+02  0.67873309312E+02  0.47000000000E+01 0. -1.
        -13    1    6    6    0    0 -0.43940530926E+02  0.42508713476E+02  0.18107143898E+02  0.63762290106E+02  0.00000000000E+00 0.  1.
         14    1    6    6    0    0  0.33115364162E+02  0.65488766893E+02  0.18274879367E+02  0.75626563777E+02  0.00000000000E+00 0. -1.
         -5    1    3    3    0  503  0.25652435427E+02 -0.10813707429E+03  0.59671873677E+02  0.12623191667E+03  0.47000000000E+01 0.  1.
         11    1    4    4    0    0  0.46640643266E+00  0.43319901503E+02  0.25063861433E+01  0.43394854219E+02  0.00000000000E+00 0. -1.
        -12    1    4    4    0    0  0.42251378863E+02 -0.19938610177E+02  0.18458948587E+02  0.50234051943E+02  0.00000000000E+00 0.  1.
</event>
<event>
12    1  0.1061634E+000  0.1898245E+03  0.7818608E-02  0.1159012E+00
         21   -1    0    0  503  502  0.00000000000E+00  0.00000000000E+00  0.24623670456E+03  0.24623670456E+03  0.00000000000E+00 0. -1.
         21   -1    0    0  501  503 -0.00000000000E+00 -0.00000000000E+00 -0.15642606385E+03  0.15642606385E+03  0.00000000000E+00 0. -1.
          6    2    1    2  501    0 -0.23157404803E+02  0.77538873744E+02  0.99109518576E+02  0.21261069303E+03  0.16980008180E+03 0.  0.
         24    2    3    3    0    0  0.21519357875E+02  0.86292062966E+02  0.11385426568E+03  0.16452609038E+03  0.78718725274E+02 0.  0.
         -6    2    1    2    0  502  0.23157404803E+02 -0.77538873744E+02 -0.92988778720E+01  0.19005207538E+03  0.17171132720E+03 0.  0.
        -24    2    5    5    0    0  0.49756006196E+00 -0.10924592611E+03  0.23513083754E+02  0.13889036548E+03  0.82478776532E+02 0.  0.
          5    1    3    3  501    0 -0.44676762678E+02 -0.87531892225E+01 -0.14744747102E+02  0.48084602650E+02  0.47000000000E+01 0. -1.
        -13    1    4    4    0    0 -0.15962494441E+02  0.76939609293E+02  0.88336843328E+02  0.11822818021E+03  0.00000000000E+00 0.  1.
         14    1    4    4    0    0  0.37481852316E+02  0.93524536737E+01  0.25517422351E+02  0.46297910171E+02  0.00000000000E+00 0. -1.
         -5    1    5    5    0  502  0.22659844741E+02  0.31707052370E+02 -0.32811961626E+02  0.51161709896E+02  0.47000000000E+01 0.  1.
         11    1    6    6    0    0 -0.30298514596E+02 -0.97213851808E+01 -0.11120105455E+01  0.31839313497E+02  0.00000000000E+00 0. -1.
        -12    1    6    6    0    0  0.30796074658E+02 -0.99524540933E+02  0.24625094300E+02  0.10705105199E+03  0.00000000000E+00 0.  1.
</event>
<event>
12    1  0.1061634E+000  0.3702023E+03  0.7818608E-02  0.1054676E+00
         21   -1    0    0  503  502  0.00000000000E+00  0.00000000000E+00  0.53957211908E+03  0.53957211908E+03  0.00000000000E+00 0.  1.
         21   -1    0    0  501  503 -0.00000000000E+00 -0.00000000000E+00 -0.25812917956E+03  0.25812917956E+03  0.00000000000E+00 0.  1.
          6    2    1    2  501    0  0.21351066501E+03  0.24868073975E+03  0.19362591433E+03  0.41722588459E+03  0.17075576029E+03 0.  0.
         24    2    3    3    0    0  0.19466860013E+02  0.42536759483E+02  0.25521106852E+02  0.87939299443E+02  0.69954692090E+02 0.  0.
         -6    2    1    2    0  502 -0.21351066501E+03 -0.24868073975E+03  0.87817025194E+02  0.38047541406E+03  0.17210693301E+03 0.  0.
        -24    2    5    5    0    0 -0.20912445992E+03 -0.26756698024E+03  0.73460687955E+02  0.35589649435E+03  0.77076023271E+02 0.  0.
          5    1    3    3  501    0  0.19404380500E+03  0.20614398027E+03  0.16810480747E+03  0.32928658514E+03  0.47000000000E+01 0. -1.
        -11    1    4    4    0    0  0.93024223710E+01  0.11679783705E+02  0.46785818271E+02  0.49110744249E+02  0.00000000000E+00 0.  1.
         12    1    4    4    0    0  0.10164437642E+02  0.30856975778E+02 -0.21264711419E+02  0.38828555194E+02  0.00000000000E+00 0. -1.
         -5    1    5    5    0  502 -0.43862050912E+01  0.18886240492E+02  0.14356337239E+02  0.24578919707E+02  0.47000000000E+01 0.  1.
         13    1    6    6    0    0 -0.19669224247E+03 -0.24202562795E+03  0.87911475089E+02  0.32402572473E+03  0.00000000000E+00 0. -1.
        -14    1    6    6    0    0 -0.12432217454E+02 -0.25541352291E+02 -0.14450787134E+02  0.31870769625E+02  0.00000000000E+00 0.  1.
</event>
<event>
12    1  0.1061634E+000  0.2234484E+03  0.7818608E-02  0.1133070E+00
         21   -1    0    0  503  502  0.00000000000E+00  0.00000000000E+00  0.41903915575E+03  0.41903915575E+03  0.00000000000E+00 0. -1.
         21   -1    0    0  501  503 -0.00000000000E+00 -0.00000000000E+00 -0.49341103780E+03  0.49341103780E+03  0.00000000000E+00 0. -1.
          6    2    1    2  501    0  0.35313139302E+01  0.14297631892E+03  0.36253858680E+03  0.42586782409E+03  0.17168132900E+03 0.  0.
         24    2    3    3    0    0  0.57009816370E+02  0.75397064279E+02  0.13927874562E+03  0.18650627211E+03  0.80319263514E+02 0.  0.
         -6    2    1    2    0  502 -0.35313139302E+01 -0.14297631892E+03 -0.43691046885E+03  0.48658236947E+03  0.15942693164E+03 0.  0.
        -24    2    5    5    0    0 -0.62153302717E+02 -0.10012219487E+03 -0.29428568558E+03  0.32646699756E+03  0.78032998238E+02 0.  0.
          5    1    3    3  501    0 -0.53478502440E+02  0.67579254638E+02  0.22325984118E+03  0.23936155197E+03  0.47000000000E+01 0. -1.
        -11    1    4    4    0    0  0.58160873222E+02  0.13752933562E+02  0.87666295987E+02  0.10609999909E+03  0.00000000000E+00 0.  1.
         12    1    4    4    0    0 -0.11510568524E+01  0.61644130717E+02  0.51612449634E+02  0.80406273020E+02  0.00000000000E+00 0. -1.
         -5    1    5    5    0  502  0.58621988787E+02 -0.42854124047E+02 -0.14262478327E+03  0.16011537191E+03  0.47000000000E+01 0.  1.
         11    1    6    6    0    0 -0.28559046899E+02  0.66451186943E+01 -0.56499904810E+02  0.63655447574E+02  0.00000000000E+00 0. -1.
        -12    1    6    6    0    0 -0.33594255818E+02 -0.10676731356E+03 -0.23778578077E+03  0.26281154998E+03  0.00000000000E+00 0.  1.
</event>
<event>
12    1  0.1061634E+000  0.2426129E+03  0.7818608E-02  0.1118162E+00
         21   -1    0    0  501  502  0.00000000000E+00  0.00000000000E+00  0.14175144294E+03  0.14175144294E+03  0.00000000000E+00 0.  1.
         21   -1    0    0  502  503 -0.00000000000E+00 -0.00000000000E+00 -0.50291387227E+03  0.50291387227E+03  0.00000000000E+00 0.  1.
         -6    2    1    2    0  503  0.16889120123E+03 -0.26754188622E+02 -0.45033627326E+02  0.24617007326E+03  0.17126486189E+03 0.  0.
        -24    2    3    3    0    0  0.32533690891E+02 -0.49942260929E+02 -0.43977016760E+02  0.10777114354E+03  0.78281357342E+02 0.  0.
          6    2    1    2  501    0 -0.16889120123E+03  0.26754188622E+02 -0.31612880201E+03  0.39849524195E+03  0.17210756501E+03 0.  0.
         24    2    5    5    0    0 -0.11172482322E+03 -0.40030830355E+02 -0.24814972980E+03  0.28726809691E+03  0.82823714005E+02 0.  0.
          5    1    5    5  501    0 -0.57166378010E+02  0.66785018977E+02 -0.67979072209E+02  0.11122714504E+03  0.47000000000E+01 0. -1.
        -11    1    6    6    0    0 -0.33189413909E+02 -0.55316514438E+02 -0.11838997672E+03  0.13482448054E+03  0.00000000000E+00 0.  1.
         12    1    6    6    0    0 -0.78535409307E+02  0.15285684083E+02 -0.12975975309E+03  0.15244361638E+03  0.00000000000E+00 0. -1.
         -5    1    3    3    0  503  0.13635751033E+03  0.23188072306E+02 -0.10566105663E+01  0.13839892972E+03  0.47000000000E+01 0.  1.
         11    1    4    4    0    0  0.24181735761E+02 -0.15387096022E+02  0.19743841027E+02  0.34804286042E+02  0.00000000000E+00 0. -1.
        -12    1    4    4    0    0  0.83519551302E+01 -0.34555164906E+02 -0.63720857786E+02  0.72966857499E+02  0.00000000000E+00 0.  1.
</event>
<event>
12    1  0.1061634E+000  0.2181903E+03  0.7818608E-02  0.1135414E+00
         21   -1    0    0  501  502  0.00000000000E+00  0.00000000000E+00  0.53304048555E+03  0.53304048555E+03  0.00000000000E+00 0. -1.
         21   -1    0    0  502  503 -0.00000000000E+00 -0.00000000000E+00 -0.98229732243E+02  0.98229732243E+02  0.00000000000E+00 0. -1.
         -6    2    1    2    0  503 -0.73033312022E+02 -0.11111721146E+03  0.31408196114E+03  0.38190612548E+03  0.17182523394E+03 0.  0.
        -24    2    3    3    0    0 -0.95557251882E+02 -0.12634598307E+03  0.21254446396E+03  0.27668637122E+03  0.79282425769E+02 0.  0.
          6    2    1    2  501    0  0.73033312022E+02  0.11111721146E+03  0.12072879216E+03  0.24936409231E+03  0.17299164699E+03 0.  0.
         24    2    5    5    0    0 -0.57653059108E+01  0.26240663946E+02  0.25792700873E+01  0.83850799571E+02  0.79388240678E+02 0.  0.
          5    1    5    5  501    0  0.78798617933E+02  0.84876547515E+02  0.11814952207E+03  0.16551329274E+03  0.47000000000E+01 0. -1.
        -11    1    6    6    0    0 -0.22172698568E+01  0.73309660828E+01  0.40559033209E+02  0.41275834628E+02  0.00000000000E+00 0.  1.
         12    1    6    6    0    0 -0.35480360540E+01  0.18909697863E+02 -0.37979763122E+02  0.42574964943E+02  0.00000000000E+00 0. -1.
         -5    1    3    3    0  503  0.22523939859E+02  0.15228771611E+02  0.10153749719E+03  0.10521975426E+03  0.47000000000E+01 0.  1.
         13    1    4    4    0    0 -0.23893405453E+02 -0.64845979315E+02  0.14486109555E+03  0.16050119271E+03  0.00000000000E+00 0. -1.
        -14    1    4    4    0    0 -0.71663846429E+02 -0.61500003758E+02  0.67683368409E+02  0.11618517851E+03  0.00000000000E+00 0.  1.
</event>
<event>
12    1  0.1061634E+000  0.1798997E+03  0.7818608E-02  0.1168942E+00
         21   -1    0    0  503  502  0.00000000000E+00  0.00000000000E+00  0.83106378990E+03  0.83106378990E+03  0.00000000000E+00 0. -1.
         21   -1    0    0  501  503 -0.00000000000E+00 -0.00000000000E+00 -0.38247450063E+02  0.38247450063E+02  0.00000000000E+00 0. -1.
          6    2    1    2  501    0 -0.18364122986E+02 -0.29700913903E+02  0.43397277196E+03  0.46978321067E+03  0.17647808056E+03 0.  0.
         24    2    3    3    0    0  0.40581146595E+02  0.41376368786E+02  0.19081062646E+03  0.20963624465E+03  0.64651578088E+02 0.  0.
         -6    2    1    2    0  502  0.18364122986E+02  0.29700913903E+02  0.35884356787E+03  0.39952802929E+03  0.17214689858E+03 0.  0.
        -24    2    5    5    0    0 -0.21554300924E+02 -0.40657161729E+02  0.22556684622E+03  0.24355202502E+03  0.79495874682E+02 0.  0.
          5    1    3    3  501    0 -0.58945269581E+02 -0.71077282688E+02  0.24316214550E+03  0.26014696601E+03  0.47000000000E+01 0. -1.
        -11    1    4    4    0    0  0.52275099788E+02  0.11428573367E+02  0.13515300973E+03  0.14536036044E+03  0.00000000000E+00 0.  1.
         12    1    4    4    0    0 -0.11693953194E+02  0.29947795419E+02  0.55657616726E+02  0.64275884213E+02  0.00000000000E+00 0. -1.
         -5    1    5    5    0  502  0.39918423911E+02  0.70358075631E+02  0.13327672165E+03  0.15597600427E+03  0.47000000000E+01 0.  1.
         13    1    6    6    0    0 -0.37202799546E+01 -0.42717762259E+02  0.22087182757E+03  0.22499558197E+03  0.00000000000E+00 0. -1.
        -14    1    6    6    0    0 -0.17834020970E+02  0.20606005304E+01  0.46950186534E+01  0.18556443050E+02  0.00000000000E+00 0.  1.
</event>
<event>
12    1  0.1061634E+000  0.2278070E+03  0.7818608E-02  0.1128326E+00
         21   -1    0    0  503  502  0.00000000000E+00  0.00000000000E+00  0.15171608398E+03  0.15171608398E+03  0.00000000000E+00 0.  1.
         21   -1    0    0  501  503 -0.00000000000E+00 -0.00000000000E+00 -0.34170430849E+03  0.34170430849E+03  0.00000000000E+00 0.  1.
          6    2    1    2  501    0  0.36747876338E+01  0.15037474933E+03 -0.83460821874E+02  0.24261437828E+03  0.17108465291E+03 0.  0.
         24    2    3    3    0    0 -0.59826323716E+02  0.53094612879E+02 -0.51923512149E+02  0.12214650707E+03  0.76324905170E+02 0.  0.
         -6    2    1    2    0  502 -0.36747876338E+01 -0.15037474933E+03 -0.10652740263E+03  0.25080601419E+03  0.17008674241E+03 0.  0.
        -24    2    5    5    0    0 -0.22445643130E+02 -0.15598788916E+03 -0.39375764102E+02  0.18069692125E+03  0.79151109220E+02 0.  0.
          5    1    3    3  501    0  0.63501111350E+02  0.97280136450E+02 -0.31537309725E+02  0.12046787122E+03  0.47000000000E+01 0. -1.
        -13    1    4    4    0    0 -0.60833861095E+02  0.69789259547E+02 -0.50246547114E+02  0.10533762339E+03  0.00000000000E+00 0.  1.
         14    1    4    4    0    0  0.10075373782E+01 -0.16694646668E+02 -0.16769650348E+01  0.16808883683E+02  0.00000000000E+00 0. -1.
         -5    1    5    5    0  502  0.18770855496E+02  0.56131398343E+01 -0.67151638532E+02  0.70109092936E+02  0.47000000000E+01 0.  1.
         11    1    6    6    0    0  0.17199840518E+02 -0.99992195674E+02 -0.46709881435E+02  0.11169640430E+03  0.00000000000E+00 0. -1.
        -12    1    6    6    0    0 -0.39645483648E+02 -0.55995693489E+02  0.73341173329E+01  0.69000516955E+02  0.00000000000E+00 0.  1.
</event>
<event>
12    1  0.1061634E+000  0.2112747E+03  0.7818608E-02  0.1142234E+00
         21   -1    0    0  503  502  0.00000000000E+00  0.00000000000E+00  0.27905344851E+03  0.27905344851E+03  0.00000000000E+00 0.  1.
         21   -1    0    0  501  503 -0.00000000000E+00 -0.00000000000E+00 -0.15981923526E+03  0.15981923526E+03  0.00000000000E+00 0.  1.
          6    2    1    2  501    0  0.43392796137E+02 -0.10234117398E+03  0.10367200088E+03  0.23533995340E+03  0.17966735723E+03 0.  0.
         24    2    3    3    0    0  0.60441940626E+02  0.62481570002E+01  0.46261386470E+02  0.11124166664E+03  0.80884639245E+02 0.  0.
         -6    2    1    2    0  502 -0.43392796137E+02  0.10234117398E+03  0.15562212366E+02  0.20353273036E+03  0.16978439041E+03 0.  0.
        -24    2    5    5    0    0 -0.11429099314E+02  0.93332847779E+02 -0.46261644612E+02  0.13319705558E+03  0.82217218799E+02 0.  0.
          5    1    3    3  501    0 -0.17049144489E+02 -0.10858933098E+03  0.57410614410E+02  0.12409828676E+03  0.47000000000E+01 0. -1.
        -11    1    4    4    0    0  0.44889582922E+02 -0.17892996350E+01  0.69127646772E+02  0.82443361141E+02  0.00000000000E+00 0.  1.
         12    1    4    4    0    0  0.15552357704E+02  0.80374566352E+01 -0.22866260302E+02  0.28798305497E+02  0.00000000000E+00 0. -1.
         -5    1    5    5    0  502 -0.31963696823E+02  0.90083262026E+01  0.61823856978E+02  0.70335674783E+02  0.47000000000E+01 0.  1.
         13    1    6    6    0    0 -0.14140088217E+02  0.71440579604E+02  0.92986523773E+01  0.73417732497E+02  0.00000000000E+00 0. -1.
        -14    1    6    6    0    0  0.27109889033E+01  0.21892268176E+02 -0.55560296989E+02  0.59779323083E+02  0.00000000000E+00 0.  1.
</event>
<event>
12    1  0.1061634E+000  0.2275637E+03  0.7818608E-02  0.1128473E+00
         21   -1    0    0  503  502  0.00000000000E+00  0.00000000000E+00  0.10142413095E+03  0.10142413095E+03  0.00000000000E+00 0.  1.
         21   -1    0    0  501  503 -0.00000000000E+00 -0.00000000000E+00 -0.51908557314E+03  0.51908557314E+03  0.00000000000E+00 0.  1.
          6    2    1    2  501    0 -0.35593780268E+02 -0.14377548829E+03 -0.25181178369E+03  0.33940301577E+03  0.17276262468E+03 0.  0.
         24    2    3    3    0    0 -0.50736157962E+02 -0.14585645063E+03 -0.13311199672E+03  0.21963093458E+03  0.81674242203E+02 0.  0.
         -6    2    1    2    0  502  0.35593780268E+02  0.14377548829E+03 -0.16584965850E+03  0.28110668832E+03  0.17197834970E+03 0.  0.
        -24    2    5    5    0    0 -0.33884108921E+02  0.10194041612E+03 -0.14351270299E+03  0.19685480447E+03  0.81338409429E+02 0.  0.
          5    1    3    3  501    0  0.15142377694E+02  0.20809623377E+01 -0.11869978697E+03  0.11977208119E+03  0.47000000000E+01 0. -1.
        -13    1    4    4    0    0  0.27876989748E+01 -0.26113462767E+02  0.75303069641E+01  0.27320134082E+02  0.00000000000E+00 0.  1.
         14    1    4    4    0    0 -0.53523856937E+02 -0.11974298786E+03 -0.14064230368E+03  0.19231080050E+03  0.00000000000E+00 0. -1.
         -5    1    5    5    0  502  0.69477889190E+02  0.41835072170E+02 -0.22336955510E+02  0.84251883843E+02  0.47000000000E+01 0.  1.
         13    1    6    6    0    0 -0.44062975309E+02  0.11074785098E+03 -0.11647827328E+03  0.16665479422E+03  0.00000000000E+00 0. -1.
        -14    1    6    6    0    0  0.10178866387E+02 -0.88074348580E+01 -0.27034429707E+02  0.30200010253E+02  0.00000000000E+00 0.  1.
</event>
<event>
12    1  0.1061634E+000  0.5207580E+03  0.7818608E-02  0.1008537E+00
         21   -1    0    0  501  502  0.00000000000E+00  0.00000000000E+00  0.30717161888E+03  0.30717161888E+03  0.00000000000E+00 0.  1.
         21   -1    0    0  502  503 -0.00000000000E+00 -0.00000000000E+00 -0.88466150504E+03  0.88466150504E+03  0.00000000000E+00 0.  1.
         -6    2    1    2    0  503 -0.48568339451E+03  0.71141208313E+02 -0.32250847208E+03  0.61200173798E+03  0.17200285318E+03 0.  0.
        -24    2    3    3    0    0 -0.16510244927E+03 -0.88988708779E+01 -0.78120047101E+02  0.20099523074E+03  0.83416619226E+02 0.  0.
          6    2    1    2  501    0  0.48568339451E+03 -0.71141208313E+02 -0.25498141407E+03  0.57983138594E+03  0.17389503550E+03 0.  0.
         24    2    5    5    0    0  0.28261177829E+03 -0.77467376116E+02 -0.21800128688E+03  0.37326972076E+03  0.77039676561E+02 0.  0.
          5    1    5    5  501    0  0.20307161622E+03  0.63261678029E+01 -0.36980127198E+02  0.20656166518E+03  0.47000000000E+01 0. -1.
        -13    1    6    6    0    0  0.57948456525E+02 -0.78224079180E+01 -0.84664483602E+02  0.10289455021E+03  0.00000000000E+00 0.  1.
         14    1    6    6    0    0  0.22466332176E+03 -0.69644968198E+02 -0.13333680327E+03  0.27037517055E+03  0.00000000000E+00 0. -1.
         -5    1    3    3    0  503 -0.32058094525E+03  0.80040079191E+02 -0.24438842498E+03  0.41100650724E+03  0.47000000000E+01 0.  1.
         11    1    4    4    0    0 -0.17313400974E+03 -0.12498697681E+02 -0.65333983006E+02  0.18547272605E+03  0.00000000000E+00 0. -1.
        -12    1    4    4    0    0  0.80315604759E+01  0.35998268027E+01 -0.12786064095E+02  0.15522504686E+02  0.00000000000E+00 0.  1.
</event>
<event>
12    1  0.1061634E+000  0.2221159E+03  0.7818608E-02  0.1133706E+00
         21   -1    0    0  503  502  0.00000000000E+00  0.00000000000E+00  0.29032088176E+03  0.29032088176E+03  0.00000000000E+00 0.  1.
         21   -1    0    0  501  503 -0.00000000000E+00 -0.00000000000E+00 -0.19444659769E+03  0.19444659769E+03  0.00000000000E+00 0. -1.
          6    2    1    2  501    0  0.90362377682E+02  0.10705546979E+03  0.14266873857E+03  0.25777583713E+03  0.16268921393E+03 0.  0.
         24    2    3    3    0    0  0.59466468876E+02  0.11253911746E+03  0.50212697342E+02  0.16002698991E+03  0.82981977842E+02 0.  0.
         -6    2    1    2    0  502 -0.90362377682E+02 -0.10705546979E+03 -0.46794454496E+02  0.22699164232E+03  0.17236371950E+03 0.  0.
        -24    2    5    5    0    0 -0.13041834889E+03 -0.92497285075E+02 -0.44134372543E+02  0.18403133963E+03  0.79718239140E+02 0.  0.
          5    1    3    3  501    0  0.30895908807E+02 -0.54836476711E+01  0.92456041224E+02  0.97748847213E+02  0.47000000000E+01 0. -1.
        -13    1    4    4    0    0  0.30306924647E+02  0.29783050748E+02  0.58044139051E+02  0.71935122656E+02  0.00000000000E+00 0.  1.
         14    1    4    4    0    0  0.29159544229E+02  0.82756066714E+02 -0.78314417084E+01  0.88091867257E+02  0.00000000000E+00 0. -1.
         -5    1    5    5    0  502  0.40055971206E+02 -0.14558184715E+02 -0.26600819532E+01  0.42960302693E+02  0.47000000000E+01 0.  1.
         11    1    6    6    0    0 -0.57630767099E+02  0.39407635014E+01 -0.11838827158E+02  0.58966030576E+02  0.00000000000E+00 0. -1.
        -12    1    6    6    0    0 -0.72787581789E+02 -0.96438048577E+02 -0.32295545385E+02  0.12506530905E+03  0.00000000000E+00 0.  1.
</event>
<event>
12    1  0.1061634E+000  0.1800144E+03  0.7818608E-02  0.1168076E+00
         21   -1    0    0  501  502  0.00000000000E+00  0.00000000000E+00  0.30807530552E+03  0.30807530552E+03  0.00000000000E+00 0.  1.
         21   -1    0    0  502  503 -0.00000000000E+00 -0.00000000000E+00 -0.11612486662E+03  0.11612486662E+03  0.00000000000E+00 0.  1.
         -6    2    1    2    0  503 -0.42714049720E+02 -0.27544237352E+02  0.16337861338E+03  0.24310029711E+03  0.17269049798E+03 0.  0.
        -24    2    3    3    0    0  0.22615032960E+02  0.33708480497E+02  0.69806037248E+02  0.11349435014E+03  0.79752011283E+02 0.  0.
          6    2    1    2  501    0  0.42714049720E+02  0.27544237352E+02  0.28571825515E+02  0.18109987502E+03  0.17145740131E+03 0.  0.
         24    2    5    5    0    0 -0.31210316895E+02  0.45247227909E+02  0.39754614739E+02  0.10412356289E+03  0.78992983503E+02 0.  0.
          5    1    5    5  501    0  0.73924366615E+02 -0.17702990557E+02 -0.11182789224E+02  0.76976312128E+02  0.47000000000E+01 0. -1.
        -13    1    6    6    0    0 -0.27883834997E+02 -0.11649014930E+02 -0.62749792678E+01  0.30863946082E+02  0.00000000000E+00 0.  1.
         14    1    6    6    0    0 -0.33264818980E+01  0.56896242839E+02  0.46029594007E+02  0.73259616812E+02  0.00000000000E+00 0. -1.
         -5    1    3    3    0  503 -0.65329082680E+02 -0.61252717849E+02  0.93572576131E+02  0.12960594698E+03  0.47000000000E+01 0.  1.
         11    1    4    4    0    0 -0.22273323801E+02  0.59236983941E+00  0.49231632550E+02  0.54038925773E+02  0.00000000000E+00 0. -1.
        -12    1    4    4    0    0  0.44888356760E+02  0.33116110657E+02  0.20574404698E+02  0.59455424365E+02  0.00000000000E+00 0.  1.
</event>
<event>
12    1  0.1061634E+000  0.2537122E+03  0.7818608E-02  0.1110993E+00
         21   -1    0    0  503  502  0.00000000000E+00  0.00000000000E+00  0.34841760348E+02  0.34841760348E+02  0.00000000000E+00 0.  1.
         21   -1    0    0  501  503 -0.00000000000E+00 -0.00000000000E+00 -0.19512545593E+04  0.19512545593E+04  0.00000000000E+00 0.  1.
          6    2    1    2  501    0  0.11069168733E+03  0.14968286026E+03 -0.72844200013E+03  0.77133522736E+03  0.17225758944E+03 0.  0.
         24    2    3    3    0    0  0.30923595917E+02  0.10343819612E+03 -0.24987612479E+03  0.28394533784E+03  0.80815517944E+02 0.  0.
         -6    2    1    2    0  502 -0.11069168733E+03 -0.14968286026E+03 -0.11879707988E+04  0.12147610922E+04  0.17237251572E+03 0.  0.
        -24    2    5    5    0    0 -0.10793967131E+03 -0.25175456125E+02 -0.67305653855E+03  0.68497957816E+03  0.62507137027E+02 0.  0.
          5    1    3    3  501    0  0.79768091412E+02  0.46244664140E+02 -0.47856587534E+03  0.48738988952E+03  0.47000000000E+01 0. -1.
        -13    1    4    4    0    0 -0.84635387810E+01  0.13780154408E+01  0.24558982310E+01  0.89197450285E+01  0.00000000000E+00 0.  1.
         14    1    4    4    0    0  0.39387134698E+02  0.10206018068E+03 -0.25233202302E+03  0.27502559281E+03  0.00000000000E+00 0. -1.
         -5    1    5    5    0  502 -0.27520160202E+01 -0.12450740413E+03 -0.51491426023E+03  0.52978151408E+03  0.47000000000E+01 0.  1.
         13    1    6    6    0    0 -0.43487095981E+02 -0.15471117306E+02 -0.45648169457E+03  0.45880935090E+03  0.00000000000E+00 0. -1.
        -14    1    6    6    0    0 -0.64452575328E+02 -0.97043388193E+01 -0.21657484397E+03  0.22617022726E+03  0.00000000000E+00 0.  1.
</event>
<event>
12    1  0.1061634E+000  0.1738659E+03  0.7818608E-02  0.1173971E+00
         21   -1    0    0  501  502  0.00000000000E+00  0.00000000000E+00  0.69967485133E+02  0.69967485133E+02  0.00000000000E+00 0.  1.
         21   -1    0    0  502  503 -0.00000000000E+00 -0.00000000000E+00 -0.49111746081E+03  0.49111746081E+03  0.00000000000E+00 0.  1.
         -6    2    1    2    0  503 -0.75051389432E+01  0.25108166729E+02 -0.30883824590E+03  0.35441561386E+03  0.17187966159E+03 0.  0.
        -24    2    3    3    0    0  0.54244964667E+02  0.47485520637E+02 -0.17598751638E+03  0.20614145023E+03  0.79531759200E+02 0.  0.
          6    2    1    2  501    0  0.75051389432E+01 -0.25108166729E+02 -0.11231172978E+03  0.20666933209E+03  0.17149793303E+03 0.  0.
         24    2    5    5    0    0  0.18145143663E+02 -0.29129541573E+00 -0.14418401494E+03  0.16463340265E+03  0.77367926253E+02 0.  0.
          5    1    5    5  501    0 -0.10640004720E+02 -0.24816871313E+02  0.31872285161E+02  0.42035929437E+02  0.47000000000E+01 0. -1.
        -11    1    6    6    0    0  0.10606855496E+02  0.35964507027E+02 -0.43916091272E+02  0.57745772328E+02  0.00000000000E+00 0.  1.
         12    1    6    6    0    0  0.75382881663E+01 -0.36255802443E+02 -0.10026792367E+03  0.10688763033E+03  0.00000000000E+00 0. -1.
         -5    1    3    3    0  503 -0.61750103610E+02 -0.22377353908E+02 -0.13285072952E+03  0.14827416362E+03  0.47000000000E+01 0.  1.
         13    1    4    4    0    0  0.11780687507E+01 -0.20813125536E+02 -0.35028173512E+02  0.40762077721E+02  0.00000000000E+00 0. -1.
        -14    1    4    4    0    0  0.53066895916E+02  0.68298646173E+02 -0.14095934287E+03  0.16537937251E+03  0.00000000000E+00 0.  1.
</event>
<event>
12    1  0.1061634E+000  0.2594267E+03  0.7818608E-02  0.1107714E+00
         21   -1    0    0  503  502  0.00000000000E+00  0.00000000000E+00  0.49238801264E+03  0.49238801264E+03  0.00000000000E+00 0.  1.
         21   -1    0    0  501  503 -0.00000000000E+00 -0.00000000000E+00 -0.30821944634E+03  0.30821944634E+03  0.00000000000E+00 0.  1.
          6    2    1    2  501    0  0.19400423372E+03  0.18848688318E+02 -0.20734771205E+03  0.33094035157E+03  0.16892461884E+03 0.  0.
         24    2    3    3    0    0  0.17944207381E+03  0.60285781747E+02 -0.13528222064E+03  0.24641453146E+03  0.81148066877E+02 0.  0.
         -6    2    1    2    0  502 -0.19400423372E+03 -0.18848688318E+02  0.39151627835E+03  0.46966710741E+03  0.17119953219E+03 0.  0.
        -24    2    5    5    0    0 -0.21732840949E+03 -0.68371713741E+01  0.36379030538E+03  0.43120786546E+03  0.79488693965E+02 0.  0.
          5    1    3    3  501    0  0.14562159911E+02 -0.41437093429E+02 -0.72065491408E+02  0.84525820109E+02  0.47000000000E+01 0. -1.
        -13    1    4    4    0    0  0.37655260298E+02  0.19503200970E+02 -0.76762236757E+02  0.87696832714E+02  0.00000000000E+00 0.  1.
         14    1    4    4    0    0  0.14178681351E+03  0.40782580777E+02 -0.58519983887E+02  0.15871769875E+03  0.00000000000E+00 0. -1.
         -5    1    5    5    0  502  0.23324175762E+02 -0.12011516944E+02  0.27725972973E+02  0.38459241953E+02  0.47000000000E+01 0.  1.
         11    1    6    6    0    0 -0.15571274073E+03  0.26565796798E+02  0.21555009190E+03  0.26723405716E+03  0.00000000000E+00 0. -1.
        -12    1    6    6    0    0 -0.61615668751E+02 -0.33402968172E+02  0.14824021348E+03  0.16397380830E+03  0.00000000000E+00 0.  1.
</event>
<event>
12    1  0.1061634E+000  0.6357617E+03  0.7818608E-02  0.9834089E-01
         21   -1    0    0  501  502  0.00000000000E+00  0.00000000000E+00  0.82504685858E+03  0.82504685858E+03  0.00000000000E+00 0.  1.
         21   -1    0    0  502  503 -0.00000000000E+00 -0.00000000000E+00 -0.74095722982E+03  0.74095722982E+03  0.00000000000E+00 0.  1.
         -6    2    1    2    0  503  0.49296524332E+03 -0.36175057095E+03  0.49814707817E+03  0.80767782762E+03  0.17411132945E+03 0.  0.
        -24    2    3    3    0    0  0.33061733430E+03 -0.32078934019E+03  0.38425396995E+03  0.60512315330E+03  0.79431069023E+02 0.  0.
          6    2    1    2  501    0 -0.49296524332E+03  0.36175057095E+03 -0.41405744941E+03  0.75832626077E+03  0.17244401893E+03 0.  0.
         24    2    5    5    0    0 -0.17333566806E+03  0.15648172855E+03 -0.10010198425E+03  0.26548907961E+03  0.77021159081E+02 0.  0.
          5    1    5    5  501    0 -0.31962957525E+03  0.20526884240E+03 -0.31395546516E+03  0.49283718116E+03  0.47000000000E+01 0. -1.
        -13    1    6    6    0    0 -0.81357232879E+02  0.12406562994E+03 -0.61501859490E+02  0.16060435422E+03  0.00000000000E+00 0.  1.
         14    1    6    6    0    0 -0.91978435184E+02  0.32416098617E+02 -0.38600124765E+02  0.10488472539E+03  0.00000000000E+00 0. -1.
         -5    1    3    3    0  503  0.16234790902E+03 -0.40961230765E+02  0.11389310823E+03  0.20255467432E+03  0.47000000000E+01 0.  1.
         11    1    4    4    0    0  0.15488249061E+03 -0.17217306160E+03  0.23992508547E+03  0.33346093575E+03  0.00000000000E+00 0. -1.
        -12    1    4    4    0    0  0.17573484369E+03 -0.14861627859E+03  0.14432888448E+03  0.27166221755E+03  0.00000000000E+00 0.  1.
</event>
<event>
12    1  0.1061634E+000  0.1924010E+03  0.7818608E-02  0.1156725E+00
         21   -1    0    0  503  502  0.00000000000E+00  0.00000000000E+00  0.33042052242E+03  0.33042052242E+03  0.00000000000E+00 0. -1.
         21   -1    0    0  501  503 -0.00000000000E+00 -0.00000000000E+00 -0.18558861395E+03  0.18558861395E+03  0.00000000000E+00 0. -1.
          6    2    1    2  501    0  0.70066007926E+02 -0.43184442667E+02  0.23623035986E+03  0.30466853041E+03  0.17390798990E+03 0.  0.
         24    2    3    3    0    0  0.43991629127E+02 -0.49129786779E+02  0.61427860491E+02  0.12776962106E+03  0.90568728810E+02 0.  0.
         -6    2    1    2    0  502 -0.70066007926E+02  0.43184442667E+02 -0.91398451390E+02  0.21134060596E+03  0.17186341454E+03 0.  0.
        -24    2    5    5    0    0 -0.24973654568E+02  0.38469663980E+02  0.17827120419E+01  0.10760840900E+03  0.97328275209E+02 0.  0.
          5    1    3    3  501    0  0.26074378799E+02  0.59453441119E+01  0.17480249937E+03  0.17689890936E+03  0.47000000000E+01 0. -1.
        -11    1    4    4    0    0  0.14014209274E+02  0.23853242934E+02  0.34887993121E+02  0.44525805147E+02  0.00000000000E+00 0.  1.
         12    1    4    4    0    0  0.29977419853E+02 -0.72983029712E+02  0.26539867370E+02  0.83243815909E+02  0.00000000000E+00 0. -1.
         -5    1    5    5    0  502 -0.45092353357E+02  0.47147786866E+01 -0.93181163432E+02  0.10373219697E+03  0.47000000000E+01 0.  1.
         13    1    6    6    0    0 -0.61396153626E+02  0.35415868754E+02  0.39963430957E+01  0.70991141685E+02  0.00000000000E+00 0. -1.
        -14    1    6    6    0    0  0.36422499057E+02  0.30537952259E+01 -0.22136310538E+01  0.36617267311E+02  0.00000000000E+00 0.  1.
</event>
<event>
12    1  0.1061634E+000  0.2651890E+03  0.7818608E-02  0.1104295E+00
         21   -1    0    0  503  502  0.00000000000E+00  0.00000000000E+00  0.16818323683E+03  0.16818323683E+03  0.00000000000E+00 0.  1.
         21   -1    0    0  501  503 -0.00000000000E+00 -0.00000000000E+00 -0.42873048946E+03  0.42873048946E+03  0.00000000000E+00 0.  1.
          6    2    1    2  501    0  0.86781775730E+01  0.20236122399E+03 -0.18196823321E+03  0.32032761310E+03  0.16873638040E+03 0.  0.
         24    2    3    3    0    0 -0.58958737755E+02  0.13465837664E+03 -0.10546717520E+03  0.19771876459E+03  0.79751950882E+02 0.  0.
         -6    2    1    2    0  502 -0.86781775730E+01 -0.20236122399E+03 -0.78579019409E+02  0.27658611319E+03  0.17117196026E+03 0.  0.
        -24    2    5    5    0    0 -0.29350392196E+02 -0.20659351526E+03 -0.10140627095E+03  0.24514686766E+03  0.79192353574E+02 0.  0.
          5    1    3    3  501    0  0.67636915328E+02  0.67702847350E+02 -0.76501058015E+02  0.12260884851E+03  0.47000000000E+01 0. -1.
        -11    1    4    4    0    0  0.16934185316E+02  0.44663600015E+02 -0.43865623619E+02  0.64852114338E+02  0.00000000000E+00 0.  1.
         12    1    4    4    0    0 -0.75892923071E+02  0.89994776628E+02 -0.61601551580E+02  0.13286665025E+03  0.00000000000E+00 0. -1.
         -5    1    5    5    0  502  0.20672214624E+02  0.42322912645E+01  0.22827251545E+02  0.31439245537E+02  0.47000000000E+01 0.  1.
         13    1    6    6    0    0 -0.47838219082E+02 -0.72715529763E+02 -0.28499975860E+02  0.91587619784E+02  0.00000000000E+00 0. -1.
        -14    1    6    6    0    0  0.18487826885E+02 -0.13387798549E+03 -0.72906295095E+02  0.15355924787E+03  0.00000000000E+00 0.  1.
</event>
<event>
12    1  0.1061634E+000  0.1852356E+03  0.7818608E-02  0.1163215E+00
         21   -1    0    0  501  502  0.00000000000E+00  0.00000000000E+00  0.96652802820E+03  0.96652802820E+03  0.00000000000E+00 0. -1.
         21   -1    0    0  502  503 -0.00000000000E+00 -0.00000000000E+00 -0.46649668889E+02  0.46649668889E+02  0.00000000000E+00 0. -1.
         -6    2    1    2    0  503  0.62589081986E+02 -0.22650868699E+02  0.20727414284E+03  0.27689176004E+03  0.17110237125E+03 0.  0.
        -24    2    3    3    0    0 -0.30649079940E+02 -0.17015973914E+02  0.69702893507E+02  0.11053958686E+03  0.78304517300E+02 0.  0.
          6    2    1    2  501    0 -0.62589081986E+02  0.22650868699E+02  0.71260421647E+03  0.73628593706E+03  0.17286340484E+03 0.  0.
         24    2    5    5    0    0 -0.10038546329E+01 -0.41603219762E+02  0.26051613975E+03  0.27549634600E+03  0.79358313797E+02 0.  0.
          5    1    5    5  501    0 -0.61585227353E+02  0.64254088461E+02  0.45208807672E+03  0.46078959106E+03  0.47000000000E+01 0. -1.
        -11    1    6    6    0    0  0.21709019400E+02 -0.54802223509E+02  0.21509591557E+03  0.22302649645E+03  0.00000000000E+00 0.  1.
         12    1    6    6    0    0 -0.22712874033E+02  0.13199003747E+02  0.45420224186E+02  0.52469849551E+02  0.00000000000E+00 0. -1.
         -5    1    3    3    0  503  0.93238161926E+02 -0.56348947845E+01  0.13757124933E+03  0.16635217318E+03  0.47000000000E+01 0.  1.
         11    1    4    4    0    0 -0.14781908247E+02 -0.36628997232E+02  0.74996564656E+02  0.84762450176E+02  0.00000000000E+00 0. -1.
        -12    1    4    4    0    0 -0.15867171693E+02  0.19613023318E+02 -0.52936711490E+01  0.25777136680E+02  0.00000000000E+00 0.  1.
</event>
<event>
12    1  0.1061634E+000  0.3155706E+03  0.7818608E-02  0.1077736E+00
         21   -1    0    0  503  502  0.00000000000E+00  0.00000000000E+00  0.12067981856E+03  0.12067981856E+03  0.00000000000E+00 0. -1.
         21   -1    0    0  501  503 -0.00000000000E+00 -0.00000000000E+00 -0.83245921513E+03  0.83245921513E+03  0.00000000000E+00 0.  1.
          6    2    1    2  501    0 -0.25250666941E+03 -0.75599022207E+02 -0.30953696025E+03  0.44203840869E+03  0.17352231769E+03 0.  0.
         24    2    3    3    0    0 -0.16168285456E+03  0.10779736351E+02 -0.21999860753E+03  0.28792980450E+03  0.90810995118E+02 0.  0.
         -6    2    1    2    0  502  0.25250666941E+03  0.75599022207E+02 -0.40224243631E+03  0.51110062500E+03  0.17306080161E+03 0.  0.
        -24    2    5    5    0    0  0.22721861989E+03  0.60648965840E+02 -0.41088693256E+03  0.48011987373E+03  0.79877553301E+02 0.  0.
          5    1    3    3  501    0 -0.90823814855E+02 -0.86378758558E+02 -0.89538352728E+02  0.15410860419E+03  0.47000000000E+01 0. -1.
        -11    1    4    4    0    0 -0.12902021124E+03  0.28071782984E+02 -0.21255872932E+03  0.25023080010E+03  0.00000000000E+00 0.  1.
         12    1    4    4    0    0 -0.32662643320E+02 -0.17292046633E+02 -0.74398782053E+01  0.37699004405E+02  0.00000000000E+00 0. -1.
         -5    1    5    5    0  502  0.25288049517E+02  0.14950056366E+02  0.86444962497E+01  0.30980751268E+02  0.47000000000E+01 0.  1.
         13    1    6    6    0    0  0.11056940313E+03  0.67486826151E+02 -0.18563248595E+03  0.22636140230E+03  0.00000000000E+00 0. -1.
        -14    1    6    6    0    0  0.11664921676E+03 -0.68378603101E+01 -0.22525444661E+03  0.25375847143E+03  0.00000000000E+00 0.  1.
</event>
<event>
12    1  0.1061634E+000  0.1817542E+03  0.7818608E-02  0.1170741E+00
         21   -1    0    0  503  502  0.00000000000E+00  0.00000000000E+00  0.10159404829E+03  0.10159404829E+03  0.00000000000E+00 0. -1.
         21   -1    0    0  501  503 -0.00000000000E+00 -0.00000000000E+00 -0.35958561525E+03  0.35958561525E+03  0.00000000000E+00 0. -1.
          6    2    1    2  501    0 -0.18994535265E+01  0.23924059904E+02 -0.35649384085E+02  0.18521739073E+03  0.18016280048E+03 0.  0.
         24    2    3    3    0    0  0.20521269949E+01 -0.43739368019E+02 -0.64814696366E+02  0.11128052640E+03  0.79152177173E+02 0.  0.
         -6    2    1    2    0  502  0.18994535265E+01 -0.23924059904E+02 -0.22234218287E+03  0.27596227280E+03  0.16168846948E+03 0.  0.
        -24    2    5    5    0    0 -0.99482322843E+01 -0.77758334488E+02 -0.12543821398E+03  0.16437837627E+03  0.71695042720E+02 0.  0.
          5    1    3    3  501    0 -0.39515805215E+01  0.67663427923E+02  0.29165312281E+02  0.73936864333E+02  0.47000000000E+01 0. -1.
        -13    1    4    4    0    0  0.18473232957E+02  0.12725321118E+02  0.17035348911E+01  0.22496581175E+02  0.00000000000E+00 0.  1.
         14    1    4    4    0    0 -0.16421105962E+02 -0.56464689136E+02 -0.66518231257E+02  0.88783945226E+02  0.00000000000E+00 0. -1.
         -5    1    5    5    0  502  0.11847685811E+02  0.53834274583E+02 -0.96903968894E+02  0.11158389654E+03  0.47000000000E+01 0.  1.
         13    1    6    6    0    0  0.29098361344E+02 -0.50669367039E+02 -0.63211620873E+02  0.86080243973E+02  0.00000000000E+00 0. -1.
        -14    1    6    6    0    0 -0.39046593629E+02 -0.27088967448E+02 -0.62226593105E+02  0.78298132295E+02  0.00000000000E+00 0.  1.
</event>
<event>
12    1  0.1061634E+000  0.2266001E+03  0.7818608E-02  0.1131273E+00
         21   -1    0    0  501  502  0.00000000000E+00  0.00000000000E+00  0.55613738039E+03  0.55613738039E+03  0.00000000000E+00 0.  1.
         21   -1    0    0  502  503 -0.00000000000E+00 -0.00000000000E+00 -0.87569556770E+02  0.87569556770E+02  0.00000000000E+00 0.  1.
         -6    2    1    2    0  503 -0.12258282935E+03  0.39147767932E+02  0.23180120572E+03  0.32415955213E+03  0.18651680483E+03 0.  0.
        -24    2    3    3    0    0 -0.14997916806E+03  0.67546406020E+02  0.20612630519E+03  0.27684853294E+03  0.84266177573E+02 0.  0.
          6    2    1    2  501    0  0.12258282935E+03 -0.39147767932E+02  0.23676661791E+03  0.31954738503E+03  0.17173526760E+03 0.  0.
         24    2    5    5    0    0  0.11609701389E+03  0.19393387579E+02  0.21255277868E+03  0.25569182379E+03  0.79655539125E+02 0.  0.
          5    1    5    5  501    0  0.64858154602E+01 -0.58541155510E+02  0.24213839231E+02  0.63855561238E+02  0.47000000000E+01 0. -1.
        -11    1    6    6    0    0  0.61337691556E+02  0.48752792569E+02  0.13749968259E+03  0.15825710064E+03  0.00000000000E+00 0.  1.
         12    1    6    6    0    0  0.54759322338E+02 -0.29359404991E+02  0.75053096083E+02  0.97434723154E+02  0.00000000000E+00 0. -1.
         -5    1    3    3    0  503  0.27396338709E+02 -0.28398638088E+02  0.25674900530E+02  0.47311019194E+02  0.47000000000E+01 0.  1.
         11    1    4    4    0    0 -0.32479030396E+02  0.30331422756E+02  0.11581998742E+03  0.12405302136E+03  0.00000000000E+00 0. -1.
        -12    1    4    4    0    0 -0.11750013767E+03  0.37214983264E+02  0.90306317761E+02  0.15279551158E+03  0.00000000000E+00 0.  1.
</event>
<event>
12    1  0.1061634E+000  0.4157604E+03  0.7818608E-02  0.1039489E+00
         21   -1    0    0  501  502  0.00000000000E+00  0.00000000000E+00  0.23717424340E+03  0.23717424340E+03  0.00000000000E+00 0.  1.
         21   -1    0    0  502  503 -0.00000000000E+00 -0.00000000000E+00 -0.11543865766E+04  0.11543865766E+04  0.00000000000E+00 0. -1.
         -6    2    1    2    0  503 -0.36739800108E+03  0.72508065233E+01 -0.21415764068E+02  0.40398389878E+03  0.16646468132E+03 0.  0.
        -24    2    3    3    0    0 -0.67410408551E+02 -0.11942072805E+02 -0.84571133319E+01  0.10306706821E+03  0.76580163878E+02 0.  0.
          6    2    1    2  501    0  0.36739800108E+03 -0.72508065233E+01 -0.89579656914E+03  0.98757692123E+03  0.19448089023E+03 0.  0.
         24    2    5    5    0    0  0.30111446527E+03 -0.57651625316E+02 -0.79931037321E+03  0.86004094332E+03  0.82339057425E+02 0.  0.
          5    1    5    5  501    0  0.66283535816E+02  0.50400818793E+02 -0.96486195931E+02  0.12753597791E+03  0.47000000000E+01 0. -1.
        -13    1    6    6    0    0  0.59315382125E+02 -0.31805959844E+02 -0.10850892957E+03  0.12768759311E+03  0.00000000000E+00 0.  1.
         14    1    6    6    0    0  0.24179908314E+03 -0.25845665472E+02 -0.69080144364E+03  0.73235335021E+03  0.00000000000E+00 0. -1.
         -5    1    3    3    0  503 -0.29998759253E+03  0.19192879328E+02 -0.12958650736E+02  0.30091683057E+03  0.47000000000E+01 0.  1.
         11    1    4    4    0    0 -0.16325418209E+02  0.30159065216E+02  0.72018289064E+01  0.35042186490E+02  0.00000000000E+00 0. -1.
        -12    1    4    4    0    0 -0.51084990342E+02 -0.42101138021E+02 -0.15658942238E+02  0.68024881720E+02  0.00000000000E+00 0.  1.
</event>
<event>
12    1  0.1061634E+000  0.1893234E+03  0.7818608E-02  0.1159187E+00
         21   -1    0    0  503  502  0.00000000000E+00  0.00000000000E+00  0.46104468091E+03  0.46104468091E+03  0.00000000000E+00 0. -1.
         21   -1    0    0  501  503 -0.00000000000E+00 -0.00000000000E+00 -0.98530040077E+02  0.98530040077E+02  0.00000000000E+00 0. -1.
          6    2    1    2  501    0 -0.18919274545E+02  0.75738755325E+02  0.31058988682E+03  0.36374361135E+03  0.17247909727E+03 0.  0.
         24    2    3    3    0    0 -0.62227682047E+02  0.47049131593E+02  0.27857954374E+03  0.30254340927E+03  0.88544040491E+02 0.  0.
         -6    2    1    2    0  502  0.18919274545E+02 -0.75738755325E+02  0.51924754020E+02  0.19583110964E+03  0.17192831476E+03 0.  0.
        -24    2    5    5    0    0  0.14783119000E+02 -0.55548936525E+02  0.10165249213E+03  0.14179709718E+03  0.80429861715E+02 0.  0.
          5    1    3    3  501    0  0.43308407502E+02  0.28689623732E+02  0.32010343077E+02  0.61200202076E+02  0.47000000000E+01 0. -1.
        -13    1    4    4    0    0  0.11006214122E+02  0.43300829384E+02  0.10493195880E+03  0.11404742238E+03  0.00000000000E+00 0.  1.
         14    1    4    4    0    0 -0.73233896168E+02  0.37483022090E+01  0.17364758494E+03  0.18849598689E+03  0.00000000000E+00 0. -1.
         -5    1    5    5    0  502  0.41361555444E+01 -0.20189818800E+02 -0.49727738109E+02  0.54034012467E+02  0.47000000000E+01 0.  1.
         13    1    6    6    0    0  0.89904598344E+01  0.18460644099E+02  0.74139445529E+01  0.21830948729E+02  0.00000000000E+00 0. -1.
        -14    1    6    6    0    0  0.57926591659E+01 -0.74009580624E+02  0.94238547576E+02  0.11996614845E+03  0.00000000000E+00 0.  1.
</event>
<event>
12    1  0.1061634E+000  0.2016553E+03  0.7818608E-02  0.1148503E+00
         21   -1    0    0  503  502  0.00000000000E+00  0.00000000000E+00  0.15724737956E+03  0.15724737956E+03  0.00000000000E+00 0. -1.
         21   -1    0    0  501  503 -0.00000000000E+00 -0.00000000000E+00 -0.26844421859E+03  0.26844421859E+03  0.00000000000E+00 0. -1.
          6    2    1    2  501    0  0.83705863653E+02  0.59902508956E+02 -0.98148201828E+02  0.22361459156E+03  0.17255559639E+03 0.  0.
         24    2    3    3    0    0  0.65822643715E+02  0.11906192697E+02 -0.66310157256E+01  0.11863392056E+03  0.97753050533E+02 0.  0.
         -6    2    1    2    0  502 -0.83705863653E+02 -0.59902508956E+02 -0.13048637207E+02  0.20207700659E+03  0.17340665348E+03 0.  0.
        -24    2    5    5    0    0 -0.17431069588E+02  0.76891569495E+01 -0.50586361076E+02  0.10013509989E+03  0.84291713603E+02 0.  0.
          5    1    3    3  501    0  0.17883219938E+02  0.47996316259E+02 -0.91517186103E+02  0.10498067099E+03  0.47000000000E+01 0. -1.
        -13    1    4    4    0    0  0.53554086494E+02 -0.30015120450E+02  0.23320217416E+02  0.65671760873E+02  0.00000000000E+00 0.  1.
         14    1    4    4    0    0  0.12268557221E+02  0.41921313147E+02 -0.29951233142E+02  0.52962159690E+02  0.00000000000E+00 0. -1.
         -5    1    5    5    0  502 -0.66274794065E+02 -0.67591665905E+02  0.37537723869E+02  0.10194190670E+03  0.47000000000E+01 0.  1.
         13    1    6    6    0    0  0.25695195635E+02  0.23845353221E+02 -0.51327946647E+01  0.35428654082E+02  0.00000000000E+00 0. -1.
        -14    1    6    6    0    0 -0.43126265223E+02 -0.16156196272E+02 -0.45453566411E+02  0.64706445811E+02  0.00000000000E+00 0.  1.
</event>
<event>
12    1  0.1061634E+000  0.7367429E+03  0.7818608E-02  0.9657076E-01
         21   -1    0    0  503  502  0.00000000000E+00  0.00000000000E+00  0.89125499781E+03  0.89125499781E+03  0.00000000000E+00 0. -1.
         21   -1    0    0  501  503 -0.00000000000E+00 -0.00000000000E+00 -0.65181704095E+03  0.65181704095E+03  0.00000000000E+00 0. -1.
          6    2    1    2  501    0 -0.38384777027E+03  0.60272413370E+03  0.32056448830E+03  0.80187596536E+03  0.17212780304E+03 0.  0.
         24    2    3    3    0    0 -0.33563582981E+03  0.41716454488E+03  0.21228347032E+03  0.58164058886E+03  0.81017498639E+02 0.  0.
         -6    2    1    2    0  502  0.38384777027E+03 -0.60272413370E+03 -0.81126531440E+02  0.74119607339E+03  0.17937283247E+03 0.  0.
        -24    2    5    5    0    0  0.30973236428E+03 -0.42508634898E+03 -0.11839914389E+03  0.54508484576E+03  0.80415111969E+02 0.  0.
          5    1    3    3  501    0 -0.48211940458E+02  0.18555958882E+03  0.10828101799E+03  0.22023537650E+03  0.47000000000E+01 0. -1.
        -13    1    4    4    0    0 -0.11950292966E+03  0.14769536508E+03  0.11769006402E+03  0.22348561974E+03  0.00000000000E+00 0.  1.
         14    1    4    4    0    0 -0.21613290015E+03  0.26946917980E+03  0.94593406298E+02  0.35815496912E+03  0.00000000000E+00 0. -1.
         -5    1    5    5    0  502  0.74115405991E+02 -0.17763778472E+03  0.37272612454E+02  0.19611122763E+03  0.47000000000E+01 0.  1.
         13    1    6    6    0    0  0.86554046076E+01  0.23014334279E+01  0.41228761756E+00  0.89656347140E+01  0.00000000000E+00 0. -1.
        -14    1    6    6    0    0  0.30107695967E+03 -0.42738778241E+03 -0.11881143151E+03  0.53611921105E+03  0.00000000000E+00 0.  1.
</event>
<event>
12    1  0.1061634E+000  0.1913405E+03  0.7818608E-02  0.1157468E+00
         21   -1    0    0  503  502  0.00000000000E+00  0.00000000000E+00  0.66539698795E+02  0.66539698795E+02  0.00000000000E+00 0.  1.
         21   -1    0    0  501  503 -0.00000000000E+00 -0.00000000000E+00 -0.54783031754E+03  0.54783031754E+03  0.00000000000E+00 0.  1.
          6    2    1    2  501    0  0.19991692878E+02  0.79103219961E+02 -0.23275562986E+03  0.30071283528E+03  0.17203499318E+03 0.  0.
         24    2    3    3    0    0  0.60743213827E+02  0.43570652816E+02 -0.72406927286E+02  0.13142891341E+03  0.80266159414E+02 0.  0.
         -6    2    1    2    0  502 -0.19991692878E+02 -0.79103219961E+02 -0.24853498888E+03  0.31365718105E+03  0.17307281513E+03 0.  0.
        -24    2    5    5    0    0 -0.23077226959E+02 -0.11565172820E+03 -0.23441893647E+03  0.27407603768E+03  0.79104715523E+02 0.  0.
          5    1    3    3  501    0 -0.40751520949E+02  0.35532567145E+02 -0.16034870258E+03  0.16928392188E+03  0.47000000000E+01 0. -1.
        -13    1    4    4    0    0  0.82667000996E+00 -0.20871841105E+02 -0.79363650967E+01  0.22345089514E+02  0.00000000000E+00 0.  1.
         14    1    4    4    0    0  0.59916543817E+02  0.64442493921E+02 -0.64470562189E+02  0.10908382389E+03  0.00000000000E+00 0. -1.
         -5    1    5    5    0  502  0.30855340809E+01  0.36548508236E+02 -0.14116052417E+02  0.39581143373E+02  0.47000000000E+01 0.  1.
         13    1    6    6    0    0  0.22817345138E+02 -0.27437718900E+02 -0.10479344870E+03  0.11070287506E+03  0.00000000000E+00 0. -1.
        -14    1    6    6    0    0 -0.45894572097E+02 -0.88214009298E+02 -0.12962548777E+03  0.16337316262E+03  0.00000000000E+00 0.  1.
</event>
<event>
12    1  0.1061634E+000  0.2194547E+03  0.7818608E-02  0.1134363E+00
         21   -1    0    0  503  502  0.00000000000E+00  0.00000000000E+00  0.30506048294E+03  0.30506048294E+03  0.00000000000E+00 0. -1.
         21   -1    0    0  501  503 -0.00000000000E+00 -0.00000000000E+00 -0.18860301344E+03  0.18860301344E+03  0.00000000000E+00 0. -1.
          6    2    1    2  501    0  0.13671255462E+03  0.32508935874E+00  0.15835942899E+03  0.27062534369E+03  0.17166810893E+03 0.  0.
         24    2    3    3    0    0  0.74913319186E+02 -0.61119287861E+02  0.56898324367E+02  0.13679334922E+03  0.78277891739E+02 0.  0.
         -6    2    1    2    0  502 -0.13671255462E+03 -0.32508935874E+00 -0.41901959491E+02  0.22303815268E+03  0.17117188750E+03 0.  0.
        -24    2    5    5    0    0 -0.16806335139E+03  0.22728258334E+01 -0.36777808107E+02  0.19082063340E+03  0.82519398600E+02 0.  0.
          5    1    3    3  501    0  0.61799235432E+02  0.61444377220E+02  0.10146110462E+03  0.13383199447E+03  0.47000000000E+01 0. -1.
        -11    1    4    4    0    0  0.79585963808E+02 -0.18965846551E+02  0.34034299704E+02  0.88611300221E+02  0.00000000000E+00 0.  1.
         12    1    4    4    0    0 -0.46726446212E+01 -0.42153441309E+02  0.22864024663E+02  0.48182048999E+02  0.00000000000E+00 0. -1.
         -5    1    5    5    0  502  0.31350796769E+02 -0.25979151921E+01 -0.51241513843E+01  0.32217519284E+02  0.47000000000E+01 0.  1.
         13    1    6    6    0    0  0.68508905544E+01 -0.86814948374E+01 -0.69002639227E+01  0.13035209864E+02  0.00000000000E+00 0. -1.
        -14    1    6    6    0    0 -0.17491424194E+03  0.10954320671E+02 -0.29877544184E+02  0.17778542354E+03  0.00000000000E+00 0.  1.
</event>
<event>
12    1  0.1061634E+000  0.3058668E+03  0.7818608E-02  0.1082540E+00
         21   -1    0    0  503  502  0.00000000000E+00  0.00000000000E+00  0.68708683670E+03  0.68708683670E+03  0.00000000000E+00 0. -1.
         21   -1    0    0  501  503 -0.00000000000E+00 -0.00000000000E+00 -0.13573793240E+03  0.13573793240E+03  0.00000000000E+00 0. -1.
          6    2    1    2  501    0  0.12577532475E+03 -0.21870442029E+03  0.29393564826E+03  0.42305471154E+03  0.17007665293E+03 0.  0.
         24    2    3    3    0    0  0.38337602481E+02 -0.70592876171E+02  0.19373263852E+03  0.22394389331E+03  0.78520100561E+02 0.  0.
         -6    2    1    2    0  502 -0.12577532475E+03  0.21870442029E+03  0.25741325605E+03  0.39977005756E+03  0.17292616563E+03 0.  0.
        -24    2    5    5    0    0 -0.15392340295E+03  0.14476995215E+03  0.20413208209E+03  0.30427349540E+03  0.79130904466E+02 0.  0.
          5    1    3    3  501    0  0.87437722269E+02 -0.14811154412E+03  0.10020300973E+03  0.19911081823E+03  0.47000000000E+01 0. -1.
        -11    1    4    4    0    0  0.49683471439E+02 -0.72515782802E+02  0.19339082027E+03  0.21243115462E+03  0.00000000000E+00 0.  1.
         12    1    4    4    0    0 -0.11345868958E+02  0.19229066317E+01  0.34181825036E+00  0.11512738686E+02  0.00000000000E+00 0. -1.
         -5    1    5    5    0  502  0.28148078204E+02  0.73934468137E+02  0.53281173964E+02  0.95496562159E+02  0.47000000000E+01 0.  1.
         11    1    6    6    0    0 -0.12279874039E+03  0.10495510121E+03  0.10403278360E+03  0.19214037571E+03  0.00000000000E+00 0. -1.
        -12    1    6    6    0    0 -0.31124662560E+02  0.39814850944E+02  0.10009929848E+03  0.11213311969E+03  0.00000000000E+00 0.  1.
</event>
<event>
12    1  0.1061634E+000  0.2155120E+03  0.7818608E-02  0.1137603E+00
         21   -1    0    0  503  502  0.00000000000E+00  0.00000000000E+00  0.66808622202E+02  0.66808622202E+02  0.00000000000E+00 0.  1.
         21   -1    0    0  501  503 -0.00000000000E+00 -0.00000000000E+00 -0.71544459725E+03  0.71544459725E+03  0.00000000000E+00 0.  1.
          6    2    1    2  501    0 -0.80433281405E+02 -0.10177679485E+03 -0.39976056346E+03  0.45415189174E+03  0.17209707710E+03 0.  0.
         24    2    3    3    0    0 -0.11593107906E+03 -0.45460913219E+02 -0.26568874815E+03  0.30438903311E+03  0.80965812945E+02 0.  0.
         -6    2    1    2    0  502  0.80433281405E+02  0.10177679485E+03 -0.24887541158E+03  0.32810132771E+03  0.16995141078E+03 0.  0.
        -24    2    5    5    0    0  0.23416124261E+02  0.43396760002E+02 -0.35709493114E+02  0.99801122990E+02  0.79079090772E+02 0.  0.
          5    1    3    3  501    0  0.35497797654E+02 -0.56315881632E+02 -0.13407181532E+03  0.14976285863E+03  0.47000000000E+01 0. -1.
        -13    1    4    4    0    0 -0.28825560618E+02  0.18657832526E+02 -0.32235195291E+02  0.47097085631E+02  0.00000000000E+00 0.  1.
         14    1    4    4    0    0 -0.87105518442E+02 -0.64118745744E+02 -0.23345355285E+03  0.25729194748E+03  0.00000000000E+00 0. -1.
         -5    1    5    5    0  502  0.57017157144E+02  0.58380034848E+02 -0.21316591847E+03  0.22830020472E+03  0.47000000000E+01 0.  1.
         13    1    6    6    0    0  0.27585616156E+02  0.65030101960E+02 -0.31620559862E+02  0.77393411771E+02  0.00000000000E+00 0. -1.
        -14    1    6    6    0    0 -0.41694918946E+01 -0.21633341957E+02 -0.40889332522E+01  0.22407711218E+02  0.00000000000E+00 0.  1.
</event>
<event>
12    1  0.1061634E+000  0.4486691E+03  0.7818608E-02  0.1028159E+00
         21   -1    0    0  503  502  0.00000000000E+00  0.00000000000E+00  0.38743365827E+03  0.38743365827E+03  0.00000000000E+00 0. -1.
         21   -1    0    0  501  503 -0.00000000000E+00 -0.00000000000E+00 -0.53636929875E+03  0.53636929875E+03  0.00000000000E+00 0.  1.
          6    2    1    2  501    0  0.27924441789E+03 -0.30616161594E+03  0.86573666508E+01  0.44875259124E+03  0.17202196996E+03 0.  0.
         24    2    3    3    0    0  0.16597082519E+03 -0.27268835488E+03  0.19796760683E+02  0.33001952041E+03  0.81337066681E+02 0.  0.
         -6    2    1    2    0  502 -0.27924441789E+03  0.30616161594E+03 -0.15759300713E+03  0.47505036578E+03  0.17066023008E+03 0.  0.
        -24    2    5    5    0    0 -0.12421571366E+03  0.64341510920E+02 -0.63557332005E+02  0.17276629322E+03  0.78989138954E+02 0.  0.
          5    1    3    3  501    0  0.11327359270E+03 -0.33473261056E+02 -0.11139394032E+02  0.11873307083E+03  0.47000000000E+01 0. -1.
        -13    1    4    4    0    0  0.79633752987E+02 -0.15998939651E+03  0.48503271065E+02  0.18517750650E+03  0.00000000000E+00 0.  1.
         14    1    4    4    0    0  0.86337072207E+02 -0.11269895838E+03 -0.28706510383E+02  0.14484201392E+03  0.00000000000E+00 0. -1.
         -5    1    5    5    0  502 -0.15502870423E+03  0.24182010502E+03 -0.94035675129E+02  0.30228407256E+03  0.47000000000E+01 0.  1.
         11    1    6    6    0    0  0.82400029212E+01 -0.25429411333E+01  0.42601022437E+01  0.96183506318E+01  0.00000000000E+00 0. -1.
        -12    1    6    6    0    0 -0.13245571658E+03  0.66884452053E+02 -0.67817434248E+02  0.16314794259E+03  0.00000000000E+00 0.  1.
</event>
<event>
12    1  0.1061634E+000  0.1850236E+03  0.7818608E-02  0.1164436E+00
         21   -1    0    0  503  502  0.00000000000E+00  0.00000000000E+00  0.21093514075E+03  0.21093514075E+03  0.00000000000E+00 0.  1.
         21   -1    0    0  501  503 -0.00000000000E+00 -0.00000000000E+00 -0.15721981198E+03  0.15721981198E+03  0.00000000000E+00 0.  1.
          6    2    1    2  501    0  0.17087633464E+02 -0.66401532959E+02  0.30632451399E+02  0.18169707040E+03  0.16545188882E+03 0.  0.
         24    2    3    3    0    0  0.16721646683E+02 -0.98255499496E+02  0.58505602027E+02  0.13910820264E+03  0.77423703896E+02 0.  0.
         -6    2    1    2    0  502 -0.17087633464E+02  0.66401532959E+02  0.23082877373E+02  0.18645788234E+03  0.17185043457E+03 0.  0.
        -24    2    5    5    0    0 -0.69702573646E+02  0.75799758008E+02  0.47922209256E+01  0.12977193454E+03  0.78827263848E+02 0.  0.
          5    1    3    3  501    0  0.36598678041E+00  0.31853966537E+02 -0.27873150629E+02  0.42588867752E+02  0.47000000000E+01 0. -1.
        -13    1    4    4    0    0 -0.14127633402E+02 -0.76160235409E+02  0.10888761424E+02  0.78221075219E+02  0.00000000000E+00 0.  1.
         14    1    4    4    0    0  0.30849280085E+02 -0.22095264087E+02  0.47616840604E+02  0.60887127424E+02  0.00000000000E+00 0. -1.
         -5    1    5    5    0  502  0.52614940182E+02 -0.93982250486E+01  0.18290656447E+02  0.56685947798E+02  0.47000000000E+01 0.  1.
         13    1    6    6    0    0  0.11690551723E+02 -0.69148347224E+01  0.16671703713E+01  0.13684421649E+02  0.00000000000E+00 0. -1.
        -14    1    6    6    0    0 -0.81393125369E+02  0.82714592730E+02  0.31250505542E+01  0.11608751289E+03  0.00000000000E+00 0.  1.
</event>
<event>
12    1  0.1061634E+000  0.1845653E+03  0.7818608E-02  0.1163630E+00
         21   -1    0    0  501  502  0.00000000000E+00  0.00000000000E+00  0.23118192982E+03  0.23118192982E+03  0.00000000000E+00 0. -1.
         21   -1    0    0  502  503 -0.00000000000E+00 -0.00000000000E+00 -0.25023152452E+03  0.25023152452E+03  0.00000000000E+00 0. -1.
         -6    2    1    2    0  503  0.51555803151E+02  0.42241446314E+02 -0.16431997604E+03  0.24711416048E+03  0.17211046790E+03 0.  0.
        -24    2    3    3    0    0 -0.38127976745E+02  0.25338657476E+02 -0.68324253578E+02  0.11457679451E+03  0.79773730269E+02 0.  0.
          6    2    1    2  501    0 -0.51555803151E+02 -0.42241446314E+02  0.14527038134E+03  0.23429929386E+03  0.17131939406E+03 0.  0.
         24    2    5    5    0    0 -0.91511604367E+02 -0.13053953434E+02  0.64329470060E+02  0.13931562731E+03  0.82010876479E+02 0.  0.
          5    1    5    5  501    0  0.39955801216E+02 -0.29187492880E+02  0.80940911282E+02  0.94983666547E+02  0.47000000000E+01 0. -1.
        -11    1    6    6    0    0 -0.64678758640E+02 -0.47252492957E+02  0.41134595913E+02  0.90045515662E+02  0.00000000000E+00 0.  1.
         12    1    6    6    0    0 -0.26832845727E+02  0.34198539523E+02  0.23194874147E+02  0.49270111650E+02  0.00000000000E+00 0. -1.
         -5    1    3    3    0  503  0.89683779896E+02  0.16902788837E+02 -0.95995722460E+02  0.13253736597E+03  0.47000000000E+01 0.  1.
         11    1    4    4    0    0 -0.47041564144E+02 -0.12713805295E+02 -0.20633822815E+02  0.52917900999E+02  0.00000000000E+00 0. -1.
        -12    1    4    4    0    0  0.89135873992E+01  0.38052462771E+02 -0.47690430762E+02  0.61658893516E+02  0.00000000000E+00 0.  1.
</event>
<event>
12    1  0.1061634E+000  0.2885403E+03  0.7818608E-02  0.1091148E+00
         21   -1    0    0  501  502  0.00000000000E+00  0.00000000000E+00  0.67055892024E+03  0.67055892024E+03  0.00000000000E+00 0.  1.
         21   -1    0    0  502  503 -0.00000000000E+00 -0.00000000000E+00 -0.14785600278E+03  0.14785600278E+03  0.00000000000E+00 0. -1.
         -6    2    1    2    0  503  0.29265744994E+02 -0.22979807210E+03  0.97036638388E+02  0.30417055762E+03  0.17158082982E+03 0.  0.
        -24    2    3    3    0    0 -0.40942087427E+02 -0.16695090076E+03  0.87020716424E+02  0.20929529546E+03  0.81749971405E+02 0.  0.
          6    2    1    2  501    0 -0.29265744994E+02  0.22979807210E+03  0.42566627907E+03  0.51424436540E+03  0.17202281371E+03 0.  0.
         24    2    5    5    0    0  0.27201090339E+02  0.18472737258E+03  0.25729157810E+03  0.33096315694E+03  0.92051907061E+02 0.  0.
          5    1    5    5  501    0 -0.56466835333E+02  0.45070699522E+02  0.16837470097E+03  0.18328120846E+03  0.47000000000E+01 0. -1.
        -13    1    6    6    0    0 -0.77413343256E+01  0.16952021719E+03  0.21747944316E+03  0.27585202644E+03  0.00000000000E+00 0.  1.
         14    1    6    6    0    0  0.34942424665E+02  0.15207155392E+02  0.39812134937E+02  0.55111130499E+02  0.00000000000E+00 0. -1.
         -5    1    3    3    0  503  0.70207832421E+02 -0.62847171341E+02  0.10015921964E+02  0.94875262168E+02  0.47000000000E+01 0.  1.
         13    1    4    4    0    0 -0.32038846266E+01  0.71514000900E+01 -0.44784913545E+01  0.90257567417E+01  0.00000000000E+00 0. -1.
        -14    1    4    4    0    0 -0.37738202800E+02 -0.17410230085E+03  0.91499207779E+02  0.20026953871E+03  0.00000000000E+00 0.  1.
</event>
<event>
12    1  0.1272947E+000  0.2975910E+03  0.7818608E-02  0.1086798E+00
         21   -1    0    0  503  502  0.00000000000E+00  0.00000000000E+00  0.43573451181E+03  0.43573451181E+03  0.00000000000E+00 0. -1.
         21   -1    0    0  501  503 -0.00000000000E+00 -0.00000000000E+00 -0.40112456339E+03  0.40112456339E+03  0.00000000000E+00 0. -1.
          6    2    1    2  501    0 -0.23322707293E+03  0.64340349841E+02  0.31253456174E+03  0.42967052316E+03  0.16853592500E+03 0.  0.
         24    2    3    3    0    0 -0.12377947181E+03  0.55367634929E+02  0.89670289687E+02  0.18117533052E+03  0.79980040611E+02 0.  0.
         -6    2    1    2    0  502  0.23322707293E+03 -0.64340349841E+02 -0.27792461333E+03  0.40718855204E+03  0.17327976816E+03 0.  0.
        -24    2    5    5    0    0  0.49422232826E+02 -0.37856095040E+01 -0.14168591794E+03  0.17047317877E+03  0.80804191724E+02 0.  0.
          5    1    3    3  501    0 -0.10944760112E+03  0.89727149117E+01  0.22286427206E+03  0.24849519264E+03  0.47000000000E+01 0. -1.
        -13    1    4    4    0    0 -0.65713653764E+02  0.26986772610E+02  0.92322434573E+02  0.11649035201E+03  0.00000000000E+00 0.  1.
         14    1    4    4    0    0 -0.58065818047E+02  0.28380862319E+02 -0.26521448865E+01  0.64684978503E+02  0.00000000000E+00 0. -1.
         -5    1    5    5    0  502  0.18380484011E+03 -0.60554740337E+02 -0.13623869539E+03  0.23671537328E+03  0.47000000000E+01 0.  1.
         11    1    6    6    0    0 -0.11582999929E+02  0.16627518548E+02 -0.73989165263E+01  0.21572765844E+02  0.00000000000E+00 0. -1.
        -12    1    6    6    0    0  0.61005232755E+02 -0.20413128052E+02 -0.13428700141E+03  0.14890041292E+03  0.00000000000E+00 0.  1.
</event>
<event>
12    1  0.1061634E+000  0.2607330E+03  0.7818608E-02  0.1107175E+00
         21   -1    0    0  503  502  0.00000000000E+00  0.00000000000E+00  0.57725475551E+02  0.57725475551E+02  0.00000000000E+00 0.  1.
         21   -1    0    0  501  503 -0.00000000000E+00 -0.00000000000E+00 -0.14418020411E+04  0.14418020411E+04  0.00000000000E+00 0.  1.
          6    2    1    2  501    0  0.13581006354E+03 -0.13555481916E+03 -0.36606131488E+03  0.44942475120E+03  0.17652829346E+03 0.  0.
         24    2    3    3    0    0  0.15779977500E+03 -0.12232164835E+03 -0.36303127561E+03  0.42315813060E+03  0.86068239067E+02 0.  0.
         -6    2    1    2    0  502 -0.13581006354E+03  0.13555481916E+03 -0.10180152507E+04  0.10501027655E+04  0.17187578377E+03 0.  0.
        -24    2    5    5    0    0 -0.12200582233E+03  0.48367708987E+02 -0.43847030749E+03  0.46385488236E+03  0.75367668024E+02 0.  0.
          5    1    3    3  501    0 -0.21989711467E+02 -0.13233170806E+02 -0.30300392682E+01  0.26266620604E+02  0.47000000000E+01 0.  1.
        -13    1    4    4    0    0 -0.67843416830E+01 -0.12513920630E+02 -0.56916682240E+02  0.58669704438E+02  0.00000000000E+00 0.  1.
         14    1    4    4    0    0  0.16458411669E+03 -0.10980772772E+03 -0.30611459337E+03  0.36448842616E+03  0.00000000000E+00 0. -1.
         -5    1    5    5    0  502 -0.13804241204E+02  0.87187110170E+02 -0.57954494323E+03  0.58624788313E+03  0.47000000000E+01 0.  1.
         11    1    6    6    0    0 -0.46553534982E+02  0.57606500061E+02 -0.24633019382E+03  0.25722423069E+03  0.00000000000E+00 0. -1.
        -12    1    6    6    0    0 -0.75452287352E+02 -0.92387910744E+01 -0.19214011367E+03  0.20663065167E+03  0.00000000000E+00 0.  1.
</event>
<event>
12    1  0.1061634E+000  0.1964070E+03  0.7818608E-02  0.1152926E+00
         21   -1    0    0  503  502  0.00000000000E+00  0.00000000000E+00  0.29415930390E+03  0.29415930390E+03  0.00000000000E+00 0.  1.
         21   -1    0    0  501  503 -0.00000000000E+00 -0.00000000000E+00 -0.16809011580E+03  0.16809011580E+03  0.00000000000E+00 0.  1.
          6    2    1    2  501    0  0.24159399882E+02  0.90608596267E+02  0.17200864222E+03  0.26107985132E+03  0.17257497341E+03 0.  0.
         24    2    3    3    0    0 -0.39570735526E+02  0.46453084772E+02  0.14988501419E+03  0.18031609540E+03  0.79527634090E+02 0.  0.
         -6    2    1    2    0  502 -0.24159399882E+02 -0.90608596267E+02 -0.45939454129E+02  0.20116956838E+03  0.17194524558E+03 0.  0.
        -24    2    5    5    0    0  0.47911357734E+02 -0.50690285385E+02 -0.54686423189E+02  0.11818604523E+03  0.78181411941E+02 0.  0.
          5    1    3    3  501    0  0.63730135408E+02  0.44155511495E+02  0.22123628031E+02  0.80763755929E+02  0.47000000000E+01 0. -1.
        -13    1    4    4    0    0  0.15325754302E+02 -0.95922398954E+00  0.73066752236E+02  0.74662903358E+02  0.00000000000E+00 0.  1.
         14    1    4    4    0    0 -0.54896489827E+02  0.47412308761E+02  0.76818261958E+02  0.10565319204E+03  0.00000000000E+00 0. -1.
         -5    1    5    5    0  502 -0.72070757616E+02 -0.39918310882E+02  0.87469690600E+01  0.82983523152E+02  0.47000000000E+01 0.  1.
         11    1    6    6    0    0  0.21352230609E+02  0.14715440709E+02  0.41843000675E+01  0.26267286010E+02  0.00000000000E+00 0. -1.
        -12    1    6    6    0    0  0.26559127124E+02 -0.65405726094E+02 -0.58870723256E+02  0.91918759218E+02  0.00000000000E+00 0.  1.
</event>
<event>
12    1  0.1061634E+000  0.2030945E+03  0.7818608E-02  0.1147190E+00
         21   -1    0    0  503  502  0.00000000000E+00  0.00000000000E+00  0.18988112144E+03  0.18988112144E+03  0.00000000000E+00 0. -1.
         21   -1    0    0  501  503 -0.00000000000E+00 -0.00000000000E+00 -0.30199512750E+03  0.30199512750E+03  0.00000000000E+00 0. -1.
          6    2    1    2  501    0  0.34626328111E+02 -0.10242885323E+03 -0.18651523143E+03  0.27574503457E+03  0.17192073744E+03 0.  0.
         24    2    3    3    0    0  0.66502371481E+02 -0.96035769800E+01 -0.10810817820E+03  0.15003755648E+03  0.79429818434E+02 0.  0.
         -6    2    1    2    0  502 -0.34626328111E+02  0.10242885323E+03  0.74401225376E+02  0.21613121437E+03  0.17171635599E+03 0.  0.
        -24    2    5    5    0    0  0.16914061244E+01  0.13563879845E+03  0.58660760764E+02  0.16424932439E+03  0.71665969670E+02 0.  0.
          5    1    3    3  501    0 -0.31876043370E+02 -0.92825276249E+02 -0.78407053231E+02  0.12570747809E+03  0.47000000000E+01 0. -1.
        -13    1    4    4    0    0  0.33378218500E+01 -0.26578628447E+02 -0.68553826501E+02  0.73601573847E+02  0.00000000000E+00 0.  1.
         14    1    4    4    0    0  0.63164549631E+02  0.16975051467E+02 -0.39554351701E+02  0.76435982632E+02  0.00000000000E+00 0. -1.
         -5    1    5    5    0  502 -0.36317734235E+02 -0.33209945222E+02  0.15740464611E+02  0.51881889979E+02  0.47000000000E+01 0.  1.
         11    1    6    6    0    0  0.28849090230E+02  0.33907719431E+02  0.34232019950E+02  0.56159012046E+02  0.00000000000E+00 0. -1.
        -12    1    6    6    0    0 -0.27157684106E+02  0.10173107902E+03  0.24428740815E+02  0.10809031234E+03  0.00000000000E+00 0.  1.
</event>
<event>
12    1  0.1061634E+000  0.3089328E+03  0.7818608E-02  0.1081171E+00
         21   -1    0    0  503  502  0.00000000000E+00  0.00000000000E+00  0.19510093308E+03  0.19510093308E+03  0.00000000000E+00 0.  1.
         21   -1    0    0  501  503 -0.00000000000E+00 -0.00000000000E+00 -0.87603933529E+03  0.87603933529E+03  0.00000000000E+00 0.  1.
          6    2    1    2  501    0 -0.81673515558E+02  0.24494590200E+03  0.18098456318E+02  0.30688114362E+03  0.16486183348E+03 0.  0.
         24    2    3    3    0    0  0.10116058547E+01  0.11608995199E+03  0.50328431689E+02  0.15035144526E+03  0.81207793689E+02 0.  0.
         -6    2    1    2    0  502  0.81673515558E+02 -0.24494590200E+03 -0.69903685853E+03  0.76425912474E+03  0.16961846043E+03 0.  0.
        -24    2    5    5    0    0  0.91879108291E+02 -0.11537393525E+03 -0.49069566178E+03  0.51865539319E+03  0.80425548905E+02 0.  0.
          5    1    3    3  501    0 -0.82685121413E+02  0.12885595001E+03 -0.32229975372E+02  0.15652969836E+03  0.47000000000E+01 0. -1.
        -13    1    4    4    0    0  0.26102053448E+02  0.14031581609E+02 -0.72594582665E+01  0.30510690110E+02  0.00000000000E+00 0.  1.
         14    1    4    4    0    0 -0.25090447593E+02  0.10205837038E+03  0.57587889956E+02  0.11984075515E+03  0.00000000000E+00 0. -1.
         -5    1    5    5    0  502 -0.10205592733E+02 -0.12957196675E+03 -0.20834119675E+03  0.24560373156E+03  0.47000000000E+01 0.  1.
         13    1    6    6    0    0  0.14621723068E+02 -0.82480227825E+02 -0.23071567031E+03  0.24545163127E+03  0.00000000000E+00 0. -1.
        -14    1    6    6    0    0  0.77257385223E+02 -0.32893707426E+02 -0.25997999147E+03  0.27320376192E+03  0.00000000000E+00 0.  1.
</event>
<event>
12    1  0.1061634E+000  0.1842616E+03  0.7818608E-02  0.1163919E+00
         21   -1    0    0  503  502  0.00000000000E+00  0.00000000000E+00  0.16231813119E+04  0.16231813119E+04  0.00000000000E+00 0.  1.
         21   -1    0    0  501  503 -0.00000000000E+00 -0.00000000000E+00 -0.37124823735E+02  0.37124823735E+02  0.00000000000E+00 0.  1.
          6    2    1    2  501    0 -0.65614816443E+02 -0.16521300030E+02  0.13439078124E+04  0.13564809424E+04  0.17138868546E+03 0.  0.
         24    2    3    3    0    0 -0.12087757600E+02 -0.26489596978E+02  0.31911251799E+03  0.33022951204E+03  0.79818035878E+02 0.  0.
         -6    2    1    2    0  502  0.65614816443E+02  0.16521300030E+02  0.24214867573E+03  0.30382519315E+03  0.17057405824E+03 0.  0.
        -24    2    5    5    0    0 -0.21748582702E+02  0.29767393753E+02  0.79060500453E+02  0.11827825725E+03  0.79875433175E+02 0.  0.
          5    1    3    3  501    0 -0.53527058843E+02  0.99682969485E+01  0.10247952944E+04  0.10262514304E+04  0.47000000000E+01 0. -1.
        -13    1    4    4    0    0  0.19639742159E+02 -0.19774699659E+02  0.37326906074E+02  0.46583861323E+02  0.00000000000E+00 0.  1.
         14    1    4    4    0    0 -0.31727499759E+02 -0.67148973186E+01  0.28178561192E+03  0.28364565072E+03  0.00000000000E+00 0. -1.
         -5    1    5    5    0  502  0.87363399145E+02 -0.13246093724E+02  0.16308817528E+03  0.18554693591E+03  0.47000000000E+01 0.  1.
         11    1    6    6    0    0  0.14758141853E+02  0.97530075057E+01 -0.97462657113E+01  0.20196871086E+02  0.00000000000E+00 0. -1.
        -12    1    6    6    0    0 -0.36506724554E+02  0.20014386248E+02  0.88806766165E+02  0.98081386161E+02  0.00000000000E+00 0.  1.
</event>
<event>
12    1  0.1061634E+000  0.2467522E+03  0.7818608E-02  0.1115522E+00
         21   -1    0    0  501  502  0.00000000000E+00  0.00000000000E+00  0.28041652213E+03  0.28041652213E+03  0.00000000000E+00 0. -1.
         21   -1    0    0  502  503 -0.00000000000E+00 -0.00000000000E+00 -0.34703702935E+03  0.34703702935E+03  0.00000000000E+00 0. -1.
         -6    2    1    2    0  503 -0.16035595909E+03 -0.73132926384E+02  0.15919202866E+03  0.29364731453E+03  0.17269680021E+03 0.  0.
        -24    2    3    3    0    0 -0.87020297188E+02  0.12181337115E+02  0.13325715371E+03  0.17809926997E+03  0.78999771208E+02 0.  0.
          6    2    1    2  501    0  0.16035595909E+03  0.73132926384E+02 -0.22581253588E+03  0.33380623695E+03  0.17138507499E+03 0.  0.
         24    2    5    5    0    0  0.46708343829E+02  0.70911976389E+02 -0.17170837674E+03  0.20782979824E+03  0.80618115924E+02 0.  0.
          5    1    5    5  501    0  0.11364761526E+03  0.22209499941E+01 -0.54104159135E+02  0.12597643871E+03  0.47000000000E+01 0. -1.
        -13    1    6    6    0    0  0.54820987387E+02  0.10112711168E+02 -0.80968543317E+02  0.98303166746E+02  0.00000000000E+00 0.  1.
         14    1    6    6    0    0 -0.81126435584E+01  0.60799265221E+02 -0.90739833423E+02  0.10952663149E+03  0.00000000000E+00 0. -1.
         -5    1    3    3    0  503 -0.73335661903E+02 -0.85314263499E+02  0.25934874942E+02  0.11554804456E+03  0.47000000000E+01 0.  1.
         11    1    4    4    0    0 -0.28599969661E+02 -0.16083526996E+02  0.99857879664E+02  0.10511058099E+03  0.00000000000E+00 0. -1.
        -12    1    4    4    0    0 -0.58420327527E+02  0.28264864111E+02  0.33399274049E+02  0.72988688977E+02  0.00000000000E+00 0.  1.
</event>
<event>
12    1  0.1061634E+000  0.2664613E+03  0.7818608E-02  0.1103346E+00
         21   -1    0    0  503  502  0.00000000000E+00  0.00000000000E+00  0.45970057263E+03  0.45970057263E+03  0.00000000000E+00 0.  1.
         21   -1    0    0  501  503 -0.00000000000E+00 -0.00000000000E+00 -0.15437477730E+03  0.15437477730E+03  0.00000000000E+00 0.  1.
          6    2    1    2  501    0  0.18012809483E+03 -0.94257682466E+02  0.14929389391E+03  0.30543456450E+03  0.17225262025E+03 0.  0.
         24    2    3    3    0    0  0.74166199015E+02 -0.67118779139E+01  0.13350706243E+02  0.11205713166E+03  0.82661266729E+02 0.  0.
         -6    2    1    2    0  502 -0.18012809483E+03  0.94257682466E+02  0.15603190142E+03  0.30864078543E+03  0.17199575262E+03 0.  0.
        -24    2    5    5    0    0 -0.17005472255E+03  0.89933698263E+02  0.18413552004E+03  0.27811091402E+03  0.80206683087E+02 0.  0.
          5    1    3    3  501    0  0.10596189581E+03 -0.87545804552E+02  0.13594318767E+03  0.19337743284E+03  0.47000000000E+01 0. -1.
        -11    1    4    4    0    0  0.56680894297E+02  0.11849985471E+02  0.43605905238E+02  0.72488763996E+02  0.00000000000E+00 0.  1.
         12    1    4    4    0    0  0.17485304718E+02 -0.18561863385E+02 -0.30255198995E+02  0.39568367664E+02  0.00000000000E+00 0. -1.
         -5    1    5    5    0  502 -0.10073372277E+02  0.43239842025E+01 -0.28103618622E+02  0.30529871406E+02  0.47000000000E+01 0.  1.
         13    1    6    6    0    0 -0.78077138942E+02  0.36969526682E+01  0.98278312489E+02  0.12557202630E+03  0.00000000000E+00 0. -1.
        -14    1    6    6    0    0 -0.91977583610E+02  0.86236745595E+02  0.85857207551E+02  0.15253888772E+03  0.00000000000E+00 0.  1.
</event>
<event>
12    1  0.1061634E+000  0.2523041E+03  0.7818608E-02  0.1111919E+00
         21   -1    0    0  501  502  0.00000000000E+00  0.00000000000E+00  0.97892702668E+02  0.97892702668E+02  0.00000000000E+00 0.  1.
         21   -1    0    0  502  503 -0.00000000000E+00 -0.00000000000E+00 -0.66126864217E+03  0.66126864217E+03  0.00000000000E+00 0.  1.
         -6    2    1    2    0  503  0.16989354783E+02 -0.18348532958E+03 -0.23033465417E+03  0.34134096324E+03  0.17176756366E+03 0.  0.
        -24    2    3    3    0    0  0.71272078478E+02 -0.16079150647E+03 -0.17463421269E+03  0.26018523097E+03  0.79155722780E+02 0.  0.
          6    2    1    2  501    0 -0.16989354783E+02  0.18348532958E+03 -0.33304128533E+03  0.41782038160E+03  0.17234230241E+03 0.  0.
         24    2    5    5    0    0 -0.16340652970E+02  0.48072851006E+02 -0.56602612601E+02  0.10996101444E+03  0.79432694780E+02 0.  0.
          5    1    5    5  501    0 -0.64870181330E+00  0.13541247857E+03 -0.27643867273E+03  0.30785936716E+03  0.47000000000E+01 0. -1.
        -13    1    6    6    0    0 -0.70065214093E+01  0.66294436561E+02 -0.22824535551E+02  0.70462778006E+02  0.00000000000E+00 0.  1.
         14    1    6    6    0    0 -0.93341315608E+01 -0.18221585556E+02 -0.33778077049E+02  0.39498236433E+02  0.00000000000E+00 0. -1.
         -5    1    3    3    0  503 -0.54282723695E+02 -0.22693823105E+02 -0.55700441485E+02  0.81155732271E+02  0.47000000000E+01 0.  1.
         11    1    4    4    0    0 -0.10496661008E+02 -0.42115301489E+02 -0.68933010855E+02  0.81459428536E+02  0.00000000000E+00 0. -1.
        -12    1    4    4    0    0  0.81768739486E+02 -0.11867620498E+03 -0.10570120183E+03  0.17872580243E+03  0.00000000000E+00 0.  1.
</event>
<event>
12    1  0.1061634E+000  0.3558469E+03  0.7818608E-02  0.1060275E+00
         21   -1    0    0  503  502  0.00000000000E+00  0.00000000000E+00  0.79548849777E+03  0.79548849777E+03  0.00000000000E+00 0.  1.
         21   -1    0    0  501  503 -0.00000000000E+00 -0.00000000000E+00 -0.21361034395E+03  0.21361034395E+03  0.00000000000E+00 0.  1.
          6    2    1    2  501    0  0.15045799991E+03  0.27279556469E+03  0.54609125402E+03  0.65179955981E+03  0.17196505053E+03 0.  0.
         24    2    3    3    0    0  0.36348774888E+02  0.18545203616E+03  0.26010507622E+03  0.33170583744E+03  0.81611400935E+02 0.  0.
         -6    2    1    2    0  502 -0.15045799991E+03 -0.27279556469E+03  0.35786899798E+02  0.35729928191E+03  0.17125140818E+03 0.  0.
        -24    2    5    5    0    0 -0.97421911251E+02 -0.22566952744E+03 -0.30507756613E+02  0.26008425449E+03  0.79343127067E+02 0.  0.
          5    1    3    3  501    0  0.11410922503E+03  0.87343528529E+02  0.28598617780E+03  0.32009372237E+03  0.47000000000E+01 0. -1.
        -11    1    4    4    0    0 -0.19105285922E+02  0.94780119097E+01  0.25636117897E+02  0.33347491671E+02  0.00000000000E+00 0.  1.
         12    1    4    4    0    0  0.55454060809E+02  0.17597402425E+03  0.23446895833E+03  0.29835834577E+03  0.00000000000E+00 0. -1.
         -5    1    5    5    0  502 -0.53036088663E+02 -0.47126037250E+02  0.66294656412E+02  0.97215027420E+02  0.47000000000E+01 0.  1.
         13    1    6    6    0    0 -0.27970801089E+02 -0.14887994591E+03  0.22073984085E+01  0.15150074790E+03  0.00000000000E+00 0. -1.
        -14    1    6    6    0    0 -0.69451110162E+02 -0.76789581533E+02 -0.32715155022E+02  0.10858350659E+03  0.00000000000E+00 0.  1.
</event>
<event>
12    1  0.1119098E+000  0.1739683E+03  0.7818608E-02  0.1174272E+00
         21   -1    0    0  503  502  0.00000000000E+00  0.00000000000E+00  0.90504222950E+02  0.90504222950E+02  0.00000000000E+00 0.  1.
         21   -1    0    0  501  503 -0.00000000000E+00 -0.00000000000E+00 -0.12029391501E+04  0.12029391501E+04  0.00000000000E+00 0.  1.
          6    2    1    2  501    0 -0.12949836185E+02  0.62096555738E+01 -0.63703990040E+01  0.17408492506E+03  0.17337451102E+03 0.  0.
         24    2    3    3    0    0  0.86483018434E+01  0.62755518907E+01  0.62867141338E+02  0.10140472899E+03  0.78844568135E+02 0.  0.
         -6    2    1    2    0  502  0.12949836185E+02 -0.62096555738E+01 -0.11060645282E+04  0.11193584480E+04  0.17140109855E+03 0.  0.
        -24    2    5    5    0    0  0.28539884967E+02  0.47276695922E+02 -0.91886936804E+03  0.92399223447E+03  0.79944498459E+02 0.  0.
          5    1    3    3  501    0 -0.21598138029E+02 -0.65896316870E-01 -0.69237540342E+02  0.72680196073E+02  0.47000000000E+01 0. -1.
        -11    1    4    4    0    0  0.11342812964E+02  0.39165071844E+02  0.53180115015E+02  0.67012587559E+02  0.00000000000E+00 0.  1.
         12    1    4    4    0    0 -0.26945111205E+01 -0.32889519953E+02  0.96870263236E+01  0.34392141427E+02  0.00000000000E+00 0. -1.
         -5    1    5    5    0  502 -0.15590048782E+02 -0.53486351496E+02 -0.18719516014E+03  0.19536621355E+03  0.47000000000E+01 0.  1.
         11    1    6    6    0    0  0.33528972115E+01  0.43871401781E+02 -0.20491165412E+03  0.20958226978E+03  0.00000000000E+00 0. -1.
        -12    1    6    6    0    0  0.25186987755E+02  0.34052941407E+01 -0.71395771393E+03  0.71440996469E+03  0.00000000000E+00 0.  1.
</event>
<event>
12    1  0.1061634E+000  0.3961074E+03  0.7818608E-02  0.1045164E+00
         21   -1    0    0  501  502  0.00000000000E+00  0.00000000000E+00  0.28638982475E+03  0.28638982475E+03  0.00000000000E+00 0.  1.
         21   -1    0    0  502  503 -0.00000000000E+00 -0.00000000000E+00 -0.54809737863E+03  0.54809737863E+03  0.00000000000E+00 0.  1.
         -6    2    1    2    0  503 -0.21901901362E+03  0.28163058439E+03 -0.14551485548E+03  0.42168961940E+03  0.17135474185E+03 0.  0.
        -24    2    3    3    0    0 -0.12082842793E+03  0.12294595310E+03 -0.13190681958E+03  0.23452799949E+03  0.88818675471E+02 0.  0.
          6    2    1    2  501    0  0.21901901362E+03 -0.28163058439E+03 -0.11619269841E+03  0.41279758397E+03  0.17209296262E+03 0.  0.
         24    2    5    5    0    0  0.52721487065E+02 -0.16644542664E+03 -0.38432835933E+02  0.19602310643E+03  0.80401120192E+02 0.  0.
          5    1    5    5  501    0  0.16629752655E+03 -0.11518515775E+03 -0.77759862474E+02  0.21677447755E+03  0.47000000000E+01 0. -1.
        -13    1    6    6    0    0 -0.13999316614E+02 -0.13244464973E+01 -0.14931576120E+01  0.14140882004E+02  0.00000000000E+00 0.  1.
         14    1    6    6    0    0  0.66720803680E+02 -0.16512098014E+03 -0.36939678321E+02  0.18188222443E+03  0.00000000000E+00 0. -1.
         -5    1    3    3    0  503 -0.98190585685E+02  0.15868463130E+03 -0.13608035894E+02  0.18716161991E+03  0.47000000000E+01 0.  1.
         11    1    4    4    0    0 -0.99388057901E+02  0.13370247591E+03 -0.98951689413E+02  0.19376732169E+03  0.00000000000E+00 0. -1.
        -12    1    4    4    0    0 -0.21440370030E+02 -0.10756522812E+02 -0.32955130168E+02  0.40760677797E+02  0.00000000000E+00 0.  1.
</event>
<event>
12    1  0.1061634E+000  0.1776633E+03  0.7818608E-02  0.1170387E+00
         21   -1    0    0  503  502  0.00000000000E+00  0.00000000000E+00  0.11685250015E+03  0.11685250015E+03  0.00000000000E+00 0. -1.
         21   -1    0    0  501  503 -0.00000000000E+00 -0.00000000000E+00 -0.26860748070E+03  0.26860748070E+03  0.00000000000E+00 0. -1.
          6    2    1    2  501    0  0.37493718658E+02 -0.33618084351E+01 -0.82598332442E+02  0.19481134219E+03  0.17237138344E+03 0.  0.
         24    2    3    3    0    0  0.83173185116E+02  0.25957868017E+02 -0.36796734043E+02  0.12363456578E+03  0.79623593150E+02 0.  0.
         -6    2    1    2    0  502 -0.37493718658E+02  0.33618084351E+01 -0.69156648113E+02  0.19064863867E+03  0.17362943515E+03 0.  0.
        -24    2    5    5    0    0 -0.65022061332E+02  0.46898542261E+02 -0.80628662006E+02  0.13766794458E+03  0.77615334201E+02 0.  0.
          5    1    3    3  501    0 -0.45679466458E+02 -0.29319676452E+02 -0.45801598400E+02  0.71176776403E+02  0.47000000000E+01 0. -1.
        -13    1    4    4    0    0  0.76610677695E+02  0.91615115238E+01  0.58038439111E+01  0.77374503775E+02  0.00000000000E+00 0.  1.
         14    1    4    4    0    0  0.65625074212E+01  0.16796356493E+02 -0.42600577954E+02  0.46260062009E+02  0.00000000000E+00 0. -1.
         -5    1    5    5    0  502  0.27528342673E+02 -0.43536733826E+02  0.11472013893E+02  0.52980694081E+02  0.47000000000E+01 0.  1.
         11    1    6    6    0    0 -0.14788751215E+01 -0.44935378273E+01  0.12737045552E+02  0.13587173482E+02  0.00000000000E+00 0. -1.
        -12    1    6    6    0    0 -0.63543186210E+02  0.51392080088E+02 -0.93365707558E+02  0.12408077110E+03  0.00000000000E+00 0.  1.
</event>
<event>
12    1  0.1061634E+000  0.2290165E+03  0.7818608E-02  0.1127352E+00
         21   -1    0    0  501  502  0.00000000000E+00  0.00000000000E+00  0.62212202356E+02  0.62212202356E+02  0.00000000000E+00 0. -1.
         21   -1    0    0  502  503 -0.00000000000E+00 -0.00000000000E+00 -0.11173533321E+04  0.11173533321E+04  0.00000000000E+00 0. -1.
         -6    2    1    2    0  503 -0.53839255718E+02  0.14272487543E+03 -0.82007308627E+03  0.85145078559E+03  0.17082013329E+03 0.  0.
        -24    2    3    3    0    0 -0.79199383546E+02  0.11363891198E+03 -0.40519573188E+03  0.43475612695E+03  0.75119665321E+02 0.  0.
          6    2    1    2  501    0  0.53839255718E+02 -0.14272487543E+03 -0.23506804343E+03  0.32811474882E+03  0.17068464439E+03 0.  0.
         24    2    5    5    0    0  0.38062593801E+01 -0.20631109852E+01 -0.39185643959E+02  0.81779535906E+02  0.71649380759E+02 0.  0.
          5    1    5    5  501    0  0.50032996338E+02 -0.14066176445E+03 -0.19588239947E+03  0.24633521291E+03  0.47000000000E+01 0. -1.
        -11    1    6    6    0    0 -0.29655440905E+02  0.14532786724E+02 -0.10401999003E+02  0.34624393836E+02  0.00000000000E+00 0.  1.
         12    1    6    6    0    0  0.33461700285E+02 -0.16595897710E+02 -0.28783644956E+02  0.47155142071E+02  0.00000000000E+00 0. -1.
         -5    1    3    3    0  503  0.25360127828E+02  0.29085963455E+02 -0.41487735439E+03  0.41669465864E+03  0.47000000000E+01 0.  1.
         11    1    4    4    0    0 -0.55951617513E+02  0.20342195580E+02 -0.12344653162E+03  0.13705267087E+03  0.00000000000E+00 0. -1.
        -12    1    4    4    0    0 -0.23247766033E+02  0.93296716395E+02 -0.28174920025E+03  0.29770345607E+03  0.00000000000E+00 0.  1.
</event>
<event>
12    1  0.1061634E+000  0.3564434E+03  0.7818608E-02  0.1060002E+00
         21   -1    0    0  501  502  0.00000000000E+00  0.00000000000E+00  0.23729688299E+04  0.23729688299E+04  0.00000000000E+00 0.  1.
         21   -1    0    0  502  503 -0.00000000000E+00 -0.00000000000E+00 -0.88215546663E+02  0.88215546663E+02  0.00000000000E+00 0. -1.
         -6    2    1    2    0  503 -0.20682910670E+03  0.23350516982E+03  0.37083057781E+03  0.51435310001E+03  0.17245535752E+03 0.  0.
        -24    2    3    3    0    0 -0.34134843221E+02  0.12469611559E+03  0.15910796321E+03  0.22022511009E+03  0.80432868848E+02 0.  0.
          6    2    1    2  501    0  0.20682910670E+03 -0.23350516982E+03  0.19139227054E+04  0.19468312765E+04  0.17247884891E+03 0.  0.
         24    2    5    5    0    0  0.11723871765E+03 -0.18650256937E+03  0.15984489339E+04  0.16154984035E+04  0.79170525264E+02 0.  0.
          5    1    5    5  501    0  0.89590389043E+02 -0.47002600453E+02  0.31547377152E+03  0.33133287307E+03  0.47000000000E+01 0. -1.
        -13    1    6    6    0    0  0.11812935777E+03 -0.12327531365E+03  0.11436525369E+04  0.11563271480E+04  0.00000000000E+00 0.  1.
         14    1    6    6    0    0 -0.89064011950E+00 -0.63227255725E+02  0.45479639702E+03  0.45917125547E+03  0.00000000000E+00 0. -1.
         -5    1    3    3    0  503 -0.17269426348E+03  0.10880905423E+03  0.21172261460E+03  0.29412798992E+03  0.47000000000E+01 0.  1.
         13    1    4    4    0    0 -0.42621604840E+02  0.46493810437E+02  0.31952168718E+02  0.70705139091E+02  0.00000000000E+00 0. -1.
        -14    1    4    4    0    0  0.84867616182E+01  0.78202305155E+02  0.12715579449E+03  0.14951997100E+03  0.00000000000E+00 0.  1.
</event>
<event>
12    1  0.1061634E+000  0.4893556E+03  0.7818608E-02  0.1016638E+00
         21   -1    0    0  501  502  0.00000000000E+00  0.00000000000E+00  0.21076868126E+04  0.21076868126E+04  0.00000000000E+00 0.  1.
         21   -1    0    0  502  503 -0.00000000000E+00 -0.00000000000E+00 -0.11506412404E+03  0.11506412404E+03  0.00000000000E+00 0.  1.
         -6    2    1    2    0  503 -0.41040052022E+03  0.20388827713E+03  0.86485446772E+03  0.99338927178E+03  0.16985281395E+03 0.  0.
        -24    2    3    3    0    0 -0.36254105858E+03  0.22546713851E+03  0.79180100477E+03  0.90330556750E+03  0.82101567752E+02 0.  0.
          6    2    1    2  501    0  0.41040052022E+03 -0.20388827713E+03  0.11277682208E+04  0.12293616649E+04  0.17166807085E+03 0.  0.
         24    2    5    5    0    0  0.79600268399E+02 -0.50993376150E+02  0.30114379685E+03  0.32595938144E+03  0.81396589789E+02 0.  0.
          5    1    5    5  501    0  0.33080025182E+03 -0.15289490098E+03  0.82662442398E+03  0.90340228341E+03  0.47000000000E+01 0. -1.
        -11    1    6    6    0    0  0.43162037170E+01 -0.49253922251E+02  0.11884740687E+03  0.12872173318E+03  0.00000000000E+00 0.  1.
         12    1    6    6    0    0  0.75284064682E+02 -0.17394538984E+01  0.18229638998E+03  0.19723764827E+03  0.00000000000E+00 0. -1.
         -5    1    3    3    0  503 -0.47859461641E+02 -0.21578861382E+02  0.73053462956E+02  0.90083704281E+02  0.47000000000E+01 0.  1.
         13    1    4    4    0    0 -0.18722240402E+02  0.39242687101E+02  0.70189071523E+02  0.82565225960E+02  0.00000000000E+00 0. -1.
        -14    1    4    4    0    0 -0.34381881817E+03  0.18622445141E+03  0.72161193324E+03  0.82074034154E+03  0.00000000000E+00 0.  1.
</event>
<event>
12    1  0.1061634E+000  0.1945514E+03  0.7818608E-02  0.1155007E+00
         21   -1    0    0  503  502  0.00000000000E+00  0.00000000000E+00  0.48251001923E+02  0.48251001923E+02  0.00000000000E+00 0. -1.
         21   -1    0    0  501  503 -0.00000000000E+00 -0.00000000000E+00 -0.82942333539E+03  0.82942333539E+03  0.00000000000E+00 0. -1.
          6    2    1    2  501    0 -0.86702406251E+02  0.38439384547E+01 -0.27937559555E+03  0.34044234455E+03  0.17412117466E+03 0.  0.
         24    2    3    3    0    0 -0.66398933405E+02  0.67244213672E+02 -0.14776959174E+03  0.19288199709E+03  0.80230978593E+02 0.  0.
         -6    2    1    2    0  502  0.86702406251E+02 -0.38439384547E+01 -0.50179673792E+03  0.53723199276E+03  0.17113200970E+03 0.  0.
        -24    2    5    5    0    0  0.37650080039E+02  0.62970128180E+02 -0.26187182446E+03  0.28334953116E+03  0.79544571122E+02 0.  0.
          5    1    3    3  501    0 -0.20303472845E+02 -0.63400275217E+02 -0.13160600381E+03  0.14756034747E+03  0.47000000000E+01 0. -1.
        -13    1    4    4    0    0 -0.62742391576E+02  0.16179086277E+02 -0.11529626713E+03  0.13225581178E+03  0.00000000000E+00 0.  1.
         14    1    4    4    0    0 -0.36565418291E+01  0.51065127395E+02 -0.32473324609E+02  0.60626185310E+02  0.00000000000E+00 0. -1.
         -5    1    5    5    0  502  0.49052326211E+02 -0.66814066635E+02 -0.23992491346E+03  0.25388246159E+03  0.47000000000E+01 0.  1.
         11    1    6    6    0    0  0.11278638183E+02  0.31252626416E+02 -0.21751940364E+02  0.39712482254E+02  0.00000000000E+00 0. -1.
        -12    1    6    6    0    0  0.26371441857E+02  0.31717501764E+02 -0.24011988409E+03  0.24363704891E+03  0.00000000000E+00 0.  1.
</event>
<event>
12    1  0.1061634E+000  0.2202569E+03  0.7818608E-02  0.1134218E+00
         21   -1    0    0  501  502  0.00000000000E+00  0.00000000000E+00  0.11595537822E+03  0.11595537822E+03  0.00000000000E+00 0. -1.
         21   -1    0    0  502  503 -0.00000000000E+00 -0.00000000000E+00 -0.74249850582E+03  0.74249850582E+03  0.00000000000E+00 0. -1.
         -6    2    1    2    0  503  0.91308971397E+02  0.10058787139E+03 -0.60029212277E+03  0.63942453542E+03  0.17337201537E+03 0.  0.
        -24    2    3    3    0    0  0.42482049398E+02  0.48627981558E+02 -0.12965106239E+03  0.16338987684E+03  0.75613813299E+02 0.  0.
          6    2    1    2  501    0 -0.91308971397E+02 -0.10058787139E+03 -0.26251004835E+02  0.21902934861E+03  0.16979249739E+03 0.  0.
         24    2    5    5    0    0 -0.42217003487E+01 -0.33817362676E+02  0.34222580492E+02  0.93643391922E+02  0.80227570467E+02 0.  0.
          5    1    5    5  501    0 -0.87087271048E+02 -0.66770508716E+02 -0.60473585327E+02  0.12538595669E+03  0.47000000000E+01 0. -1.
        -11    1    6    6    0    0  0.17048930721E+02  0.14113445219E+02  0.34752873602E+02  0.41202155263E+02  0.00000000000E+00 0.  1.
         12    1    6    6    0    0 -0.21270631070E+02 -0.47930807896E+02 -0.53029310939E+00  0.52441236660E+02  0.00000000000E+00 0. -1.
         -5    1    3    3    0  503  0.48826921999E+02  0.51959889834E+02 -0.47064106037E+03  0.47603465858E+03  0.47000000000E+01 0.  1.
         13    1    4    4    0    0  0.21123704841E+02  0.57718172338E+02 -0.46529943571E+02  0.77088481455E+02  0.00000000000E+00 0. -1.
        -14    1    4    4    0    0  0.21358344557E+02 -0.90901907804E+01 -0.83121118822E+02  0.86301395382E+02  0.00000000000E+00 0.  1.
</event>
<event>
12    1  0.1061634E+000  0.2057315E+03  0.7818608E-02  0.1148518E+00
         21   -1    0    0  503  502  0.00000000000E+00  0.00000000000E+00  0.19230429248E+04  0.19230429248E+04  0.00000000000E+00 0.  1.
         21   -1    0    0  501  503 -0.00000000000E+00 -0.00000000000E+00 -0.25722544914E+02  0.25722544914E+02  0.00000000000E+00 0.  1.
          6    2    1    2  501    0  0.42298470105E+02  0.65092309223E+02  0.13655154614E+04  0.13785533100E+04  0.17248357562E+03 0.  0.
         24    2    3    3    0    0  0.51541692971E+01 -0.25985845173E+02  0.56069184995E+03  0.56772776474E+03  0.85074288928E+02 0.  0.
         -6    2    1    2    0  502 -0.42298470105E+02 -0.65092309223E+02  0.53180491845E+03  0.57021215969E+03  0.19052366383E+03 0.  0.
        -24    2    5    5    0    0  0.42933503229E+02 -0.15131025349E+02  0.15288610275E+03  0.17859732588E+03  0.80315694429E+02 0.  0.
          5    1    3    3  501    0  0.37144300808E+02  0.91078154396E+02  0.80482361145E+03  0.81082554526E+03  0.47000000000E+01 0. -1.
        -11    1    4    4    0    0  0.23260500334E+01 -0.42915604027E+02  0.13470342489E+03  0.14139367827E+03  0.00000000000E+00 0.  1.
         12    1    4    4    0    0  0.28281192636E+01  0.16929758854E+02  0.42598842507E+03  0.42633408647E+03  0.00000000000E+00 0. -1.
         -5    1    5    5    0  502 -0.85231973333E+02 -0.49961283874E+02  0.37891881571E+03  0.39161483381E+03  0.47000000000E+01 0.  1.
         13    1    6    6    0    0  0.22039421810E+01 -0.23396757977E+02  0.37734923139E+01  0.23801363180E+02  0.00000000000E+00 0. -1.
        -14    1    6    6    0    0  0.40729561048E+02  0.82657326282E+01  0.14911261043E+03  0.15479596270E+03  0.00000000000E+00 0.  1.
</event>
<event>
12    1  0.1061634E+000  0.2076335E+03  0.7818608E-02  0.1143501E+00
         21   -1    0    0  503  502  0.00000000000E+00  0.00000000000E+00  0.45525299912E+02  0.45525299912E+02  0.00000000000E+00 0.  1.
         21   -1    0    0  501  503 -0.00000000000E+00 -0.00000000000E+00 -0.94821210609E+03  0.94821210609E+03  0.00000000000E+00 0.  1.
          6    2    1    2  501    0 -0.26817346756E+01  0.11458413585E+03 -0.42716731212E+03  0.47495641229E+03  0.17313279627E+03 0.  0.
         24    2    3    3    0    0  0.21568568336E+02  0.14561658330E+03 -0.32925085659E+03  0.36931166677E+03  0.79470674971E+02 0.  0.
         -6    2    1    2    0  502  0.26817346756E+01 -0.11458413585E+03 -0.47551949406E+03  0.51878099371E+03  0.17285315825E+03 0.  0.
        -24    2    5    5    0    0 -0.19685800731E+02 -0.74141673188E+02 -0.45426731606E+03  0.46769631405E+03  0.80601050148E+02 0.  0.
          5    1    3    3  501    0 -0.24250303012E+02 -0.31032447452E+02 -0.97916455531E+02  0.10564474551E+03  0.47000000000E+01 0. -1.
        -13    1    4    4    0    0  0.29251237293E+02  0.80101238769E+02 -0.26019723744E+03  0.27381461924E+03  0.00000000000E+00 0.  1.
         14    1    4    4    0    0 -0.76826689568E+01  0.65515344530E+02 -0.69053619143E+02  0.95497047535E+02  0.00000000000E+00 0. -1.
         -5    1    5    5    0  502  0.22367535406E+02 -0.40442462659E+02 -0.21252177996E+02  0.51084679657E+02  0.47000000000E+01 0.  1.
         13    1    6    6    0    0 -0.98056510984E+01 -0.34981266560E+02 -0.52155071354E+02  0.63560925666E+02  0.00000000000E+00 0. -1.
        -14    1    6    6    0    0 -0.98801496321E+01 -0.39160406628E+02 -0.40211224471E+03  0.40413538839E+03  0.00000000000E+00 0.  1.
</event>
<event>
12    1  0.1061634E+000  0.1901704E+03  0.7818608E-02  0.1158359E+00
         21   -1    0    0  503  502  0.00000000000E+00  0.00000000000E+00  0.78358792978E+03  0.78358792978E+03  0.00000000000E+00 0. -1.
         21   -1    0    0  501  503 -0.00000000000E+00 -0.00000000000E+00 -0.99357428242E+02  0.99357428242E+02  0.00000000000E+00 0.  1.
          6    2    1    2  501    0 -0.71459412085E+02  0.37781328254E+02  0.66543436535E+03  0.69207490272E+03  0.17213628334E+03 0.  0.
         24    2    3    3    0    0  0.17433168649E+02 -0.21872929383E+02  0.38818769365E+03  0.39484043578E+03  0.66535282525E+02 0.  0.
         -6    2    1    2    0  502  0.71459412085E+02 -0.37781328254E+02  0.18796136190E+02  0.19087045531E+03  0.17188472775E+03 0.  0.
        -24    2    5    5    0    0  0.12321121559E+02  0.16322196140E+02  0.49657492689E+02  0.10485277060E+03  0.90055609478E+02 0.  0.
          5    1    3    3  501    0 -0.88892580734E+02  0.59654257636E+02  0.27724667170E+03  0.29723446694E+03  0.47000000000E+01 0. -1.
        -13    1    4    4    0    0 -0.22509243643E+02 -0.21832877515E+02  0.14086462999E+03  0.14431280114E+03  0.00000000000E+00 0.  1.
         14    1    4    4    0    0  0.39942412292E+02 -0.40051867865E-01  0.24732306365E+03  0.25052763464E+03  0.00000000000E+00 0. -1.
         -5    1    5    5    0  502  0.59138290526E+02 -0.54103524394E+02 -0.30861356499E+02  0.86017684711E+02  0.47000000000E+01 0.  1.
         11    1    6    6    0    0  0.29414657332E+02  0.44795025898E+02  0.12520322269E+02  0.55032489321E+02  0.00000000000E+00 0. -1.
        -12    1    6    6    0    0 -0.17093535773E+02 -0.28472829757E+02  0.37137170420E+02  0.49820281276E+02  0.00000000000E+00 0.  1.
</event>
<event>
12    1  0.1061634E+000  0.1895383E+03  0.7818608E-02  0.1159087E+00
         21   -1    0    0  503  502  0.00000000000E+00  0.00000000000E+00  0.12331647876E+04  0.12331647876E+04  0.00000000000E+00 0.  1.
         21   -1    0    0  501  503 -0.00000000000E+00 -0.00000000000E+00 -0.29085673040E+02  0.29085673040E+02  0.00000000000E+00 0.  1.
          6    2    1    2  501    0 -0.64163856196E+02  0.48443923849E+02  0.63957171563E+03  0.66706576641E+03  0.17164190364E+03 0.  0.
         24    2    3    3    0    0 -0.10087350720E+03  0.18868236573E+02  0.55566965708E+03  0.57071243132E+03  0.80077691368E+02 0.  0.
         -6    2    1    2    0  502  0.64163856196E+02 -0.48443923849E+02  0.56450739893E+03  0.59518469422E+03  0.17062356987E+03 0.  0.
        -24    2    5    5    0    0  0.10650520666E+03 -0.50103068334E+02  0.39466560603E+03  0.42007367991E+03  0.82748289832E+02 0.  0.
          5    1    3    3  501    0  0.36709651003E+02  0.29575687276E+02  0.83902058542E+02  0.96353335087E+02  0.47000000000E+01 0. -1.
        -11    1    4    4    0    0 -0.75878324069E+01  0.22571565056E+02  0.24928090795E+03  0.25041569803E+03  0.00000000000E+00 0.  1.
         12    1    4    4    0    0 -0.93285674793E+02 -0.37033284837E+01  0.30638874913E+03  0.32029673329E+03  0.00000000000E+00 0. -1.
         -5    1    5    5    0  502 -0.42341350460E+02  0.16591444853E+01  0.16984179290E+03  0.17511101432E+03  0.47000000000E+01 0.  1.
         11    1    6    6    0    0  0.11013745757E+03 -0.65076957169E+02  0.36243753683E+03  0.38435171135E+03  0.00000000000E+00 0. -1.
        -12    1    6    6    0    0 -0.36322509146E+01  0.14973888834E+02  0.32228069196E+02  0.35721968558E+02  0.00000000000E+00 0.  1.
</event>
<event>
12    1  0.1061634E+000  0.1801567E+03  0.7818608E-02  0.1167741E+00
         21   -1    0    0  501  502  0.00000000000E+00  0.00000000000E+00  0.29406128315E+03  0.29406128315E+03  0.00000000000E+00 0. -1.
         21   -1    0    0  502  503 -0.00000000000E+00 -0.00000000000E+00 -0.11112749392E+03  0.11112749392E+03  0.00000000000E+00 0. -1.
         -6    2    1    2    0  503  0.16922107957E+00  0.55574052205E+02  0.72536242580E+02  0.19421103787E+03  0.17137070003E+03 0.  0.
        -24    2    3    3    0    0 -0.11723862021E+02  0.88782408937E+02  0.67948906616E+01  0.11945640099E+03  0.78764815249E+02 0.  0.
          6    2    1    2  501    0 -0.16922107957E+00 -0.55574052205E+02  0.11039754665E+03  0.21097773920E+03  0.17098387123E+03 0.  0.
         24    2    5    5    0    0  0.31840216677E+02 -0.93728136393E+02  0.64688629410E+02  0.14321540925E+03  0.80791532492E+02 0.  0.
          5    1    5    5  501    0 -0.32009437757E+02  0.38154084188E+02  0.45708917238E+02  0.67762329954E+02  0.47000000000E+01 0. -1.
        -13    1    6    6    0    0 -0.22832731189E+02 -0.30519163406E+02  0.41791435778E+02  0.56562152125E+02  0.00000000000E+00 0.  1.
         14    1    6    6    0    0  0.54672947866E+02 -0.63208972986E+02  0.22897193631E+02  0.86653257126E+02  0.00000000000E+00 0. -1.
         -5    1    3    3    0  503  0.11893083101E+02 -0.33208356733E+02  0.65741351918E+02  0.74754636877E+02  0.47000000000E+01 0.  1.
         11    1    4    4    0    0 -0.31171318883E+02  0.38573382541E+02  0.33004643054E+02  0.59572337747E+02  0.00000000000E+00 0. -1.
        -12    1    4    4    0    0  0.19447456862E+02  0.50209026397E+02 -0.26209752393E+02  0.59884063244E+02  0.00000000000E+00 0.  1.
</event>
<event>
12    1  0.1061634E+000  0.1775240E+03  0.7818608E-02  0.1170468E+00
         21   -1    0    0  501  502  0.00000000000E+00  0.00000000000E+00  0.11648407234E+03  0.11648407234E+03  0.00000000000E+00 0.  1.
         21   -1    0    0  502  503 -0.00000000000E+00 -0.00000000000E+00 -0.33439607506E+03  0.33439607506E+03  0.00000000000E+00 0.  1.
         -6    2    1    2    0  503 -0.42205085522E+02 -0.13287882901E+01 -0.95296615319E+01  0.17777955068E+03  0.17242888178E+03 0.  0.
        -24    2    3    3    0    0  0.42255052847E+02 -0.15142661391E+01 -0.18364653156E+02  0.92728410467E+02  0.80458157630E+02 0.  0.
          6    2    1    2  501    0  0.42205085522E+02  0.13287882901E+01 -0.20838234119E+03  0.27310059672E+03  0.17139924412E+03 0.  0.
         24    2    5    5    0    0  0.41717863117E+02  0.65436902586E+02 -0.11340563736E+03  0.15841514875E+03  0.78817209077E+02 0.  0.
          5    1    5    5  501    0  0.48722240445E+00 -0.64108114296E+02 -0.94976703833E+02  0.11468544797E+03  0.47000000000E+01 0. -1.
        -11    1    6    6    0    0  0.14518065559E+02 -0.17153464577E+02 -0.14612704260E+02  0.26805721411E+02  0.00000000000E+00 0.  1.
         12    1    6    6    0    0  0.27199797559E+02  0.82590367162E+02 -0.98792933100E+02  0.13160942734E+03  0.00000000000E+00 0. -1.
         -5    1    3    3    0  503 -0.84460138369E+02  0.18547784900E+00  0.88349916238E+01  0.85051140217E+02  0.47000000000E+01 0.  1.
         11    1    4    4    0    0  0.65227356892E+01 -0.21570955495E+02 -0.40357374168E+02  0.46223044595E+02  0.00000000000E+00 0. -1.
        -12    1    4    4    0    0  0.35732317158E+02  0.20056689356E+02  0.21992721012E+02  0.46505365873E+02  0.00000000000E+00 0.  1.
</event>
<event>
12    1  0.1061634E+000  0.2245816E+03  0.7818608E-02  0.1130693E+00
         21   -1    0    0  501  502  0.00000000000E+00  0.00000000000E+00  0.63365672893E+03  0.63365672893E+03  0.00000000000E+00 0. -1.
         21   -1    0    0  502  503 -0.00000000000E+00 -0.00000000000E+00 -0.83458854020E+02  0.83458854020E+02  0.00000000000E+00 0. -1.
         -6    2    1    2    0  503 -0.70169607192E+02  0.12616919595E+03  0.35624500500E+03  0.42112635052E+03  0.17203040351E+03 0.  0.
        -24    2    3    3    0    0  0.18181660288E+01  0.58769521435E+02  0.78184324496E+02  0.12605892151E+03  0.79504092460E+02 0.  0.
          6    2    1    2  501    0  0.70169607192E+02 -0.12616919595E+03  0.19395286991E+03  0.29598923244E+03  0.17073215922E+03 0.  0.
         24    2    5    5    0    0  0.34697511781E+02 -0.85426360958E+02  0.20630571299E+03  0.24037510754E+03  0.81954649925E+02 0.  0.
          5    1    5    5  501    0  0.35472095411E+02 -0.40742834988E+02 -0.12352843076E+02  0.55614124894E+02  0.47000000000E+01 0. -1.
        -11    1    6    6    0    0 -0.82339646135E+00 -0.70673246340E+02  0.72907400192E+02  0.10154247748E+03  0.00000000000E+00 0.  1.
         12    1    6    6    0    0  0.35520908242E+02 -0.14753114618E+02  0.13339831280E+03  0.13883263006E+03  0.00000000000E+00 0. -1.
         -5    1    3    3    0  503 -0.71987773221E+02  0.67399674511E+02  0.27806068050E+03  0.29506742901E+03  0.47000000000E+01 0.  1.
         13    1    4    4    0    0 -0.11243594710E+02  0.39194771154E+02  0.90671778369E+02  0.99418408257E+02  0.00000000000E+00 0. -1.
        -14    1    4    4    0    0  0.13061760738E+02  0.19574750281E+02 -0.12487453873E+02  0.26640513253E+02  0.00000000000E+00 0.  1.
</event>
<event>
12    1  0.1061634E+000  0.2557118E+03  0.7818608E-02  0.1111832E+00
         21   -1    0    0  501  502  0.00000000000E+00  0.00000000000E+00  0.10449753317E+03  0.10449753317E+03  0.00000000000E+00 0. -1.
         21   -1    0    0  502  503 -0.00000000000E+00 -0.00000000000E+00 -0.64353382599E+03  0.64353382599E+03  0.00000000000E+00 0. -1.
         -6    2    1    2    0  503  0.16346196659E+03 -0.87071452122E+02 -0.15902959221E+03  0.28999901959E+03  0.15654957001E+03 0.  0.
        -24    2    3    3    0    0  0.11253279551E+03 -0.92751117874E+02 -0.17187894873E+03  0.23695908150E+03  0.73081005443E+02 0.  0.
          6    2    1    2  501    0 -0.16346196659E+03  0.87071452122E+02 -0.38000670061E+03  0.45803233958E+03  0.17631585095E+03 0.  0.
         24    2    5    5    0    0 -0.71952481080E+02 -0.23589692629E+02 -0.19001227875E+03  0.21983106915E+03  0.80544396181E+02 0.  0.
          5    1    5    5  501    0 -0.91509485505E+02  0.11066114475E+03 -0.18999442186E+03  0.23820127043E+03  0.47000000000E+01 0. -1.
        -11    1    6    6    0    0 -0.86046079028E+02 -0.91984813405E+01 -0.12701910154E+03  0.15369577720E+03  0.00000000000E+00 0.  1.
         12    1    6    6    0    0  0.14093597948E+02 -0.14391211288E+02 -0.62993177209E+02  0.66135291943E+02  0.00000000000E+00 0. -1.
         -5    1    3    3    0  503  0.50929171073E+02  0.56796657523E+01  0.12849356521E+02  0.53039938087E+02  0.47000000000E+01 0.  1.
         13    1    4    4    0    0  0.13266326614E+02 -0.54973735834E+02 -0.67258847792E+02  0.87874112568E+02  0.00000000000E+00 0. -1.
        -14    1    4    4    0    0  0.99266468898E+02 -0.37777382040E+02 -0.10462010094E+03  0.14908496893E+03  0.00000000000E+00 0.  1.
</event>
<event>
12    1  0.1061634E+000  0.1934333E+03  0.7818608E-02  0.1155666E+00
         21   -1    0    0  503  502  0.00000000000E+00  0.00000000000E+00  0.41889883252E+03  0.41889883252E+03  0.00000000000E+00 0. -1.
         21   -1    0    0  501  503 -0.00000000000E+00 -0.00000000000E+00 -0.13631206335E+03  0.13631206335E+03  0.00000000000E+00 0. -1.
          6    2    1    2  501    0  0.60756551012E+02  0.61029785638E+02  0.30553100049E+03  0.36161533707E+03  0.17320642749E+03 0.  0.
         24    2    3    3    0    0 -0.11812404569E+02  0.66384386155E+01  0.59871721169E+02  0.99708400433E+02  0.78571880163E+02 0.  0.
         -6    2    1    2    0  502 -0.60756551012E+02 -0.61029785638E+02 -0.22944231312E+02  0.19359555880E+03  0.17186276330E+03 0.  0.
        -24    2    5    5    0    0  0.26127121857E+02 -0.45567437908E-01  0.14967057483E+01  0.84566677831E+02  0.80415510309E+02 0.  0.
          5    1    3    3  501    0  0.72568955582E+02  0.54391347022E+02  0.24565927932E+03  0.26190693664E+03  0.47000000000E+01 0. -1.
        -13    1    4    4    0    0  0.81594758801E+01  0.39292788366E+02  0.39661778522E+02  0.56423017818E+02  0.00000000000E+00 0.  1.
         14    1    4    4    0    0 -0.19971880449E+02 -0.32654349751E+02  0.20209942647E+02  0.43285382615E+02  0.00000000000E+00 0. -1.
         -5    1    5    5    0  502 -0.86883672869E+02 -0.60984218200E+02 -0.24440937060E+02  0.10902888097E+03  0.47000000000E+01 0.  1.
         11    1    6    6    0    0 -0.11795608980E+02  0.30043637562E+02  0.13021713791E+02  0.34804045444E+02  0.00000000000E+00 0. -1.
        -12    1    6    6    0    0  0.37922730837E+02 -0.30089205000E+02 -0.11525008043E+02  0.49762632387E+02  0.00000000000E+00 0.  1.
</event>
<event>
12    1  0.1061634E+000  0.2244369E+03  0.7818608E-02  0.1130658E+00
         21   -1    0    0  503  502  0.00000000000E+00  0.00000000000E+00  0.38555158656E+03  0.38555158656E+03  0.00000000000E+00 0.  1.
         21   -1    0    0  501  503 -0.00000000000E+00 -0.00000000000E+00 -0.13622466423E+03  0.13622466423E+03  0.00000000000E+00 0.  1.
          6    2    1    2  501    0 -0.78685440410E+02 -0.11985573225E+03  0.17799102917E+03  0.28627524359E+03  0.17238304308E+03 0.  0.
         24    2    3    3    0    0  0.12693735356E+02 -0.45063105780E+02  0.12367333664E+03  0.15621144209E+03  0.83157116502E+02 0.  0.
         -6    2    1    2    0  502  0.78685440410E+02  0.11985573225E+03  0.71335893160E+02  0.23550100720E+03  0.17267055237E+03 0.  0.
        -24    2    5    5    0    0  0.14115919104E+02 -0.65826451737E+01  0.24638004968E+02  0.85972852231E+02  0.80880836064E+02 0.  0.
          5    1    3    3  501    0 -0.91379175766E+02 -0.74792626471E+02  0.54317692531E+02  0.13006380150E+03  0.47000000000E+01 0. -1.
        -13    1    4    4    0    0  0.32975794539E+02  0.57503380203E+01  0.78222877920E+02  0.85084005800E+02  0.00000000000E+00 0.  1.
         14    1    4    4    0    0 -0.20282059183E+02 -0.50813443801E+02  0.45450458718E+02  0.71127436291E+02  0.00000000000E+00 0. -1.
         -5    1    5    5    0  502  0.64569521306E+02  0.12643837742E+03  0.46697888193E+02  0.14952815497E+03  0.47000000000E+01 0.  1.
         13    1    6    6    0    0  0.34857247523E+02 -0.93380595153E+00 -0.17240687015E+02  0.38899112935E+02  0.00000000000E+00 0. -1.
        -14    1    6    6    0    0 -0.20741328419E+02 -0.56488392222E+01  0.41878691982E+02  0.47073739296E+02  0.00000000000E+00 0.  1.
</event>
<event>
12    1  0.1061634E+000  0.2026624E+03  0.7818608E-02  0.1147874E+00
         21   -1    0    0  503  502  0.00000000000E+00  0.00000000000E+00  0.26755418044E+03  0.26755418044E+03  0.00000000000E+00 0. -1.
         21   -1    0    0  501  503 -0.00000000000E+00 -0.00000000000E+00 -0.62700066845E+03  0.62700066845E+03  0.00000000000E+00 0.  1.
          6    2    1    2  501    0 -0.10050012383E+03 -0.24673462196E+02  0.20931339094E+03  0.29134884115E+03  0.17424981202E+03 0.  0.
         24    2    3    3    0    0  0.12457964493E+02  0.13712940319E+02  0.10166439895E+03  0.13058988778E+03  0.79842489713E+02 0.  0.
         -6    2    1    2    0  502  0.10050012383E+03  0.24673462196E+02 -0.56875987895E+03  0.60320600774E+03  0.17222262697E+03 0.  0.
        -24    2    5    5    0    0  0.13095637199E+03 -0.16474306554E+02 -0.48288783072E+03  0.50312194011E+03  0.50299656293E+02 0.  0.
          5    1    3    3  501    0 -0.11295808832E+03 -0.38386402516E+02  0.10764899198E+03  0.16075895338E+03  0.47000000000E+01 0. -1.
        -11    1    4    4    0    0  0.50231736316E+01  0.46532435437E+02  0.71152183082E+02  0.85165327325E+02  0.00000000000E+00 0.  1.
         12    1    4    4    0    0  0.74347908610E+01 -0.32819495117E+02  0.30512215869E+02  0.45424560450E+02  0.00000000000E+00 0. -1.
         -5    1    5    5    0  502 -0.30456248159E+02  0.41147768751E+02 -0.85872048230E+02  0.10008406762E+03  0.47000000000E+01 0.  1.
         13    1    6    6    0    0  0.99831768470E+02  0.97471374094E+01 -0.35655774237E+03  0.37039818078E+03  0.00000000000E+00 0. -1.
        -14    1    6    6    0    0  0.31124603518E+02 -0.26221443964E+02 -0.12633008835E+03  0.13272375933E+03  0.00000000000E+00 0.  1.
</event>
<event>
12    1  0.1061634E+000  0.2005100E+03  0.7818608E-02  0.1149589E+00
         21   -1    0    0  503  502  0.00000000000E+00  0.00000000000E+00  0.73079196501E+02  0.73079196501E+02  0.00000000000E+00 0.  1.
         21   -1    0    0  501  503 -0.00000000000E+00 -0.00000000000E+00 -0.55015819807E+03  0.55015819807E+03  0.00000000000E+00 0.  1.
          6    2    1    2  501    0  0.66333116212E+02 -0.77934543850E+02 -0.21396353902E+03  0.29323140750E+03  0.17242501816E+03 0.  0.
         24    2    3    3    0    0 -0.20869815670E+02 -0.24621988019E+01 -0.88333244986E+02  0.12262810456E+03  0.82421345718E+02 0.  0.
         -6    2    1    2    0  502 -0.66333116212E+02  0.77934543850E+02 -0.26311546255E+03  0.33000598706E+03  0.17088103884E+03 0.  0.
        -24    2    5    5    0    0 -0.55350591162E+02  0.11780341016E+03 -0.23219559531E+03  0.27815745239E+03  0.80718290686E+02 0.  0.
          5    1    3    3  501    0  0.87202931882E+02 -0.75472345048E+02 -0.12563029403E+03  0.17060330294E+03  0.47000000000E+01 0. -1.
        -13    1    4    4    0    0  0.30583564667E+02 -0.10726181814E+02 -0.40682112030E+02  0.52013840881E+02  0.00000000000E+00 0.  1.
         14    1    4    4    0    0 -0.51453380337E+02  0.82639830117E+01 -0.47651132956E+02  0.70614263681E+02  0.00000000000E+00 0. -1.
         -5    1    5    5    0  502 -0.10982525050E+02 -0.39868866314E+02 -0.30919867242E+02  0.51848534675E+02  0.47000000000E+01 0.  1.
         13    1    6    6    0    0 -0.46082111818E+01  0.87759601458E+02 -0.17589792461E+03  0.19662925301E+03  0.00000000000E+00 0. -1.
        -14    1    6    6    0    0 -0.50742379980E+02  0.30043808707E+02 -0.56297670699E+02  0.81528199378E+02  0.00000000000E+00 0.  1.
</event>
<event>
12    1  0.1061634E+000  0.2282146E+03  0.7818608E-02  0.1127951E+00
         21   -1    0    0  503  502  0.00000000000E+00  0.00000000000E+00  0.13121160771E+03  0.13121160771E+03  0.00000000000E+00 0.  1.
         21   -1    0    0  501  503 -0.00000000000E+00 -0.00000000000E+00 -0.41816607496E+03  0.41816607496E+03  0.00000000000E+00 0.  1.
          6    2    1    2  501    0 -0.14989213440E+03  0.31902077435E+01 -0.20613774748E+03  0.30752999053E+03  0.17205840508E+03 0.  0.
         24    2    3    3    0    0 -0.68476323606E+01 -0.10602024205E+02 -0.81774549612E+02  0.11742409843E+03  0.83318959077E+02 0.  0.
         -6    2    1    2    0  502  0.14989213440E+03 -0.31902077435E+01 -0.80816719770E+02  0.24184769214E+03  0.17170071233E+03 0.  0.
        -24    2    5    5    0    0  0.16057407510E+03 -0.34720400590E+02 -0.93551317058E+02  0.20589610126E+03  0.81558664650E+02 0.  0.
          5    1    3    3  501    0 -0.14304450204E+03  0.13792231949E+02 -0.12436319787E+03  0.19010589210E+03  0.47000000000E+01 0. -1.
        -11    1    4    4    0    0 -0.34444136467E+02  0.21788904570E+02 -0.31193774235E+02  0.51324520946E+02  0.00000000000E+00 0.  1.
         12    1    4    4    0    0  0.27596504106E+02 -0.32390928776E+02 -0.50580775377E+02  0.66099577484E+02  0.00000000000E+00 0. -1.
         -5    1    5    5    0  502 -0.10681940702E+02  0.31530192846E+02  0.12734597288E+02  0.35951590871E+02  0.47000000000E+01 0.  1.
         11    1    6    6    0    0  0.69873599319E+02 -0.18988307524E+02  0.30310374101E+01  0.72471117641E+02  0.00000000000E+00 0. -1.
        -12    1    6    6    0    0  0.90700475786E+02 -0.15732093066E+02 -0.96582354468E+02  0.13342498362E+03  0.00000000000E+00 0.  1.
</event>
<event>
12    1  0.1061634E+000  0.2260819E+03  0.7818608E-02  0.1129476E+00
         21   -1    0    0  503  502  0.00000000000E+00  0.00000000000E+00  0.51828071722E+03  0.51828071722E+03  0.00000000000E+00 0.  1.
         21   -1    0    0  501  503 -0.00000000000E+00 -0.00000000000E+00 -0.10531945129E+03  0.10531945129E+03  0.00000000000E+00 0.  1.
          6    2    1    2  501    0  0.11929186450E+03  0.84492002206E+02  0.28567677453E+03  0.36415003883E+03  0.17211793602E+03 0.  0.
         24    2    3    3    0    0  0.88384743333E+02  0.27832993993E+02  0.73008951053E+02  0.14185477011E+03  0.78777728210E+02 0.  0.
         -6    2    1    2    0  502 -0.11929186450E+03 -0.84492002206E+02  0.12728449140E+03  0.25945012968E+03  0.17246327339E+03 0.  0.
        -24    2    5    5    0    0 -0.12094988790E+03 -0.12105572492E+03  0.11344492764E+03  0.22003847677E+03  0.79144271623E+02 0.  0.
          5    1    3    3  501    0  0.30907121168E+02  0.56659008213E+02  0.21266782348E+03  0.22229526872E+03  0.47000000000E+01 0. -1.
        -13    1    4    4    0    0 -0.88307479193E+01 -0.92346150943E+01  0.23240926759E+02  0.26521706230E+02  0.00000000000E+00 0.  1.
         14    1    4    4    0    0  0.97215491252E+02  0.37067609088E+02  0.49768024294E+02  0.11533306388E+03  0.00000000000E+00 0. -1.
         -5    1    5    5    0  502  0.16580234029E+01  0.36563722717E+02  0.13839563756E+02  0.39411652915E+02  0.47000000000E+01 0.  1.
         13    1    6    6    0    0 -0.92136529466E+02 -0.49042675270E+02  0.35944419368E+02  0.11039169055E+03  0.00000000000E+00 0. -1.
        -14    1    6    6    0    0 -0.28813358438E+02 -0.72013049653E+02  0.77500508271E+02  0.10964678621E+03  0.00000000000E+00 0.  1.
</event>
<event>
12    1  0.1061634E+000  0.1810838E+03  0.7818608E-02  0.1167582E+00
         21   -1    0    0  503  502  0.00000000000E+00  0.00000000000E+00  0.11301323126E+03  0.11301323126E+03  0.00000000000E+00 0. -1.
         21   -1    0    0  501  503 -0.00000000000E+00 -0.00000000000E+00 -0.30074272172E+03  0.30074272172E+03  0.00000000000E+00 0. -1.
          6    2    1    2  501    0 -0.21305765259E+02  0.25868010278E+02 -0.14074775639E+03  0.22667679037E+03  0.17449741193E+03 0.  0.
         24    2    3    3    0    0  0.18413315861E+02 -0.21154446612E+02 -0.14921065248E+02  0.86522721350E+02  0.80479701225E+02 0.  0.
         -6    2    1    2    0  502  0.21305765259E+02 -0.25868010278E+02 -0.46981734062E+02  0.18707916261E+03  0.17795572528E+03 0.  0.
        -24    2    5    5    0    0 -0.57477037871E+02 -0.33461451190E+02 -0.40737153546E+02  0.10754630651E+03  0.74050076078E+02 0.  0.
          5    1    3    3  501    0 -0.39719081120E+02  0.47022456890E+02 -0.12582669115E+03  0.14015406902E+03  0.47000000000E+01 0. -1.
        -11    1    4    4    0    0 -0.16272121696E+02  0.36432237301E+01 -0.35467929318E+02  0.39192206288E+02  0.00000000000E+00 0.  1.
         12    1    4    4    0    0  0.34685437557E+02 -0.24797670342E+02  0.20546864070E+02  0.47330515062E+02  0.00000000000E+00 0. -1.
         -5    1    5    5    0  502  0.78782803130E+02  0.75934409126E+01 -0.62445805157E+01  0.79532856102E+02  0.47000000000E+01 0.  1.
         13    1    6    6    0    0 -0.20281503088E+02 -0.51588704161E+02 -0.35531850373E+02  0.65842586184E+02  0.00000000000E+00 0. -1.
        -14    1    6    6    0    0 -0.37195534783E+02  0.18127252971E+02 -0.52053031724E+01  0.41703720328E+02  0.00000000000E+00 0.  1.
</event>
<event>
12    1  0.1061634E+000  0.2009708E+03  0.7818608E-02  0.1149012E+00
         21   -1    0    0  501  502  0.00000000000E+00  0.00000000000E+00  0.14981743286E+03  0.14981743286E+03  0.00000000000E+00 0. -1.
         21   -1    0    0  502  503 -0.00000000000E+00 -0.00000000000E+00 -0.34780444879E+03  0.34780444879E+03  0.00000000000E+00 0. -1.
         -6    2    1    2    0  503  0.17940763819E+02 -0.10203528137E+03  0.19510945935E+02  0.20148908842E+03  0.17170936518E+03 0.  0.
        -24    2    3    3    0    0  0.66788291698E+01 -0.10526993036E+03  0.70635061412E+02  0.14882924309E+03  0.77681829933E+02 0.  0.
          6    2    1    2  501    0 -0.17940763819E+02  0.10203528137E+03 -0.21749796186E+03  0.29613279324E+03  0.17220975050E+03 0.  0.
         24    2    5    5    0    0 -0.76607916446E+02  0.76506483366E+02 -0.16736026026E+03  0.21471146036E+03  0.79809395685E+02 0.  0.
          5    1    5    5  501    0  0.58667152626E+02  0.25528798001E+02 -0.50137701601E+02  0.81421332871E+02  0.47000000000E+01 0. -1.
        -11    1    6    6    0    0 -0.30368875416E+01  0.58725163008E+02 -0.71758894911E+02  0.92775031420E+02  0.00000000000E+00 0.  1.
         12    1    6    6    0    0 -0.73571028904E+02  0.17781320358E+02 -0.95601365346E+02  0.12193642894E+03  0.00000000000E+00 0. -1.
         -5    1    3    3    0  503  0.11261934650E+02  0.32346489927E+01 -0.51124115478E+02  0.52659845324E+02  0.47000000000E+01 0.  1.
         13    1    4    4    0    0 -0.26346886620E+02 -0.80882326604E+02  0.27789228802E+02  0.89489387241E+02  0.00000000000E+00 0. -1.
        -14    1    4    4    0    0  0.33025715790E+02 -0.24387603756E+02  0.42845832610E+02  0.59339855851E+02  0.00000000000E+00 0.  1.
</event>
<event>
12    1  0.1061634E+000  0.3154437E+03  0.7818608E-02  0.1078009E+00
         21   -1    0    0  501  502  0.00000000000E+00  0.00000000000E+00  0.11576731126E+04  0.11576731126E+04  0.00000000000E+00 0. -1.
         21   -1    0    0  502  503 -0.00000000000E+00 -0.00000000000E+00 -0.15183512688E+03  0.15183512688E+03  0.00000000000E+00 0. -1.
         -6    2    1    2    0  503 -0.12906868556E+03  0.22851653114E+03  0.68846983429E+02  0.32084406535E+03  0.17123806979E+03 0.  0.
        -24    2    3    3    0    0 -0.12742957874E+03  0.94800263305E+02  0.52409975001E+02  0.18602940665E+03  0.81453957534E+02 0.  0.
          6    2    1    2  501    0  0.12906868556E+03 -0.22851653114E+03  0.93699100230E+03  0.98866417414E+03  0.17500337211E+03 0.  0.
         24    2    5    5    0    0  0.85721776986E+02 -0.64338309365E+02  0.28887759176E+03  0.31865930408E+03  0.81276367751E+02 0.  0.
          5    1    5    5  501    0  0.43346908576E+02 -0.16417822178E+03  0.64811341054E+03  0.67000487006E+03  0.47000000000E+01 0. -1.
        -13    1    6    6    0    0  0.30616208413E+02 -0.58586714097E+01  0.18356741218E+03  0.18619524984E+03  0.00000000000E+00 0.  1.
         14    1    6    6    0    0  0.55105568573E+02 -0.58479637955E+02  0.10531017958E+03  0.13246405424E+03  0.00000000000E+00 0. -1.
         -5    1    3    3    0  503 -0.16391068259E+01  0.13371626783E+03  0.16437008428E+02  0.13481465870E+03  0.47000000000E+01 0.  1.
         13    1    4    4    0    0 -0.76982944836E+02  0.34346802756E+02  0.64797643896E+02  0.10632408622E+03  0.00000000000E+00 0. -1.
        -14    1    4    4    0    0 -0.50446633900E+02  0.60453460549E+02 -0.12387668895E+02  0.79705320430E+02  0.00000000000E+00 0.  1.
</event>
<event>
12    1  0.1061634E+000  0.1953506E+03  0.7818608E-02  0.1153780E+00
         21   -1    0    0  503  502  0.00000000000E+00  0.00000000000E+00  0.11688078044E+04  0.11688078044E+04  0.00000000000E+00 0.  1.
         21   -1    0    0  501  503 -0.00000000000E+00 -0.00000000000E+00 -0.35519478377E+02  0.35519478377E+02  0.00000000000E+00 0.  1.
          6    2    1    2  501    0  0.89495777803E+02  0.23583855001E+02  0.39382007253E+03  0.43949059849E+03  0.17173247852E+03 0.  0.
         24    2    3    3    0    0  0.10949570374E+03  0.48669098462E+02  0.22032001132E+03  0.26298669566E+03  0.79139777750E+02 0.  0.
         -6    2    1    2    0  502 -0.89495777803E+02 -0.23583855001E+02  0.73946825348E+03  0.76483668427E+03  0.17203535460E+03 0.  0.
        -24    2    5    5    0    0 -0.11292052996E+03  0.49315636200E+01  0.68481651517E+03  0.69872503164E+03  0.80421663650E+02 0.  0.
          5    1    3    3  501    0 -0.19999925940E+02 -0.25085243461E+02  0.17350006120E+03  0.17650390283E+03  0.47000000000E+01 0. -1.
        -11    1    4    4    0    0  0.23184449352E+02  0.41946732580E+02  0.12675911272E+03  0.13551723036E+03  0.00000000000E+00 0.  1.
         12    1    4    4    0    0  0.86311254391E+02  0.67223658824E+01  0.93560898600E+02  0.12746946530E+03  0.00000000000E+00 0. -1.
         -5    1    5    5    0  502  0.23424752158E+02 -0.28515418621E+02  0.54651738315E+02  0.66111652631E+02  0.47000000000E+01 0.  1.
         11    1    6    6    0    0 -0.13610686331E+02 -0.23508584207E+02  0.26488149935E+03  0.26627075132E+03  0.00000000000E+00 0. -1.
        -12    1    6    6    0    0 -0.99309843631E+02  0.28440147826E+02  0.41993501582E+03  0.43245428032E+03  0.00000000000E+00 0.  1.
</event>
<event>
12    1  0.1061634E+000  0.1960315E+03  0.7818608E-02  0.1156372E+00
         21   -1    0    0  503  502  0.00000000000E+00  0.00000000000E+00  0.26118759539E+03  0.26118759539E+03  0.00000000000E+00 0. -1.
         21   -1    0    0  501  503 -0.00000000000E+00 -0.00000000000E+00 -0.13708859537E+03  0.13708859537E+03  0.00000000000E+00 0. -1.
          6    2    1    2  501    0 -0.62770432070E+02  0.13501099562E+02  0.72295994569E+02  0.19551551847E+03  0.16993292883E+03 0.  0.
         24    2    3    3    0    0 -0.28217078008E+01  0.54548203951E+02  0.75769873829E+02  0.12262606685E+03  0.79451934537E+02 0.  0.
         -6    2    1    2    0  502  0.62770432070E+02 -0.13501099562E+02  0.51803005453E+02  0.20276067228E+03  0.18521860603E+03 0.  0.
        -24    2    5    5    0    0  0.32733472886E+02  0.61909379711E+02  0.59925193037E+02  0.12104764252E+03  0.78468155686E+02 0.  0.
          5    1    3    3  501    0 -0.59948724269E+02 -0.41047104389E+02 -0.34738792600E+01  0.72889451619E+02  0.47000000000E+01 0. -1.
        -11    1    4    4    0    0  0.42037183400E+01  0.41431891350E+02 -0.36688162114E+01  0.41805897683E+02  0.00000000000E+00 0.  1.
         12    1    4    4    0    0 -0.70254261408E+01  0.13116312602E+02  0.79438690040E+02  0.80820169166E+02  0.00000000000E+00 0. -1.
         -5    1    5    5    0  502  0.30036959184E+02 -0.75410479274E+02 -0.81221875841E+01  0.81713029759E+02  0.47000000000E+01 0.  1.
         11    1    6    6    0    0 -0.77389534799E+00  0.29131070812E+02 -0.14917825220E+02  0.32737741369E+02  0.00000000000E+00 0. -1.
        -12    1    6    6    0    0  0.33507368234E+02  0.32778308900E+02  0.74843018257E+02  0.88309901155E+02  0.00000000000E+00 0.  1.
</event>
<event>
12    1  0.1061634E+000  0.2251162E+03  0.7818608E-02  0.1130274E+00
         21   -1    0    0  503  502  0.00000000000E+00  0.00000000000E+00  0.12186054470E+03  0.12186054470E+03  0.00000000000E+00 0. -1.
         21   -1    0    0  501  503 -0.00000000000E+00 -0.00000000000E+00 -0.42634556967E+03  0.42634556967E+03  0.00000000000E+00 0. -1.
          6    2    1    2  501    0  0.93358135060E+02 -0.11101341495E+03 -0.19849401458E+03  0.30012857563E+03  0.17215565169E+03 0.  0.
         24    2    3    3    0    0  0.15924295350E+02 -0.78508256239E+02 -0.39229099722E+02  0.12001753216E+03  0.80300412713E+02 0.  0.
         -6    2    1    2    0  502 -0.93358135060E+02  0.11101341495E+03 -0.10599101040E+03  0.24807753873E+03  0.17108083253E+03 0.  0.
        -24    2    5    5    0    0  0.72952622292E+01  0.77886604338E+01 -0.53217517027E+02  0.94475494694E+02  0.77328073148E+02 0.  0.
          5    1    3    3  501    0  0.77433839710E+02 -0.32505158710E+02 -0.15926491486E+03  0.18011104347E+03  0.47000000000E+01 0. -1.
        -13    1    4    4    0    0 -0.17873286016E+02 -0.46242660986E+02 -0.51727124690E+02  0.71648680914E+02  0.00000000000E+00 0.  1.
         14    1    4    4    0    0  0.33797581366E+02 -0.32265595254E+02  0.12498024967E+02  0.48368851251E+02  0.00000000000E+00 0. -1.
         -5    1    5    5    0  502 -0.10065339729E+03  0.10322475451E+03 -0.52773493369E+02  0.15360204404E+03  0.47000000000E+01 0.  1.
         13    1    6    6    0    0  0.62500518276E+01 -0.34691822372E+02 -0.28386325810E+02  0.45258912717E+02  0.00000000000E+00 0. -1.
        -14    1    6    6    0    0  0.10452104016E+01  0.42480482806E+02 -0.24831191216E+02  0.49216581976E+02  0.00000000000E+00 0.  1.
</event>
<event>
12    1  0.1061634E+000  0.2800457E+03  0.7818608E-02  0.1096538E+00
         21   -1    0    0  501  502  0.00000000000E+00  0.00000000000E+00  0.20833879406E+04  0.20833879406E+04  0.00000000000E+00 0.  1.
         21   -1    0    0  502  503 -0.00000000000E+00 -0.00000000000E+00 -0.47750865825E+02  0.47750865825E+02  0.00000000000E+00 0.  1.
         -6    2    1    2    0  503  0.14319796741E+03  0.16186140097E+03  0.49855899246E+03  0.56875772697E+03  0.16798664242E+03 0.  0.
        -24    2    3    3    0    0  0.10061001198E+03  0.17637188699E+03  0.34285910252E+03  0.40661940985E+03  0.80978782740E+02 0.  0.
          6    2    1    2  501    0 -0.14319796741E+03 -0.16186140097E+03  0.15370780823E+04  0.15623810795E+04  0.17810343990E+03 0.  0.
         24    2    5    5    0    0 -0.51473507794E+02 -0.16300790644E+03  0.10466529589E+04  0.10634285941E+04  0.78592994610E+02 0.  0.
          5    1    5    5  501    0 -0.91724459619E+02  0.11465054675E+01  0.49042512338E+03  0.49895248532E+03  0.47000000000E+01 0. -1.
        -13    1    6    6    0    0 -0.38791918607E+02 -0.12970790875E+03  0.58760202289E+03  0.60299675940E+03  0.00000000000E+00 0.  1.
         14    1    6    6    0    0 -0.12681589187E+02 -0.33299997687E+02  0.45905093605E+03  0.46043183474E+03  0.00000000000E+00 0. -1.
         -5    1    3    3    0  503  0.42587955430E+02 -0.14510486017E+02  0.15569988994E+03  0.16213831713E+03  0.47000000000E+01 0.  1.
         13    1    4    4    0    0  0.93340757966E+02  0.86306607080E+02  0.22035061256E+03  0.25439284577E+03  0.00000000000E+00 0. -1.
        -14    1    4    4    0    0  0.72692540162E+01  0.90065279908E+02  0.12250848995E+03  0.15222656407E+03  0.00000000000E+00 0.  1.
</event>
<event>
12    1  0.1061634E+000  0.3576226E+03  0.7818608E-02  0.1059606E+00
         21   -1    0    0  503  502  0.00000000000E+00  0.00000000000E+00  0.38759950386E+03  0.38759950386E+03  0.00000000000E+00 0.  1.
         21   -1    0    0  501  503 -0.00000000000E+00 -0.00000000000E+00 -0.36287361822E+03  0.36287361822E+03  0.00000000000E+00 0.  1.
          6    2    1    2  501    0  0.28885022253E+03 -0.11907429697E+03  0.12657072067E+03  0.37863140316E+03  0.17241940979E+03 0.  0.
         24    2    3    3    0    0  0.16477172049E+03 -0.49298440093E+02  0.46363124819E+01  0.19113677718E+03  0.83256928403E+02 0.  0.
         -6    2    1    2    0  502 -0.28885022253E+03  0.11907429697E+03 -0.10184483503E+03  0.37184171892E+03  0.17401366110E+03 0.  0.
        -24    2    5    5    0    0 -0.14666921713E+03  0.49081096333E+02 -0.11933988924E+03  0.21233418507E+03  0.83204469331E+02 0.  0.
          5    1    3    3  501    0  0.12407850204E+03 -0.69775856879E+02  0.12193440819E+03  0.18749462598E+03  0.47000000000E+01 0. -1.
        -13    1    4    4    0    0  0.56113483824E+02 -0.50400078666E+02 -0.23295801747E+02  0.78940391280E+02  0.00000000000E+00 0.  1.
         14    1    4    4    0    0  0.10865823667E+03  0.11016385732E+01  0.27932114229E+02  0.11219638590E+03  0.00000000000E+00 0. -1.
         -5    1    5    5    0  502 -0.14218100540E+03  0.69993200639E+02  0.17495054204E+02  0.15950753384E+03  0.47000000000E+01 0.  1.
         13    1    6    6    0    0 -0.58182993862E+02  0.83773959363E+01 -0.63731389569E+00  0.58786458530E+02  0.00000000000E+00 0. -1.
        -14    1    6    6    0    0 -0.88486223271E+02  0.40703700397E+02 -0.11870257534E+03  0.15354772654E+03  0.00000000000E+00 0.  1.
</event>
<event>
12    1  0.1061634E+000  0.1761873E+03  0.7818608E-02  0.1172325E+00
         21   -1    0    0  503  502  0.00000000000E+00  0.00000000000E+00  0.35964801187E+03  0.35964801187E+03  0.00000000000E+00 0. -1.
         21   -1    0    0  501  503 -0.00000000000E+00 -0.00000000000E+00 -0.10323935889E+03  0.10323935889E+03  0.00000000000E+00 0. -1.
          6    2    1    2  501    0 -0.57478406073E+01 -0.33050899386E+02  0.29448422395E+02  0.17556713105E+03  0.16979755093E+03 0.  0.
         24    2    3    3    0    0 -0.21995287927E+02  0.69998957568E+01  0.74554296323E+02  0.11291989967E+03  0.81607410266E+02 0.  0.
         -6    2    1    2    0  502  0.57478406073E+01  0.33050899386E+02  0.22696023058E+03  0.28732023971E+03  0.17296408373E+03 0.  0.
        -24    2    5    5    0    0  0.40305173739E+02  0.14690519583E+02  0.46024476506E+02  0.10214154244E+03  0.80463183252E+02 0.  0.
          5    1    3    3  501    0  0.16247447319E+02 -0.40050795143E+02 -0.45105873929E+02  0.62647231374E+02  0.47000000000E+01 0. -1.
        -11    1    4    4    0    0  0.87553851099E+01  0.14585862223E+02  0.79112612728E+02  0.80921008632E+02  0.00000000000E+00 0.  1.
         12    1    4    4    0    0 -0.30750673037E+02 -0.75859664667E+01 -0.45583164049E+01  0.31998891041E+02  0.00000000000E+00 0. -1.
         -5    1    5    5    0  502 -0.34557333132E+02  0.18360379803E+02  0.18093575408E+03  0.18517869727E+03  0.47000000000E+01 0.  1.
         13    1    6    6    0    0 -0.15880447357E+02  0.25670143970E+02  0.30307544461E+02  0.42774900946E+02  0.00000000000E+00 0. -1.
        -14    1    6    6    0    0  0.56185621096E+02 -0.10979624387E+02  0.15716932045E+02  0.59366641496E+02  0.00000000000E+00 0.  1.
</event>
<event>
12    1  0.1061634E+000  0.2070732E+03  0.7818608E-02  0.1145556E+00
         21   -1    0    0  501  502  0.00000000000E+00  0.00000000000E+00  0.27160600613E+03  0.27160600613E+03  0.00000000000E+00 0.  1.
         21   -1    0    0  502  503 -0.00000000000E+00 -0.00000000000E+00 -0.16532781495E+03  0.16532781495E+03  0.00000000000E+00 0.  1.
         -6    2    1    2    0  503  0.11534841080E+03 -0.19330087353E+02 -0.10262469423E+02  0.19931852771E+03  0.16107032333E+03 0.  0.
        -24    2    3    3    0    0  0.14611324215E+03 -0.20435223005E+02 -0.15351472698E+02  0.16776406484E+03  0.78373693720E+02 0.  0.
          6    2    1    2  501    0 -0.11534841080E+03  0.19330087353E+02  0.11654066061E+03  0.23761529338E+03  0.17088122752E+03 0.  0.
         24    2    5    5    0    0 -0.11053934509E+03  0.25059009599E+02  0.14897091308E+03  0.20400340651E+03  0.81105833011E+02 0.  0.
          5    1    5    5  501    0 -0.48090657111E+01 -0.57289222462E+01 -0.32430252473E+02  0.33611886864E+02  0.47000000000E+01 0. -1.
        -13    1    6    6    0    0 -0.24324706801E+01 -0.20994278027E+02  0.15711144603E+02  0.26334705015E+02  0.00000000000E+00 0.  1.
         14    1    6    6    0    0 -0.10810687441E+03  0.46053287626E+02  0.13325976848E+03  0.17766870150E+03  0.00000000000E+00 0. -1.
         -5    1    3    3    0  503 -0.30764831345E+02  0.11051356516E+01  0.50890032756E+01  0.31554462867E+02  0.47000000000E+01 0.  1.
         13    1    4    4    0    0  0.46897371849E+02 -0.42129564242E+02 -0.19883259613E+02  0.66103008119E+02  0.00000000000E+00 0. -1.
        -14    1    4    4    0    0  0.99215870299E+02  0.21694341238E+02  0.45317869148E+01  0.10166105672E+03  0.00000000000E+00 0.  1.
</event>
<event>
12    1  0.1061634E+000  0.2300213E+03  0.7818608E-02  0.1126650E+00
         21   -1    0    0  501  502  0.00000000000E+00  0.00000000000E+00  0.25680546812E+03  0.25680546812E+03  0.00000000000E+00 0.  1.
         21   -1    0    0  502  503 -0.00000000000E+00 -0.00000000000E+00 -0.21964996133E+03  0.21964996133E+03  0.00000000000E+00 0. -1.
         -6    2    1    2    0  503  0.46278286575E+02 -0.14500802788E+03  0.78185338052E+02  0.24294593141E+03  0.17245512617E+03 0.  0.
        -24    2    3    3    0    0  0.64227482058E+02 -0.16455078056E+03  0.90525773612E+02  0.21330695115E+03  0.78120489526E+02 0.  0.
          6    2    1    2  501    0 -0.46278286575E+02  0.14500802788E+03 -0.41029831261E+02  0.23350949804E+03  0.17226209875E+03 0.  0.
         24    2    5    5    0    0 -0.81597877392E+02  0.71881788802E+02  0.13701659949E+02  0.13546590332E+03  0.79611998592E+02 0.  0.
          5    1    5    5  501    0  0.35319590817E+02  0.73126239075E+02 -0.54731491210E+02  0.98043594726E+02  0.47000000000E+01 0. -1.
        -11    1    6    6    0    0 -0.26443956914E+02  0.26606424133E+02  0.44106443020E+02  0.57901321040E+02  0.00000000000E+00 0.  1.
         12    1    6    6    0    0 -0.55153920479E+02  0.45275364670E+02 -0.30404783071E+02  0.77564582277E+02  0.00000000000E+00 0. -1.
         -5    1    3    3    0  503 -0.17949195483E+02  0.19542752685E+02 -0.12340435560E+02  0.29638980259E+02  0.47000000000E+01 0.  1.
         11    1    4    4    0    0  0.10360631838E+02 -0.11154362218E+03  0.78481019900E+02  0.13677935818E+03  0.00000000000E+00 0. -1.
        -12    1    4    4    0    0  0.53866850220E+02 -0.53007158385E+02  0.12044753712E+02  0.76527592963E+02  0.00000000000E+00 0.  1.
</event>
<event>
12    1  0.1061634E+000  0.3371536E+03  0.7818608E-02  0.1068076E+00
         21   -1    0    0  503  502  0.00000000000E+00  0.00000000000E+00  0.92930963690E+03  0.92930963690E+03  0.00000000000E+00 0.  1.
         21   -1    0    0  501  503 -0.00000000000E+00 -0.00000000000E+00 -0.19467328335E+03  0.19467328335E+03  0.00000000000E+00 0. -1.
          6    2    1    2  501    0 -0.13366346097E+03  0.25684110587E+03  0.71022784647E+03  0.78594696136E+03  0.17162679773E+03 0.  0.
         24    2    3    3    0    0 -0.15344154296E+03  0.22719383499E+03  0.68460889795E+03  0.74180453595E+03  0.80145371854E+02 0.  0.
         -6    2    1    2    0  502  0.13366346097E+03 -0.25684110587E+03  0.24408507079E+02  0.33803595889E+03  0.17274044061E+03 0.  0.
        -24    2    5    5    0    0  0.96417165718E+02 -0.22168830235E+03  0.76280766587E+02  0.26498921077E+03  0.77191665523E+02 0.  0.
          5    1    3    3  501    0  0.19778081994E+02  0.29647270878E+02  0.25618948520E+02  0.44142425411E+02  0.47000000000E+01 0. -1.
        -13    1    4    4    0    0 -0.10089434119E+01  0.40887465170E+02  0.15046006042E+03  0.15591995561E+03  0.00000000000E+00 0.  1.
         14    1    4    4    0    0 -0.15243259955E+03  0.18630636982E+03  0.53414883753E+03  0.58588458034E+03  0.00000000000E+00 0. -1.
         -5    1    5    5    0  502  0.37246295252E+02 -0.35152803515E+02 -0.51872259508E+02  0.73046748123E+02  0.47000000000E+01 0.  1.
         13    1    6    6    0    0 -0.10333134408E+02 -0.42294588666E+02  0.26044732311E+01  0.43616386576E+02  0.00000000000E+00 0. -1.
        -14    1    6    6    0    0  0.10675030013E+03 -0.17939371369E+03  0.73676293355E+02  0.22137282419E+03  0.00000000000E+00 0.  1.
</event>
<event>
12    1  0.1061634E+000  0.1854587E+03  0.7818608E-02  0.1162854E+00
         21   -1    0    0  501  502  0.00000000000E+00  0.00000000000E+00  0.29848075449E+03  0.29848075449E+03  0.00000000000E+00 0.  1.
         21   -1    0    0  502  503 -0.00000000000E+00 -0.00000000000E+00 -0.11838701304E+03  0.11838701304E+03  0.00000000000E+00 0.  1.
         -6    2    1    2    0  503 -0.68133317945E+02 -0.41403262244E+01  0.52617787110E+02  0.19182318882E+03  0.17137156395E+03 0.  0.
        -24    2    3    3    0    0 -0.19548851487E+02  0.45030533469E+01  0.96398653292E+02  0.12568687024E+03  0.78115644463E+02 0.  0.
          6    2    1    2  501    0  0.68133317945E+02  0.41403262244E+01  0.12747595434E+03  0.22504457872E+03  0.17244028578E+03 0.  0.
         24    2    5    5    0    0 -0.25799820429E+02 -0.78159222844E+01  0.86675751517E+02  0.12183056362E+03  0.81260574419E+02 0.  0.
          5    1    5    5  501    0  0.93933138373E+02  0.11956248509E+02  0.40800202822E+02  0.10321401510E+03  0.47000000000E+01 0. -1.
        -11    1    6    6    0    0 -0.45707990924E+02  0.21173143987E+02  0.53534668693E+02  0.73508388723E+02  0.00000000000E+00 0.  1.
         12    1    6    6    0    0  0.19908170495E+02 -0.28989066271E+02  0.33141082824E+02  0.48322174894E+02  0.00000000000E+00 0. -1.
         -5    1    3    3    0  503 -0.48584466458E+02 -0.86433795713E+01 -0.43780866182E+02  0.66136318578E+02  0.47000000000E+01 0.  1.
         11    1    4    4    0    0 -0.49012776772E+02 -0.29053508791E+01  0.69600148715E+02  0.85175548438E+02  0.00000000000E+00 0. -1.
        -12    1    4    4    0    0  0.29463925285E+02  0.74084042260E+01  0.26798504577E+02  0.40511321800E+02  0.00000000000E+00 0.  1.
</event>
<event>
12    1  0.1061634E+000  0.2948809E+03  0.7818608E-02  0.1087852E+00
         21   -1    0    0  503  502  0.00000000000E+00  0.00000000000E+00  0.37006646258E+03  0.37006646258E+03  0.00000000000E+00 0. -1.
         21   -1    0    0  501  503 -0.00000000000E+00 -0.00000000000E+00 -0.24319370037E+03  0.24319370037E+03  0.00000000000E+00 0. -1.
          6    2    1    2  501    0 -0.10954342535E+03 -0.21188462998E+03  0.65125756924E+01  0.29476161051E+03  0.17305240515E+03 0.  0.
         24    2    3    3    0    0 -0.89794646163E+02 -0.15368252956E+03  0.68438679899E+02  0.20738637858E+03  0.81509868991E+02 0.  0.
         -6    2    1    2    0  502  0.10954342535E+03  0.21188462998E+03  0.12036018651E+03  0.31849855243E+03  0.17337789635E+03 0.  0.
        -24    2    5    5    0    0  0.21527717437E+02  0.23923046207E+02  0.46540411701E+02  0.98162965273E+02  0.80213484353E+02 0.  0.
          5    1    3    3  501    0 -0.19748779191E+02 -0.58202100422E+02 -0.61926104206E+02  0.87375231933E+02  0.47000000000E+01 0. -1.
        -11    1    4    4    0    0 -0.72784981466E+01 -0.48114995284E+02  0.53888147258E+02  0.72608275846E+02  0.00000000000E+00 0.  1.
         12    1    4    4    0    0 -0.82516148016E+02 -0.10556753428E+03  0.14550532641E+02  0.13477810274E+03  0.00000000000E+00 0. -1.
         -5    1    5    5    0  502  0.88015707916E+02  0.18796158378E+03  0.73819774813E+02  0.22033558716E+03  0.47000000000E+01 0.  1.
         13    1    6    6    0    0 -0.42342102351E+01  0.47259351150E+02  0.11534147917E+02  0.48830434932E+02  0.00000000000E+00 0. -1.
        -14    1    6    6    0    0  0.25761927673E+02 -0.23336304943E+02  0.35006263784E+02  0.49332530342E+02  0.00000000000E+00 0.  1.
</event>
<event>
12    1  0.1061634E+000  0.2245338E+03  0.7818608E-02  0.1130626E+00
         21   -1    0    0  501  502  0.00000000000E+00  0.00000000000E+00  0.10618572109E+04  0.10618572109E+04  0.00000000000E+00 0. -1.
         21   -1    0    0  502  503 -0.00000000000E+00 -0.00000000000E+00 -0.72711636817E+02  0.72711636817E+02  0.00000000000E+00 0. -1.
         -6    2    1    2    0  503  0.59473727370E+02  0.13160494473E+03  0.16009644492E+03  0.27576492481E+03  0.17192567101E+03 0.  0.
        -24    2    3    3    0    0  0.37486859539E+02  0.70058308892E+02  0.11615446709E+02  0.11346856758E+03  0.80167112600E+02 0.  0.
          6    2    1    2  501    0 -0.59473727370E+02 -0.13160494473E+03  0.82904912919E+03  0.85880392294E+03  0.17136141258E+03 0.  0.
         24    2    5    5    0    0 -0.24863244965E+02 -0.13631209744E+03  0.43149154618E+03  0.45968719241E+03  0.76994750356E+02 0.  0.
          5    1    5    5  501    0 -0.34610482405E+02  0.47071527163E+01  0.39755758301E+03  0.39911673053E+03  0.47000000000E+01 0. -1.
        -11    1    6    6    0    0 -0.33947167266E+02 -0.33410912929E+02  0.20936941959E+03  0.21471900970E+03  0.00000000000E+00 0.  1.
         12    1    6    6    0    0  0.90839223009E+01 -0.10290118451E+03  0.22212212659E+03  0.24496818271E+03  0.00000000000E+00 0. -1.
         -5    1    3    3    0  503  0.21986867831E+02  0.61546635835E+02  0.14848099821E+03  0.16229635723E+03  0.47000000000E+01 0.  1.
         11    1    4    4    0    0 -0.13607104987E+02  0.44373465844E+02 -0.17118265975E+02  0.49469109625E+02  0.00000000000E+00 0. -1.
        -12    1    4    4    0    0  0.51093964526E+02  0.25684843048E+02  0.28733712684E+02  0.63999457951E+02  0.00000000000E+00 0.  1.
</event>
<event>
12    1  0.1061634E+000  0.2738628E+03  0.7818608E-02  0.1099302E+00
         21   -1    0    0  503  502  0.00000000000E+00  0.00000000000E+00  0.13328827717E+04  0.13328827717E+04  0.00000000000E+00 0.  1.
         21   -1    0    0  501  503 -0.00000000000E+00 -0.00000000000E+00 -0.58650705000E+02  0.58650705000E+02  0.00000000000E+00 0. -1.
          6    2    1    2  501    0 -0.13171469420E+03  0.16621603263E+03  0.48637593899E+03  0.55743628140E+03  0.17087165833E+03 0.  0.
         24    2    3    3    0    0 -0.39850836281E+02  0.12041403498E+03  0.38459654465E+03  0.41280597167E+03  0.80041483707E+02 0.  0.
         -6    2    1    2    0  502  0.13171469420E+03 -0.16621603263E+03  0.78785612767E+03  0.83409719526E+03  0.17327528115E+03 0.  0.
        -24    2    5    5    0    0  0.98600500385E+02 -0.35144253056E+02  0.32306892307E+03  0.35002530309E+03  0.84776214508E+02 0.  0.
          5    1    3    3  501    0 -0.91863857923E+02  0.45801997655E+02  0.10177939434E+03  0.14463030974E+03  0.47000000000E+01 0. -1.
        -13    1    4    4    0    0 -0.28826961662E+02  0.12557450228E+02  0.16422859647E+03  0.16721158803E+03  0.00000000000E+00 0.  1.
         14    1    4    4    0    0 -0.11023874619E+02  0.10785658475E+03  0.22036794818E+03  0.24559438363E+03  0.00000000000E+00 0. -1.
         -5    1    5    5    0  502  0.33114193819E+02 -0.13107177958E+03  0.46478720459E+03  0.48407189217E+03  0.47000000000E+01 0.  1.
         13    1    6    6    0    0  0.96237982367E+02 -0.50163383363E+02  0.31421980353E+03  0.33243375161E+03  0.00000000000E+00 0. -1.
        -14    1    6    6    0    0  0.23625180187E+01  0.15019130308E+02  0.88491195426E+01  0.17591551474E+02  0.00000000000E+00 0.  1.
</event>
<event>
12    1  0.1061634E+000  0.1820080E+03  0.7818608E-02  0.1166462E+00
         21   -1    0    0  503  502  0.00000000000E+00  0.00000000000E+00  0.86136274962E+03  0.86136274962E+03  0.00000000000E+00 0.  1.
         21   -1    0    0  501  503 -0.00000000000E+00 -0.00000000000E+00 -0.38540170351E+02  0.38540170351E+02  0.00000000000E+00 0.  1.
          6    2    1    2  501    0 -0.29624352370E+02  0.44797888180E+02  0.35813319973E+03  0.40172914137E+03  0.17390359754E+03 0.  0.
         24    2    3    3    0    0  0.14125452169E+02  0.85458947138E+02  0.20098089129E+03  0.23354381157E+03  0.81526886435E+02 0.  0.
         -6    2    1    2    0  502  0.29624352370E+02 -0.44797888180E+02  0.46468937953E+03  0.49817377860E+03  0.17133721485E+03 0.  0.
        -24    2    5    5    0    0  0.79810036341E+02  0.69261126650E-01  0.28378897752E+03  0.30509682655E+03  0.78601800953E+02 0.  0.
          5    1    3    3  501    0 -0.43749804539E+02 -0.40661058959E+02  0.15715230844E+03  0.16818532980E+03  0.47000000000E+01 0. -1.
        -13    1    4    4    0    0 -0.25079931048E+02  0.66323394182E+02  0.91991958167E+02  0.11614781928E+03  0.00000000000E+00 0.  1.
         14    1    4    4    0    0  0.39205383217E+02  0.19135552956E+02  0.10898893313E+03  0.11739599228E+03  0.00000000000E+00 0. -1.
         -5    1    5    5    0  502 -0.50185683971E+02 -0.44867149306E+02  0.18090040202E+03  0.19307695205E+03  0.47000000000E+01 0.  1.
         13    1    6    6    0    0 -0.32233361123E+01  0.18216765376E+02  0.17102102367E+02  0.25193696470E+02  0.00000000000E+00 0. -1.
        -14    1    6    6    0    0  0.83033372453E+02 -0.18147504249E+02  0.26668687515E+03  0.27990313008E+03  0.00000000000E+00 0.  1.
</event>
<event>
12    1  0.1061634E+000  0.2222253E+03  0.7818608E-02  0.1134839E+00
         21   -1    0    0  503  502  0.00000000000E+00  0.00000000000E+00  0.78500402326E+02  0.78500402326E+02  0.00000000000E+00 0. -1.
         21   -1    0    0  501  503 -0.00000000000E+00 -0.00000000000E+00 -0.11344242192E+04  0.11344242192E+04  0.00000000000E+00 0.  1.
          6    2    1    2  501    0 -0.62838954255E+02 -0.12106207150E+03 -0.99575921666E+02  0.23109704415E+03  0.15775208496E+03 0.  0.
         24    2    3    3    0    0 -0.48863827701E+02 -0.12591820365E+03 -0.12574288964E+03  0.20067194933E+03  0.78834569103E+02 0.  0.
         -6    2    1    2    0  502  0.62838954255E+02  0.12106207150E+03 -0.95634789524E+03  0.98182757741E+03  0.17544040500E+03 0.  0.
        -24    2    5    5    0    0  0.96649536154E+02  0.35948732018E+02 -0.55231593172E+03  0.56751929418E+03  0.79948837798E+02 0.  0.
          5    1    3    3  501    0 -0.13975126554E+02  0.48561321463E+01  0.26166967973E+02  0.30425094815E+02  0.47000000000E+01 0. -1.
        -11    1    4    4    0    0 -0.28244674081E+02 -0.20327381483E+00 -0.30795051861E+02  0.41786817937E+02  0.00000000000E+00 0.  1.
         12    1    4    4    0    0 -0.20619153620E+02 -0.12571492983E+03 -0.94947837778E+02  0.15888513139E+03  0.00000000000E+00 0. -1.
         -5    1    5    5    0  502 -0.33810581899E+02  0.85113339485E+02 -0.40403196352E+03  0.41430828323E+03  0.47000000000E+01 0.  1.
         13    1    6    6    0    0  0.19396607910E+02 -0.15657022863E+02 -0.25027045239E+03  0.25150878733E+03  0.00000000000E+00 0. -1.
        -14    1    6    6    0    0  0.77252928244E+02  0.51605754881E+02 -0.30204547932E+03  0.31601050685E+03  0.00000000000E+00 0.  1.
</event>
<event>
12    1  0.1061634E+000  0.1925364E+03  0.7818608E-02  0.1156535E+00
         21   -1    0    0  503  502  0.00000000000E+00  0.00000000000E+00  0.39119984160E+03  0.39119984160E+03  0.00000000000E+00 0.  1.
         21   -1    0    0  501  503 -0.00000000000E+00 -0.00000000000E+00 -0.94023771994E+02  0.94023771994E+02  0.00000000000E+00 0.  1.
          6    2    1    2  501    0  0.12896950369E+02 -0.83316458271E+02  0.15242511737E+03  0.24556808096E+03  0.17309622304E+03 0.  0.
         24    2    3    3    0    0  0.37125232957E+02  0.44663095350E+00  0.12658409404E+03  0.15450154879E+03  0.80428311649E+02 0.  0.
         -6    2    1    2    0  502 -0.12896950369E+02  0.83316458271E+02  0.14475095224E+03  0.23965553264E+03  0.17138836776E+03 0.  0.
        -24    2    5    5    0    0 -0.47836123480E+02  0.10060974408E+03  0.54496053736E+02  0.14122870573E+03  0.67565613560E+02 0.  0.
          5    1    3    3  501    0 -0.24228282589E+02 -0.83763089225E+02  0.25841023332E+02  0.91066532165E+02  0.47000000000E+01 0. -1.
        -11    1    4    4    0    0 -0.19288049430E+02  0.16686171580E+02  0.62975372254E+02  0.67943761180E+02  0.00000000000E+00 0.  1.
         12    1    4    4    0    0  0.56413282387E+02 -0.16239540626E+02  0.63608721784E+02  0.86557787613E+02  0.00000000000E+00 0. -1.
         -5    1    5    5    0  502  0.34939173111E+02 -0.17293285810E+02  0.90254898502E+02  0.98426826909E+02  0.47000000000E+01 0.  1.
         13    1    6    6    0    0  0.63532425640E+01  0.37404226718E+02 -0.58702218421E+01  0.38391397109E+02  0.00000000000E+00 0. -1.
        -14    1    6    6    0    0 -0.54189366044E+02  0.63205517363E+02  0.60366275578E+02  0.10283730862E+03  0.00000000000E+00 0.  1.
</event>
<event>
12    1  0.1468070E+000  0.4243353E+03  0.7818608E-02  0.1035808E+00
         21   -1    0    0  501  502  0.00000000000E+00  0.00000000000E+00  0.44862190178E+03  0.44862190178E+03  0.00000000000E+00 0.  1.
         21   -1    0    0  502  503 -0.00000000000E+00 -0.00000000000E+00 -0.92916926627E+03  0.92916926627E+03  0.00000000000E+00 0. -1.
         -6    2    1    2    0  503 -0.13977139007E+03  0.35989231895E+03  0.27997840038E+03  0.50689513871E+03  0.17174473572E+03 0.  0.
        -24    2    3    3    0    0 -0.92026438351E+02  0.32342283783E+03  0.27810716233E+03  0.44660256040E+03  0.95073949278E+02 0.  0.
          6    2    1    2  501    0  0.13977139007E+03 -0.35989231895E+03 -0.76052576487E+03  0.87089602934E+03  0.17607365554E+03 0.  0.
         24    2    5    5    0    0  0.11667790223E+03 -0.15489623914E+03 -0.29751274168E+03  0.36398395456E+03  0.79774118283E+02 0.  0.
          5    1    5    5  501    0  0.23093487841E+02 -0.20499607981E+03 -0.46301302318E+03  0.50691207478E+03  0.47000000000E+01 0. -1.
        -13    1    6    6    0    0  0.58552792350E+02 -0.13504124550E+03 -0.19245397079E+03  0.24228722283E+03  0.00000000000E+00 0.  1.
         14    1    6    6    0    0  0.58125109878E+02 -0.19854993638E+02 -0.10505877090E+03  0.12169673173E+03  0.00000000000E+00 0. -1.
         -5    1    3    3    0  503 -0.47744951717E+02  0.36469481115E+02  0.18712380570E+01  0.60292578309E+02  0.47000000000E+01 0.  1.
         11    1    4    4    0    0  0.15654939114E+02  0.69512256486E+02  0.37080193446E+02  0.80324166142E+02  0.00000000000E+00 0. -1.
        -12    1    4    4    0    0 -0.10768137747E+03  0.25391058135E+03  0.24102696888E+03  0.36627839426E+03  0.00000000000E+00 0.  1.
</event>
<event>
12    1  0.1061634E+000  0.2019636E+03  0.7818608E-02  0.1150299E+00
         21   -1    0    0  503  502  0.00000000000E+00  0.00000000000E+00  0.70235523359E+03  0.70235523359E+03  0.00000000000E+00 0.  1.
         21   -1    0    0  501  503 -0.00000000000E+00 -0.00000000000E+00 -0.95707795100E+02  0.95707795100E+02  0.00000000000E+00 0.  1.
          6    2    1    2  501    0  0.85397591899E+02  0.62181478080E+02  0.55845541404E+03  0.59042928731E+03  0.15992188382E+03 0.  0.
         24    2    3    3    0    0  0.11896954631E+03  0.36332969720E+02  0.40131686814E+03  0.42761087891E+03  0.79510989606E+02 0.  0.
         -6    2    1    2    0  502 -0.85397591899E+02 -0.62181478080E+02  0.48192024453E+02  0.20763374138E+03  0.17213371088E+03 0.  0.
        -24    2    5    5    0    0 -0.83089493670E+01 -0.86462220337E+02  0.44139586941E+02  0.12657372965E+03  0.80795121868E+02 0.  0.
          5    1    3    3  501    0 -0.33571954409E+02  0.25848508360E+02  0.15713854590E+03  0.16281840840E+03  0.47000000000E+01 0. -1.
        -13    1    4    4    0    0  0.38156371247E+02  0.32407237083E+02  0.66964948618E+02  0.83608863319E+02  0.00000000000E+00 0.  1.
         14    1    4    4    0    0  0.80813175061E+02  0.39257326366E+01  0.33435191952E+03  0.34400201559E+03  0.00000000000E+00 0. -1.
         -5    1    5    5    0  502 -0.77088642532E+02  0.24280742258E+02  0.40524375115E+01  0.81060011731E+02  0.47000000000E+01 0.  1.
         13    1    6    6    0    0 -0.37680310785E+02 -0.31360480274E+02 -0.17961024312E+01  0.49056207842E+02  0.00000000000E+00 0. -1.
        -14    1    6    6    0    0  0.29371361418E+02 -0.55101740064E+02  0.45935689373E+02  0.77517521811E+02  0.00000000000E+00 0.  1.
</event>
<event>
12    1  0.1061634E+000  0.2786561E+03  0.7818608E-02  0.1096637E+00
         21   -1    0    0  501  502  0.00000000000E+00  0.00000000000E+00  0.62471170682E+03  0.62471170682E+03  0.00000000000E+00 0.  1.
         21   -1    0    0  502  503 -0.00000000000E+00 -0.00000000000E+00 -0.31112114821E+03  0.31112114821E+03  0.00000000000E+00 0.  1.
         -6    2    1    2    0  503 -0.21553468441E+03 -0.34326819124E+02  0.51988058898E+03  0.58912722544E+03  0.17076747427E+03 0.  0.
        -24    2    3    3    0    0 -0.14993814854E+03 -0.87941595407E+02  0.33737143867E+03  0.38785842583E+03  0.79996864078E+02 0.  0.
          6    2    1    2  501    0  0.21553468441E+03  0.34326819124E+02 -0.20629003037E+03  0.34670562959E+03  0.17325035719E+03 0.  0.
         24    2    5    5    0    0  0.12303636674E+03  0.78137711054E+02 -0.81753701455E+02  0.18543963738E+03  0.80378740856E+02 0.  0.
          5    1    5    5  501    0  0.92498317671E+02 -0.43810891930E+02 -0.12453632892E+03  0.16126599221E+03  0.47000000000E+01 0. -1.
        -11    1    6    6    0    0  0.81576356598E+02  0.91151078370E+02 -0.67471848351E+02  0.13969850165E+03  0.00000000000E+00 0.  1.
         12    1    6    6    0    0  0.41460010139E+02 -0.13013367316E+02 -0.14281853104E+02  0.45741135728E+02  0.00000000000E+00 0. -1.
         -5    1    3    3    0  503 -0.65596535867E+02  0.53614776284E+02  0.18250915030E+03  0.20126879961E+03  0.47000000000E+01 0.  1.
         11    1    4    4    0    0 -0.58336013840E+02 -0.51912672777E+02  0.22656713200E+03  0.23964699333E+03  0.00000000000E+00 0. -1.
        -12    1    4    4    0    0 -0.91602134701E+02 -0.36028922631E+02  0.11080430667E+03  0.14821143250E+03  0.00000000000E+00 0.  1.
</event>
<event>
12    1  0.1061634E+000  0.2060910E+03  0.7818608E-02  0.1144913E+00
         21   -1    0    0  501  502  0.00000000000E+00  0.00000000000E+00  0.58826892214E+02  0.58826892214E+02  0.00000000000E+00 0. -1.
         21   -1    0    0  502  503 -0.00000000000E+00 -0.00000000000E+00 -0.73280227387E+03  0.73280227387E+03  0.00000000000E+00 0. -1.
         -6    2    1    2    0  503  0.11077763909E+03 -0.87987305883E+01 -0.39177192248E+03  0.44218346288E+03  0.17231329785E+03 0.  0.
        -24    2    3    3    0    0  0.10319795585E+03 -0.53111354294E+02 -0.36071259967E+03  0.38733975995E+03  0.80298667671E+02 0.  0.
          6    2    1    2  501    0 -0.11077763909E+03  0.87987305883E+01 -0.28220345917E+03  0.34944570320E+03  0.17356383303E+03 0.  0.
         24    2    5    5    0    0 -0.69583751233E+02 -0.62643052199E+02 -0.18979864625E+03  0.22550376447E+03  0.77861230716E+02 0.  0.
          5    1    5    5  501    0 -0.41193887861E+02  0.71441782787E+02 -0.92404812923E+02  0.12394193873E+03  0.47000000000E+01 0. -1.
        -13    1    6    6    0    0 -0.42823799340E+02 -0.43642807111E+01 -0.13315823120E+03  0.13994298579E+03  0.00000000000E+00 0.  1.
         14    1    6    6    0    0 -0.26759951893E+02 -0.58278771488E+02 -0.56640415051E+02  0.85560778681E+02  0.00000000000E+00 0. -1.
         -5    1    3    3    0  503  0.75796832390E+01  0.44312623706E+02 -0.31059322815E+02  0.54843702933E+02  0.47000000000E+01 0.  1.
         13    1    4    4    0    0  0.27367898745E+02 -0.15160009728E+01 -0.20342851337E+03  0.20526680246E+03  0.00000000000E+00 0. -1.
        -14    1    4    4    0    0  0.75830057110E+02 -0.51595353321E+02 -0.15728408630E+03  0.18207295749E+03  0.00000000000E+00 0.  1.
</event>
<event>
12    1  0.1061634E+000  0.2471273E+03  0.7818608E-02  0.1115230E+00
         21   -1    0    0  503  502  0.00000000000E+00  0.00000000000E+00  0.88332166470E+02  0.88332166470E+02  0.00000000000E+00 0. -1.
         21   -1    0    0  501  503 -0.00000000000E+00 -0.00000000000E+00 -0.75782171841E+03  0.75782171841E+03  0.00000000000E+00 0. -1.
          6    2    1    2  501    0 -0.17686091990E+03  0.12302551225E+02 -0.46120779593E+03  0.52296168367E+03  0.17130427261E+03 0.  0.
         24    2    3    3    0    0 -0.60089830595E+02 -0.41419094206E+02 -0.14020568331E+03  0.17714967001E+03  0.79987766871E+02 0.  0.
         -6    2    1    2    0  502  0.17686091990E+03 -0.12302551225E+02 -0.20828175601E+03  0.32319220120E+03  0.17216495368E+03 0.  0.
        -24    2    5    5    0    0  0.10691446782E+03 -0.60536697828E+02 -0.71181868679E+02  0.16183078028E+03  0.77633419369E+02 0.  0.
          5    1    3    3  501    0 -0.11677108930E+03  0.53721645432E+02 -0.32100211262E+03  0.34581201366E+03  0.47000000000E+01 0. -1.
        -13    1    4    4    0    0  0.18122574016E+02  0.26348138547E+01 -0.27971656017E+02  0.33433268960E+02  0.00000000000E+00 0.  1.
         14    1    4    4    0    0 -0.78212404611E+02 -0.44053908061E+02 -0.11223402729E+03  0.14371640105E+03  0.00000000000E+00 0. -1.
         -5    1    5    5    0  502  0.69946452074E+02  0.48234146603E+02 -0.13709988733E+03  0.16136142092E+03  0.47000000000E+01 0.  1.
         13    1    6    6    0    0  0.86113174846E+02 -0.35713613530E+02 -0.85430215168E+02  0.12644865653E+03  0.00000000000E+00 0. -1.
        -14    1    6    6    0    0  0.20801292977E+02 -0.24823084298E+02  0.14248346489E+02  0.35382123753E+02  0.00000000000E+00 0.  1.
</event>
<event>
12    1  0.1061634E+000  0.2962828E+03  0.7818608E-02  0.1088409E+00
         21   -1    0    0  503  502  0.00000000000E+00  0.00000000000E+00  0.11185332985E+04  0.11185332985E+04  0.00000000000E+00 0. -1.
         21   -1    0    0  501  503 -0.00000000000E+00 -0.00000000000E+00 -0.15495096983E+03  0.15495096983E+03  0.00000000000E+00 0. -1.
          6    2    1    2  501    0  0.98475728686E+02 -0.20662976045E+03  0.93264543155E+03  0.97559072035E+03  0.17191982315E+03 0.  0.
         24    2    3    3    0    0  0.13526776908E+03 -0.18767626111E+03  0.79632776253E+03  0.83305130033E+03  0.79478394907E+02 0.  0.
         -6    2    1    2    0  502 -0.98475728686E+02  0.20662976045E+03  0.30936897096E+02  0.29789354796E+03  0.18812269206E+03 0.  0.
        -24    2    5    5    0    0 -0.11533984514E+03  0.68139851273E+02 -0.25476346341E+01  0.15434161578E+03  0.76606296803E+02 0.  0.
          5    1    3    3  501    0 -0.36792040393E+02 -0.18953499334E+02  0.13631766902E+03  0.14253942002E+03  0.47000000000E+01 0. -1.
        -11    1    4    4    0    0  0.13955306029E+03 -0.15413011687E+03  0.63349229920E+03  0.66674106121E+03  0.00000000000E+00 0.  1.
         12    1    4    4    0    0 -0.42852912153E+01 -0.33546144243E+02  0.16283546333E+03  0.16631023911E+03  0.00000000000E+00 0. -1.
         -5    1    5    5    0  502  0.16864116454E+02  0.13848990918E+03  0.33484531730E+02  0.14355193218E+03  0.47000000000E+01 0.  1.
         13    1    6    6    0    0 -0.29219889150E+02 -0.35848645007E+01 -0.26642209711E+02  0.39704666146E+02  0.00000000000E+00 0. -1.
        -14    1    6    6    0    0 -0.86119955991E+02  0.71724715774E+02  0.24094575077E+02  0.11463694963E+03  0.00000000000E+00 0.  1.
</event>
<event>
12    1  0.1061634E+000  0.2233099E+03  0.7818608E-02  0.1132413E+00
         21   -1    0    0  501  502  0.00000000000E+00  0.00000000000E+00  0.12097564798E+03  0.12097564798E+03  0.00000000000E+00 0. -1.
         21   -1    0    0  502  503 -0.00000000000E+00 -0.00000000000E+00 -0.40257950339E+03  0.40257950339E+03  0.00000000000E+00 0. -1.
         -6    2    1    2    0  503  0.98688286028E+01  0.13309435526E+03 -0.13719518581E+03  0.25762064221E+03  0.17243658284E+03 0.  0.
        -24    2    3    3    0    0  0.27984032134E+02  0.13868500101E+03 -0.16076199078E+03  0.22701181643E+03  0.75321388483E+02 0.  0.
          6    2    1    2  501    0 -0.98688286028E+01 -0.13309435526E+03 -0.14440866959E+03  0.26593450916E+03  0.17904133079E+03 0.  0.
         24    2    5    5    0    0 -0.68876054571E+01 -0.11933419145E+03 -0.17766017064E+03  0.22952047174E+03  0.82634268684E+02 0.  0.
          5    1    5    5  501    0 -0.29812231457E+01 -0.13760163808E+02  0.33251501046E+02  0.36414037421E+02  0.47000000000E+01 0. -1.
        -13    1    6    6    0    0  0.15484097809E+01 -0.37326530102E+01 -0.73728458335E+02  0.73839121337E+02  0.00000000000E+00 0.  1.
         14    1    6    6    0    0 -0.84360152380E+01 -0.11560153844E+03 -0.10393171230E+03  0.15568135041E+03  0.00000000000E+00 0. -1.
         -5    1    3    3    0  503 -0.18115203531E+02 -0.55906457508E+01  0.23566804965E+02  0.30608825772E+02  0.47000000000E+01 0.  1.
         11    1    4    4    0    0  0.46230708249E+02  0.63447229861E+02 -0.10719925515E+03  0.13287027383E+03  0.00000000000E+00 0. -1.
        -12    1    4    4    0    0 -0.18246676116E+02  0.75237771146E+02 -0.53562735625E+02  0.94141542605E+02  0.00000000000E+00 0.  1.
</event>
<event>
12    1  0.1061634E+000  0.2056149E+03  0.7818608E-02  0.1145674E+00
         21   -1    0    0  501  502  0.00000000000E+00  0.00000000000E+00  0.23650923610E+03  0.23650923610E+03  0.00000000000E+00 0.  1.
         21   -1    0    0  502  503 -0.00000000000E+00 -0.00000000000E+00 -0.17627328714E+03  0.17627328714E+03  0.00000000000E+00 0.  1.
         -6    2    1    2    0  503  0.74504945186E+02 -0.83964825968E+02  0.29957839146E+02  0.20495028564E+03  0.16883740284E+03 0.  0.
        -24    2    3    3    0    0  0.10763938044E+03 -0.33843191598E+02 -0.61778087586E+00  0.13737049893E+03  0.78349693580E+02 0.  0.
          6    2    1    2  501    0 -0.74504945186E+02  0.83964825968E+02  0.30278109808E+02  0.20783223760E+03  0.17226838421E+03 0.  0.
         24    2    5    5    0    0 -0.66526903527E+01  0.14922636786E+02  0.70270167268E+02  0.10298851088E+03  0.73496895092E+02 0.  0.
          5    1    5    5  501    0 -0.67852254833E+02  0.69042189182E+02 -0.39992057461E+02  0.10484372672E+03  0.47000000000E+01 0. -1.
        -13    1    6    6    0    0 -0.28698562895E+02  0.43174970032E+01  0.46999423917E+00  0.29025319760E+02  0.00000000000E+00 0.  1.
         14    1    6    6    0    0  0.22045872542E+02  0.10605139783E+02  0.69800173029E+02  0.73963191121E+02  0.00000000000E+00 0. -1.
         -5    1    3    3    0  503 -0.33134435254E+02 -0.50121634370E+02  0.30575620022E+02  0.67579786706E+02  0.47000000000E+01 0.  1.
         11    1    4    4    0    0 -0.96806268087E+01 -0.12550260859E+02  0.81298525634E+01  0.17813424313E+02  0.00000000000E+00 0. -1.
        -12    1    4    4    0    0  0.11732000725E+03 -0.21292930739E+02 -0.87476334392E+01  0.11955707462E+03  0.00000000000E+00 0.  1.
</event>
<event>
12    1  0.1061634E+000  0.1843517E+03  0.7818608E-02  0.1164067E+00
         21   -1    0    0  503  502  0.00000000000E+00  0.00000000000E+00  0.89745989784E+01  0.89745989784E+01  0.00000000000E+00 0. -1.
         21   -1    0    0  501  503 -0.00000000000E+00 -0.00000000000E+00 -0.40071479736E+04  0.40071479736E+04  0.00000000000E+00 0. -1.
          6    2    1    2  501    0  0.51553539346E+02 -0.34172869787E+02 -0.25155066334E+04  0.25222527968E+04  0.17366633476E+03 0.  0.
         24    2    3    3    0    0 -0.25942255837E+01  0.42203200412E+02 -0.11245502924E+04  0.11281412815E+04  0.79382307436E+02 0.  0.
         -6    2    1    2    0  502 -0.51553539346E+02  0.34172869787E+02 -0.14826667412E+04  0.14938697758E+04  0.17181585787E+03 0.  0.
        -24    2    5    5    0    0  0.17851426677E+02  0.64358335845E+02 -0.76085826343E+03  0.76808896845E+03  0.81207743507E+02 0.  0.
          5    1    3    3  501    0  0.54147764930E+02 -0.76376070199E+02 -0.13909563410E+04  0.13941115153E+04  0.47000000000E+01 0. -1.
        -13    1    4    4    0    0 -0.56648977436E+01  0.62839664316E+02 -0.98732962849E+03  0.98934357519E+03  0.00000000000E+00 0.  1.
         14    1    4    4    0    0  0.30706721599E+01 -0.20636463904E+02 -0.13722066391E+03  0.13879770630E+03  0.00000000000E+00 0. -1.
         -5    1    5    5    0  502 -0.69404966023E+02 -0.30185466058E+02 -0.72180847778E+03  0.72578080732E+03  0.47000000000E+01 0.  1.
         11    1    6    6    0    0  0.49954200269E+02  0.30853743754E+02 -0.41614104251E+03  0.42026270699E+03  0.00000000000E+00 0. -1.
        -12    1    6    6    0    0 -0.32102773593E+02  0.33504592091E+02 -0.34471722092E+03  0.34782626146E+03  0.00000000000E+00 0.  1.
</event>
<event>
12    1  0.1061634E+000  0.2610379E+03  0.7818608E-02  0.1106661E+00
         21   -1    0    0  503  502  0.00000000000E+00  0.00000000000E+00  0.13735147789E+04  0.13735147789E+04  0.00000000000E+00 0. -1.
         21   -1    0    0  501  503 -0.00000000000E+00 -0.00000000000E+00 -0.50900416939E+02  0.50900416939E+02  0.00000000000E+00 0. -1.
          6    2    1    2  501    0 -0.20023095023E+02 -0.19446626595E+03  0.78106964814E+03  0.82324012216E+03  0.17157054105E+03 0.  0.
         24    2    3    3    0    0 -0.77388632178E+02 -0.10044293540E+03  0.46381351259E+03  0.48737595752E+03  0.79589985855E+02 0.  0.
         -6    2    1    2    0  502  0.20023095023E+02  0.19446626595E+03  0.54154471382E+03  0.60117507369E+03  0.17298190433E+03 0.  0.
        -24    2    5    5    0    0  0.20387254583E+02  0.21237702563E+02  0.22388446316E+03  0.23932096961E+03  0.79269120666E+02 0.  0.
          5    1    3    3  501    0  0.57365537155E+02 -0.94023330548E+02  0.31725613555E+03  0.33586416464E+03  0.47000000000E+01 0. -1.
        -11    1    4    4    0    0 -0.80806263481E+02 -0.47361078859E+02  0.24781983444E+03  0.26492903644E+03  0.00000000000E+00 0.  1.
         12    1    4    4    0    0  0.34176313031E+01 -0.53081856541E+02  0.21599367815E+03  0.22244692108E+03  0.00000000000E+00 0. -1.
         -5    1    5    5    0  502 -0.36415956018E+00  0.17322856339E+03  0.31766025067E+03  0.36185410408E+03  0.47000000000E+01 0.  1.
         11    1    6    6    0    0  0.47391531523E+02  0.13716490777E+02  0.91017905805E+02  0.10352950573E+03  0.00000000000E+00 0. -1.
        -12    1    6    6    0    0 -0.27004276940E+02  0.75212117853E+01  0.13286655735E+03  0.13579146388E+03  0.00000000000E+00 0.  1.
</event>
<event>
12    1  0.1061634E+000  0.1740458E+03  0.7818608E-02  0.1174034E+00
         21   -1    0    0  503  502  0.00000000000E+00  0.00000000000E+00  0.23162353504E+04  0.23162353504E+04  0.00000000000E+00 0. -1.
         21   -1    0    0  501  503 -0.00000000000E+00 -0.00000000000E+00 -0.13282829178E+02  0.13282829178E+02  0.00000000000E+00 0. -1.
          6    2    1    2  501    0  0.93077452213E+01  0.14977841572E+02  0.97052725672E+03  0.98577377848E+03  0.17180167766E+03 0.  0.
         24    2    3    3    0    0 -0.59264036010E+02  0.20325385759E+02  0.66141376788E+03  0.66906583037E+03  0.79092134672E+02 0.  0.
         -6    2    1    2    0  502 -0.93077452213E+01 -0.14977841572E+02  0.13324252645E+04  0.13437444011E+04  0.17315010867E+03 0.  0.
        -24    2    5    5    0    0 -0.55361433718E+01  0.29288187830E+02  0.12175292855E+04  0.12204687655E+04  0.79233829159E+02 0.  0.
          5    1    3    3  501    0  0.68571781232E+02 -0.53475441874E+01  0.30911348884E+03  0.31670794810E+03  0.47000000000E+01 0. -1.
        -11    1    4    4    0    0  0.14485021396E+02 -0.10681370247E+02  0.19615454515E+03  0.19697845847E+03  0.00000000000E+00 0.  1.
         12    1    4    4    0    0 -0.73749057406E+02  0.31006756006E+02  0.46525922272E+03  0.47208737191E+03  0.00000000000E+00 0. -1.
         -5    1    5    5    0  502 -0.37716018496E+01 -0.44266029402E+02  0.11489597895E+03  0.12327563555E+03  0.47000000000E+01 0.  1.
         11    1    6    6    0    0  0.35888101649E+02  0.13483777242E+02  0.43573538288E+03  0.43741866899E+03  0.00000000000E+00 0. -1.
        -12    1    6    6    0    0 -0.41424245020E+02  0.15804410589E+02  0.78179390263E+03  0.78305009652E+03  0.00000000000E+00 0.  1.
</event>
<event>
12    1  0.1061634E+000  0.2033646E+03  0.7818608E-02  0.1146986E+00
         21   -1    0    0  501  502  0.00000000000E+00  0.00000000000E+00  0.75344902169E+03  0.75344902169E+03  0.00000000000E+00 0.  1.
         21   -1    0    0  502  503 -0.00000000000E+00 -0.00000000000E+00 -0.55013740065E+02  0.55013740065E+02  0.00000000000E+00 0.  1.
         -6    2    1    2    0  503  0.10356581335E+03  0.32263620309E+02  0.32533547002E+03  0.38366697633E+03  0.17201849256E+03 0.  0.
        -24    2    3    3    0    0  0.22429847396E+02  0.12564510282E+02  0.27302735386E+03  0.28502961564E+03  0.77698010693E+02 0.  0.
          6    2    1    2  501    0 -0.10356581335E+03 -0.32263620309E+02  0.37309981161E+03  0.42479578543E+03  0.17170081830E+03 0.  0.
         24    2    5    5    0    0 -0.16848596203E+02 -0.10484134326E+02  0.29934143713E+03  0.30879315802E+03  0.73171894824E+02 0.  0.
          5    1    5    5  501    0 -0.86717217146E+02 -0.21779485982E+02  0.73758374482E+02  0.11600262741E+03  0.47000000000E+01 0. -1.
        -13    1    6    6    0    0  0.28096359286E+02  0.34097586202E+01  0.12951756113E+03  0.13257386809E+03  0.00000000000E+00 0.  1.
         14    1    6    6    0    0 -0.44944955489E+02 -0.13893892947E+02  0.16982387600E+03  0.17621928993E+03  0.00000000000E+00 0. -1.
         -5    1    3    3    0  503  0.81135965953E+02  0.19699110027E+02  0.52308116159E+02  0.98637360686E+02  0.47000000000E+01 0.  1.
         13    1    4    4    0    0  0.38918373945E+02  0.34618066179E+02  0.20779219844E+03  0.21422102620E+03  0.00000000000E+00 0. -1.
        -14    1    4    4    0    0 -0.16488526549E+02 -0.22053555897E+02  0.65235155419E+02  0.70808589436E+02  0.00000000000E+00 0.  1.
</event>
<event>
12    1  0.1061634E+000  0.3103305E+03  0.7818608E-02  0.1080302E+00
         21   -1    0    0  501  502  0.00000000000E+00  0.00000000000E+00  0.11572248246E+04  0.11572248246E+04  0.00000000000E+00 0.  1.
         21   -1    0    0  502  503 -0.00000000000E+00 -0.00000000000E+00 -0.10884793849E+03  0.10884793849E+03  0.00000000000E+00 0.  1.
         -6    2    1    2    0  503 -0.21389520832E+03 -0.14493665527E+03  0.21488135130E+03  0.37667980344E+03  0.17016428825E+03 0.  0.
        -24    2    3    3    0    0 -0.10678541184E+03 -0.13663117198E+02  0.11061793747E+03  0.17768683933E+03  0.88014088803E+02 0.  0.
          6    2    1    2  501    0  0.21389520832E+03  0.14493665527E+03  0.83349553482E+03  0.88939295966E+03  0.17189309453E+03 0.  0.
         24    2    5    5    0    0  0.22879822547E+03  0.13728530519E+03  0.68071993529E+03  0.73562977522E+03  0.81090399486E+02 0.  0.
          5    1    5    5  501    0 -0.14903017148E+02  0.76513500806E+01  0.15277559953E+03  0.15376318444E+03  0.47000000000E+01 0. -1.
        -11    1    6    6    0    0  0.78774823068E+02  0.86135925427E+01  0.15720770232E+03  0.17605092557E+03  0.00000000000E+00 0.  1.
         12    1    6    6    0    0  0.15002340240E+03  0.12867171264E+03  0.52351223297E+03  0.55957884965E+03  0.00000000000E+00 0. -1.
         -5    1    3    3    0  503 -0.10710979648E+03 -0.13127353807E+03  0.10426341383E+03  0.19899296410E+03  0.47000000000E+01 0.  1.
         13    1    4    4    0    0 -0.40865121701E+02 -0.76092226406E+01 -0.75429327784E+01  0.42246352218E+02  0.00000000000E+00 0. -1.
        -14    1    4    4    0    0 -0.65920290142E+02 -0.60538945572E+01  0.11816087025E+03  0.13544048712E+03  0.00000000000E+00 0.  1.
</event>
<event>
12    1  0.1061634E+000  0.1812233E+03  0.7818608E-02  0.1169217E+00
         21   -1    0    0  503  502  0.00000000000E+00  0.00000000000E+00  0.10458234309E+04  0.10458234309E+04  0.00000000000E+00 0.  1.
         21   -1    0    0  501  503 -0.00000000000E+00 -0.00000000000E+00 -0.32582360709E+02  0.32582360709E+02  0.00000000000E+00 0.  1.
          6    2    1    2  501    0 -0.21250240479E+02 -0.48962727831E+02  0.35765177630E+03  0.40094474145E+03  0.17318478908E+03 0.  0.
         24    2    3    3    0    0  0.21684761256E+01 -0.60111281897E+02  0.36087263141E+03  0.37438931916E+03  0.79499922657E+02 0.  0.
         -6    2    1    2    0  502  0.21250240479E+02  0.48962727831E+02  0.65558929386E+03  0.67746105013E+03  0.16219503932E+03 0.  0.
        -24    2    5    5    0    0 -0.18257693111E+02 -0.11746654785E+02  0.48674643632E+03  0.49367719204E+03  0.79522005801E+02 0.  0.
          5    1    3    3  501    0 -0.23418716605E+02  0.11148554066E+02 -0.32208551100E+01  0.26555422287E+02  0.47000000000E+01 0. -1.
        -13    1    4    4    0    0  0.27873776406E+02 -0.61277469455E+02  0.31174566135E+03  0.31893139238E+03  0.00000000000E+00 0.  1.
         14    1    4    4    0    0 -0.25705300280E+02  0.11661875584E+01  0.49126970058E+02  0.55457926782E+02  0.00000000000E+00 0. -1.
         -5    1    5    5    0  502  0.39507933590E+02  0.60709382616E+02  0.16884285754E+03  0.18378385809E+03  0.47000000000E+01 0.  1.
         13    1    6    6    0    0 -0.72435721545E+01  0.34315408158E+02  0.20743805982E+03  0.21038195083E+03  0.00000000000E+00 0. -1.
        -14    1    6    6    0    0 -0.11014120956E+02 -0.46062062943E+02  0.27930837651E+03  0.28329524121E+03  0.00000000000E+00 0.  1.
</event>
<event>
12    1  0.1061634E+000  0.4551029E+03  0.7818608E-02  0.1026815E+00
         21   -1    0    0  501  502  0.00000000000E+00  0.00000000000E+00  0.28032507482E+03  0.28032507482E+03  0.00000000000E+00 0.  1.
         21   -1    0    0  502  503 -0.00000000000E+00 -0.00000000000E+00 -0.75037157254E+03  0.75037157254E+03  0.00000000000E+00 0.  1.
         -6    2    1    2    0  503  0.17769093918E+03  0.37175936397E+03 -0.32641974909E+03  0.55346788361E+03  0.17319858839E+03 0.  0.
        -24    2    3    3    0    0  0.12308296119E+03  0.12161975715E+03 -0.15416588612E+03  0.24484945015E+03  0.79014885509E+02 0.  0.
          6    2    1    2  501    0 -0.17769093918E+03 -0.37175936397E+03 -0.14362674862E+03  0.47722876375E+03  0.19323445722E+03 0.  0.
         24    2    5    5    0    0 -0.14588668582E+03 -0.27590043448E+03 -0.27942621690E+02  0.32358843011E+03  0.80775659396E+02 0.  0.
          5    1    5    5  501    0 -0.31804253364E+02 -0.95858929497E+02 -0.11568412693E+03  0.15364033364E+03  0.47000000000E+01 0. -1.
        -13    1    6    6    0    0 -0.65091057051E+02 -0.20159630009E+03 -0.28968359813E+02  0.21381552747E+03  0.00000000000E+00 0.  1.
         14    1    6    6    0    0 -0.80795628769E+02 -0.74304134388E+02  0.10257381231E+01  0.10977290264E+03  0.00000000000E+00 0. -1.
         -5    1    3    3    0  503  0.54607977997E+02  0.25013960682E+03 -0.17225386298E+03  0.30861843346E+03  0.47000000000E+01 0.  1.
         11    1    4    4    0    0  0.15430084676E+02  0.63416138382E+02 -0.73402364771E+02  0.98222203571E+02  0.00000000000E+00 0. -1.
        -12    1    4    4    0    0  0.10765287651E+03  0.58203618770E+02 -0.80763521346E+02  0.14662724658E+03  0.00000000000E+00 0.  1.
</event>
<event>
12    1  0.1061634E+000  0.3087671E+03  0.7818608E-02  0.1082058E+00
         21   -1    0    0  503  502  0.00000000000E+00  0.00000000000E+00  0.59204617800E+03  0.59204617800E+03  0.00000000000E+00 0.  1.
         21   -1    0    0  501  503 -0.00000000000E+00 -0.00000000000E+00 -0.17793520763E+03  0.17793520763E+03  0.00000000000E+00 0.  1.
          6    2    1    2  501    0  0.19198461447E+03 -0.15283378361E+03  0.34404228183E+03  0.46227937817E+03  0.18740564075E+03 0.  0.
         24    2    3    3    0    0  0.92012946304E+02 -0.15260621585E+03  0.15962885664E+03  0.25245853170E+03  0.80615748787E+02 0.  0.
         -6    2    1    2    0  502 -0.19198461447E+03  0.15283378361E+03  0.70068688531E+02  0.30770200746E+03  0.17191464939E+03 0.  0.
        -24    2    5    5    0    0 -0.55511906555E+02  0.56437274885E+02  0.82808250668E+02  0.14006706676E+03  0.80590564243E+02 0.  0.
          5    1    3    3  501    0  0.99971668166E+02 -0.22756776877E+00  0.18441342520E+03  0.20982084648E+03  0.47000000000E+01 0. -1.
        -13    1    4    4    0    0  0.10461897432E+03 -0.12513601923E+03  0.11939587773E+03  0.20213740058E+03  0.00000000000E+00 0.  1.
         14    1    4    4    0    0 -0.12606028017E+02 -0.27470196619E+02  0.40232978909E+02  0.50321131113E+02  0.00000000000E+00 0. -1.
         -5    1    5    5    0  502 -0.13647270791E+03  0.96396508730E+02 -0.12739562137E+02  0.16763494070E+03  0.47000000000E+01 0.  1.
         11    1    6    6    0    0 -0.76450869977E+02  0.47838264913E+02  0.68990466640E+02  0.11354699290E+03  0.00000000000E+00 0. -1.
        -12    1    6    6    0    0  0.20938963422E+02  0.85990099716E+01  0.13817784028E+02  0.26520073852E+02  0.00000000000E+00 0.  1.
</event>
<event>
12    1  0.1061634E+000  0.2312083E+03  0.7818608E-02  0.1125860E+00
         21   -1    0    0  503  502  0.00000000000E+00  0.00000000000E+00  0.49418980264E+03  0.49418980264E+03  0.00000000000E+00 0. -1.
         21   -1    0    0  501  503 -0.00000000000E+00 -0.00000000000E+00 -0.11329476211E+03  0.11329476211E+03  0.00000000000E+00 0. -1.
          6    2    1    2  501    0 -0.14788930165E+03  0.42899363933E+02  0.25631487873E+03  0.34518777411E+03  0.17246936358E+03 0.  0.
         24    2    3    3    0    0 -0.18154539631E+03  0.34495547931E+02  0.22095265607E+03  0.29542901989E+03  0.65647207223E+02 0.  0.
         -6    2    1    2    0  502  0.14788930165E+03 -0.42899363933E+02  0.12458016180E+03  0.26229679063E+03  0.17195286764E+03 0.  0.
        -24    2    5    5    0    0  0.13696622464E+03 -0.89163608606E+02  0.89011232152E+02  0.20274065994E+03  0.80441779879E+02 0.  0.
          5    1    3    3  501    0  0.33656094662E+02  0.84038160014E+01  0.35362222653E+02  0.49758754227E+02  0.47000000000E+01 0. -1.
        -11    1    4    4    0    0 -0.10131583290E+03 -0.54538327442E+01  0.83827428335E+02  0.13161185368E+03  0.00000000000E+00 0.  1.
         12    1    4    4    0    0 -0.80229563412E+02  0.39949380676E+02  0.13712522774E+03  0.16381716621E+03  0.00000000000E+00 0. -1.
         -5    1    5    5    0  502  0.10923077008E+02  0.46264244673E+02  0.35568929651E+02  0.59556130692E+02  0.47000000000E+01 0.  1.
         13    1    6    6    0    0  0.32494650841E+02 -0.35794157631E+02  0.68197583190E+02  0.83594463972E+02  0.00000000000E+00 0. -1.
        -14    1    6    6    0    0  0.10447157380E+03 -0.53369450975E+02  0.20813648962E+02  0.11914619597E+03  0.00000000000E+00 0.  1.
</event>
<event>
12    1  0.1061634E+000  0.5329877E+03  0.7818608E-02  0.1005534E+00
         21   -1    0    0  501  502  0.00000000000E+00  0.00000000000E+00  0.72083773387E+03  0.72083773387E+03  0.00000000000E+00 0.  1.
         21   -1    0    0  502  503 -0.00000000000E+00 -0.00000000000E+00 -0.44453174600E+03  0.44453174600E+03  0.00000000000E+00 0.  1.
         -6    2    1    2    0  503 -0.49188288001E+03 -0.11233142184E+03  0.33504787414E+03  0.62954981397E+03  0.17178118153E+03 0.  0.
        -24    2    3    3    0    0 -0.32050719076E+03 -0.40835950802E+02  0.28020456925E+03  0.43587196976E+03  0.84126923114E+02 0.  0.
          6    2    1    2  501    0  0.49188288001E+03  0.11233142184E+03 -0.58741886271E+02  0.53581966591E+03  0.17054321796E+03 0.  0.
         24    2    5    5    0    0  0.28513521930E+03  0.11232952217E+03  0.13104008728E+02  0.31689383865E+03  0.79561140592E+02 0.  0.
          5    1    5    5  501    0  0.20674766070E+03  0.18996651318E-02 -0.71845894999E+02  0.21892582725E+03  0.47000000000E+01 0. -1.
        -11    1    6    6    0    0  0.14061258733E+03  0.65472623678E+02  0.45306522784E+02  0.16158974340E+03  0.00000000000E+00 0.  1.
         12    1    6    6    0    0  0.14452263198E+03  0.46856898495E+02 -0.32202514056E+02  0.15530409525E+03  0.00000000000E+00 0. -1.
         -5    1    3    3    0  503 -0.17137568925E+03 -0.71495471036E+02  0.54843304890E+02  0.19367784421E+03  0.47000000000E+01 0.  1.
         11    1    4    4    0    0 -0.19641161082E+03 -0.59634591714E+02  0.20200477368E+03  0.28799259362E+03  0.00000000000E+00 0. -1.
        -12    1    4    4    0    0 -0.12409557994E+03  0.18798640912E+02  0.78199795573E+02  0.14787937614E+03  0.00000000000E+00 0.  1.
</event>
<event>
12    1  0.1061634E+000  0.2320491E+03  0.7818608E-02  0.1125210E+00
         21   -1    0    0  503  502  0.00000000000E+00  0.00000000000E+00  0.47700266527E+03  0.47700266527E+03  0.00000000000E+00 0. -1.
         21   -1    0    0  501  503 -0.00000000000E+00 -0.00000000000E+00 -0.11784472991E+03  0.11784472991E+03  0.00000000000E+00 0. -1.
          6    2    1    2  501    0 -0.59744987468E+02  0.14384501255E+03  0.11850062707E+03  0.26055549082E+03  0.17200556391E+03 0.  0.
         24    2    3    3    0    0 -0.10075118718E+03  0.12272943120E+03  0.63751209571E+02  0.18881313996E+03  0.79830258025E+02 0.  0.
         -6    2    1    2    0  502  0.59744987468E+02 -0.14384501255E+03  0.24065730829E+03  0.33429190436E+03  0.17197175966E+03 0.  0.
        -24    2    5    5    0    0  0.24639759561E+02 -0.16325738633E+01  0.62969212491E+02  0.10396191470E+03  0.78950458761E+02 0.  0.
          5    1    3    3  501    0  0.41006199714E+02  0.21115581351E+02  0.54749417500E+02  0.71742350863E+02  0.47000000000E+01 0. -1.
        -13    1    4    4    0    0 -0.94433914542E+02  0.54210378387E+02  0.37439381124E+02  0.11514441628E+03  0.00000000000E+00 0.  1.
         14    1    4    4    0    0 -0.63172726394E+01  0.68519052815E+02  0.26311828447E+02  0.73668723680E+02  0.00000000000E+00 0. -1.
         -5    1    5    5    0  502  0.35105227907E+02 -0.14221243869E+03  0.17768809580E+03  0.23032998965E+03  0.47000000000E+01 0.  1.
         11    1    6    6    0    0  0.30992832600E+02  0.17065059830E+01 -0.84607991171E+01  0.32172238917E+02  0.00000000000E+00 0. -1.
        -12    1    6    6    0    0 -0.63530730392E+01 -0.33390798463E+01  0.71430011608E+02  0.71789675787E+02  0.00000000000E+00 0.  1.
</event>
<event>
12    1  0.1061634E+000  0.1826131E+03  0.7818608E-02  0.1165612E+00
         21   -1    0    0  501  502  0.00000000000E+00  0.00000000000E+00  0.21382539541E+03  0.21382539541E+03  0.00000000000E+00 0.  1.
         21   -1    0    0  502  503 -0.00000000000E+00 -0.00000000000E+00 -0.15802651794E+03  0.15802651794E+03  0.00000000000E+00 0.  1.
         -6    2    1    2    0  503 -0.54015647696E+02  0.29651516294E+02  0.13646101277E+01  0.18129843707E+03  0.17050031821E+03 0.  0.
        -24    2    3    3    0    0 -0.81440670361E+02  0.47176700116E+02 -0.36842803278E+02  0.13088851369E+03  0.83163616080E+02 0.  0.
          6    2    1    2  501    0  0.54015647696E+02 -0.29651516294E+02  0.54434267347E+02  0.19055347628E+03  0.17190298207E+03 0.  0.
         24    2    5    5    0    0  0.82766502262E+02  0.25444877416E+02  0.20754225047E+02  0.11971097853E+03  0.80014029016E+02 0.  0.
          5    1    5    5  501    0 -0.28750854566E+02 -0.55096393710E+02  0.33680042299E+02  0.70842497750E+02  0.47000000000E+01 0. -1.
        -13    1    6    6    0    0  0.57238071980E+02 -0.18917417491E+02 -0.83071098072E+01  0.60852885239E+02  0.00000000000E+00 0.  1.
         14    1    6    6    0    0  0.25528430282E+02  0.44362294907E+02  0.29061334855E+02  0.58858093289E+02  0.00000000000E+00 0. -1.
         -5    1    3    3    0  503  0.27425022665E+02 -0.17525183822E+02  0.38207413406E+02  0.50409923381E+02  0.47000000000E+01 0.  1.
         13    1    4    4    0    0 -0.77803513051E+02  0.56473984190E+02 -0.36297318116E+01  0.96207445067E+02  0.00000000000E+00 0. -1.
        -14    1    4    4    0    0 -0.36371573099E+01 -0.92972840744E+01 -0.33213071466E+02  0.34681068621E+02  0.00000000000E+00 0.  1.
</event>
<event>
12    1  0.1061634E+000  0.2993221E+03  0.7818608E-02  0.1085807E+00
         21   -1    0    0  503  502  0.00000000000E+00  0.00000000000E+00  0.66431848881E+03  0.66431848881E+03  0.00000000000E+00 0. -1.
         21   -1    0    0  501  503 -0.00000000000E+00 -0.00000000000E+00 -0.16590565880E+03  0.16590565880E+03  0.00000000000E+00 0. -1.
          6    2    1    2  501    0  0.24163853009E+03 -0.22293329190E+02  0.67924750826E+02  0.30693240055E+03  0.17523571263E+03 0.  0.
         24    2    3    3    0    0  0.16225614779E+03  0.40267275868E+02 -0.32077507751E+00  0.18488759841E+03  0.78960813988E+02 0.  0.
         -6    2    1    2    0  502 -0.24163853009E+03  0.22293329190E+02  0.43048807918E+03  0.52329174705E+03  0.17212813384E+03 0.  0.
        -24    2    5    5    0    0 -0.77780512011E+02  0.58404240914E+02  0.14419347005E+03  0.19141806437E+03  0.79926561024E+02 0.  0.
          5    1    3    3  501    0  0.79382382300E+02 -0.62560605059E+02  0.68245525903E+02  0.12204480215E+03  0.47000000000E+01 0. -1.
        -11    1    4    4    0    0  0.96808509904E+02 -0.88469703055E+01 -0.23161224733E+02  0.99932971559E+02  0.00000000000E+00 0.  1.
         12    1    4    4    0    0  0.65447637891E+02  0.49114246174E+02  0.22840449656E+02  0.84954626850E+02  0.00000000000E+00 0. -1.
         -5    1    5    5    0  502 -0.16385801808E+03 -0.36110911724E+02  0.28629460913E+03  0.33187368268E+03  0.47000000000E+01 0.  1.
         13    1    6    6    0    0 -0.17380252049E+02 -0.17793761562E+02  0.50967778283E+02  0.56713362931E+02  0.00000000000E+00 0. -1.
        -14    1    6    6    0    0 -0.60400259962E+02  0.76198002476E+02  0.93225691767E+02  0.13470470144E+03  0.00000000000E+00 0.  1.
</event>
<event>
12    1  0.1061634E+000  0.1865845E+03  0.7818608E-02  0.1161618E+00
         21   -1    0    0  503  502  0.00000000000E+00  0.00000000000E+00  0.77947135243E+02  0.77947135243E+02  0.00000000000E+00 0.  1.
         21   -1    0    0  501  503 -0.00000000000E+00 -0.00000000000E+00 -0.46901600568E+03  0.46901600568E+03  0.00000000000E+00 0.  1.
          6    2    1    2  501    0 -0.70346486063E+02  0.12290802510E+02 -0.25573134108E+03  0.31646364607E+03  0.17219474018E+03 0.  0.
         24    2    3    3    0    0 -0.10642908529E+03  0.58793665128E+01 -0.24323609664E+03  0.27746003582E+03  0.80365139349E+02 0.  0.
         -6    2    1    2    0  502  0.70346486063E+02 -0.12290802510E+02 -0.13533752936E+03  0.23049949485E+03  0.17237771999E+03 0.  0.
        -24    2    5    5    0    0 -0.11704128305E+02 -0.39933111601E+00 -0.72260627322E+01  0.77828776342E+02  0.76602587160E+02 0.  0.
          5    1    3    3  501    0  0.36082599227E+02  0.64114359974E+01 -0.12495244432E+02  0.39003610242E+02  0.47000000000E+01 0. -1.
        -11    1    4    4    0    0 -0.18530819158E+02  0.20653480186E+02 -0.13217312893E+03  0.13505440946E+03  0.00000000000E+00 0.  1.
         12    1    4    4    0    0 -0.87898266131E+02 -0.14774113673E+02 -0.11106296772E+03  0.14240562637E+03  0.00000000000E+00 0. -1.
         -5    1    5    5    0  502  0.82050614368E+02 -0.11891471394E+02 -0.12811146663E+03  0.15267071851E+03  0.47000000000E+01 0.  1.
         13    1    6    6    0    0  0.21609322329E+02 -0.25792684321E+02 -0.11877339245E+02  0.35683281289E+02  0.00000000000E+00 0. -1.
        -14    1    6    6    0    0 -0.33313450634E+02  0.25393353205E+02  0.46512765127E+01  0.42145495054E+02  0.00000000000E+00 0.  1.
</event>
<event>
12    1  0.1061634E+000  0.2229928E+03  0.7818608E-02  0.1131705E+00
         21   -1    0    0  503  502  0.00000000000E+00  0.00000000000E+00  0.31614836008E+03  0.31614836008E+03  0.00000000000E+00 0.  1.
         21   -1    0    0  501  503 -0.00000000000E+00 -0.00000000000E+00 -0.29998561894E+03  0.29998561894E+03  0.00000000000E+00 0.  1.
          6    2    1    2  501    0 -0.14239754709E+03  0.51268508824E+00 -0.20449142472E+03  0.30242387485E+03  0.17136549544E+03 0.  0.
         24    2    3    3    0    0 -0.19021274496E+02  0.53691669327E+02 -0.78490247448E+02  0.11817378481E+03  0.67525700540E+02 0.  0.
         -6    2    1    2    0  502  0.14239754709E+03 -0.51268508824E+00  0.22065416586E+03  0.31371010417E+03  0.17160549025E+03 0.  0.
        -24    2    5    5    0    0  0.29775269187E+02 -0.19021930628E+02  0.16438752184E+03  0.18637434769E+03  0.80397385771E+02 0.  0.
          5    1    3    3  501    0 -0.12337627259E+03 -0.53178984238E+02 -0.12600117727E+03  0.18425009003E+03  0.47000000000E+01 0. -1.
        -11    1    4    4    0    0  0.16624616487E+01  0.49390959947E+02 -0.15588677106E+02  0.51819277853E+02  0.00000000000E+00 0.  1.
         12    1    4    4    0    0 -0.20683736145E+02  0.43007093793E+01 -0.62901570342E+02  0.66354506958E+02  0.00000000000E+00 0. -1.
         -5    1    5    5    0  502  0.11262227790E+03  0.18509245540E+02  0.56266644020E+02  0.12733575649E+03  0.47000000000E+01 0.  1.
         13    1    6    6    0    0 -0.26121854154E+02 -0.15529630001E+02  0.42624438506E+02  0.52348480689E+02  0.00000000000E+00 0. -1.
        -14    1    6    6    0    0  0.55897123341E+02 -0.34923006266E+01  0.12176308333E+03  0.13402586700E+03  0.00000000000E+00 0.  1.
</event>
<event>
12    1  0.1061634E+000  0.2166276E+03  0.7818608E-02  0.1136522E+00
         21   -1    0    0  503  502  0.00000000000E+00  0.00000000000E+00  0.81997635292E+03  0.81997635292E+03  0.00000000000E+00 0.  1.
         21   -1    0    0  501  503 -0.00000000000E+00 -0.00000000000E+00 -0.65388936270E+02  0.65388936270E+02  0.00000000000E+00 0.  1.
          6    2    1    2  501    0 -0.12795500505E+03  0.27205878624E+02  0.21921961412E+03  0.30783069410E+03  0.17201701621E+03 0.  0.
         24    2    3    3    0    0 -0.92066541815E+02 -0.22802398117E+02  0.20483196247E+03  0.24444375494E+03  0.93810548443E+02 0.  0.
         -6    2    1    2    0  502  0.12795500505E+03 -0.27205878624E+02  0.53536780254E+03  0.57753459509E+03  0.17266986242E+03 0.  0.
        -24    2    5    5    0    0  0.27246598157E+02  0.33999096910E+02  0.18822399060E+03  0.21090242463E+03  0.84576866682E+02 0.  0.
          5    1    3    3  501    0 -0.35888463234E+02  0.50008276741E+02  0.14387651647E+02  0.63386939158E+02  0.47000000000E+01 0. -1.
        -13    1    4    4    0    0  0.83833195747E+01 -0.31469887928E+02  0.51512840422E+02  0.60944291132E+02  0.00000000000E+00 0.  1.
         14    1    4    4    0    0 -0.10044986139E+03  0.86674898107E+01  0.15331912205E+03  0.18349946381E+03  0.00000000000E+00 0. -1.
         -5    1    5    5    0  502  0.10070840689E+03 -0.61204975533E+02  0.34714381194E+03  0.36663217046E+03  0.47000000000E+01 0.  1.
         11    1    6    6    0    0  0.52878710637E+02  0.26742665254E+02  0.80648124189E+02  0.10007721079E+03  0.00000000000E+00 0. -1.
        -12    1    6    6    0    0 -0.25632112480E+02  0.72564316561E+01  0.10757586641E+03  0.11082521385E+03  0.00000000000E+00 0.  1.
</event>
<event>
12    1  0.1061634E+000  0.1915850E+03  0.7818608E-02  0.1157104E+00
         21   -1    0    0  501  502  0.00000000000E+00  0.00000000000E+00  0.11001276084E+03  0.11001276084E+03  0.00000000000E+00 0.  1.
         21   -1    0    0  502  503 -0.00000000000E+00 -0.00000000000E+00 -0.65174572672E+03  0.65174572672E+03  0.00000000000E+00 0.  1.
         -6    2    1    2    0  503 -0.48058863873E+02 -0.68705875975E+02 -0.53727623093E+03  0.57041263899E+03  0.17226339891E+03 0.  0.
        -24    2    3    3    0    0 -0.17782750826E+02  0.20098113123E+02 -0.15237692888E+03  0.17421527123E+03  0.80075413804E+02 0.  0.
          6    2    1    2  501    0  0.48058863873E+02  0.68705875975E+02 -0.44567349528E+01  0.19134584857E+03  0.17193958092E+03 0.  0.
         24    2    5    5    0    0  0.66260816766E+02  0.13250273571E+02 -0.53287954652E+02  0.11510141963E+03  0.76437327928E+02 0.  0.
          5    1    5    5  501    0 -0.18201952894E+02  0.55455602404E+02  0.48831219700E+02  0.76244428941E+02  0.47000000000E+01 0. -1.
        -13    1    6    6    0    0 -0.42196672912E+01  0.20894680947E+02 -0.36465651305E+02  0.42239046024E+02  0.00000000000E+00 0.  1.
         14    1    6    6    0    0  0.70480484058E+02 -0.76444073757E+01 -0.16822303347E+02  0.72862373603E+02  0.00000000000E+00 0. -1.
         -5    1    3    3    0  503 -0.30276113046E+02 -0.88803989098E+02 -0.38489930205E+03  0.39619736776E+03  0.47000000000E+01 0.  1.
         11    1    4    4    0    0 -0.33671985339E+02  0.24929752273E+01 -0.18993045008E+02  0.38739557055E+02  0.00000000000E+00 0. -1.
        -12    1    4    4    0    0  0.15889234513E+02  0.17605137896E+02 -0.13338388387E+03  0.13547571417E+03  0.00000000000E+00 0.  1.
</event>
<event>
12    1  0.1061634E+000  0.2631884E+03  0.7818608E-02  0.1105505E+00
         21   -1    0    0  501  502  0.00000000000E+00  0.00000000000E+00  0.83739816780E+02  0.83739816780E+02  0.00000000000E+00 0.  1.
         21   -1    0    0  502  503 -0.00000000000E+00 -0.00000000000E+00 -0.94255652416E+03  0.94255652416E+03  0.00000000000E+00 0.  1.
         -6    2    1    2    0  503 -0.43558897657E+02 -0.19414550900E+03 -0.24687247610E+03  0.36085201032E+03  0.17227390302E+03 0.  0.
        -24    2    3    3    0    0 -0.72784716671E+02 -0.11012517905E+03 -0.21957108990E+03  0.26768001865E+03  0.77562612295E+02 0.  0.
          6    2    1    2  501    0  0.43558897657E+02  0.19414550900E+03 -0.61194423128E+03  0.66544433062E+03  0.16955989718E+03 0.  0.
         24    2    5    5    0    0  0.72143971567E+02  0.10400783635E+03 -0.47730574986E+03  0.50084932109E+03  0.83707114028E+02 0.  0.
          5    1    5    5  501    0 -0.28585073910E+02  0.90137672653E+02 -0.13463848142E+03  0.16459500953E+03  0.47000000000E+01 0. -1.
        -13    1    6    6    0    0  0.36647841679E+01 -0.12444254205E+02 -0.83836665967E+02  0.84834407325E+02  0.00000000000E+00 0.  1.
         14    1    6    6    0    0  0.68479187399E+02  0.11645209056E+03 -0.39346908389E+03  0.41601491377E+03  0.00000000000E+00 0. -1.
         -5    1    3    3    0  503  0.29225819013E+02 -0.84020329949E+02 -0.27301386204E+02  0.93171991663E+02  0.47000000000E+01 0.  1.
         11    1    4    4    0    0 -0.73218656306E+02 -0.86783308911E+02 -0.11917625949E+03  0.16460648578E+03  0.00000000000E+00 0. -1.
        -12    1    4    4    0    0  0.43393963588E+00 -0.23341870143E+02 -0.10039483041E+03  0.10307353287E+03  0.00000000000E+00 0.  1.
</event>
<event>
12    1  0.1061634E+000  0.2206380E+03  0.7818608E-02  0.1136500E+00
         21   -1    0    0  501  502  0.00000000000E+00  0.00000000000E+00  0.14987767834E+02  0.14987767834E+02  0.00000000000E+00 0.  1.
         21   -1    0    0  502  503 -0.00000000000E+00 -0.00000000000E+00 -0.30911137594E+04  0.30911137594E+04  0.00000000000E+00 0.  1.
         -6    2    1    2    0  503 -0.10081310657E+03  0.45682529206E+02 -0.17221538769E+04  0.17342700525E+04  0.17212920443E+03 0.  0.
        -24    2    3    3    0    0 -0.20382004898E+02  0.79916151617E+02 -0.11196691686E+04  0.11254589021E+04  0.78718966933E+02 0.  0.
          6    2    1    2  501    0  0.10081310657E+03 -0.45682529206E+02 -0.13539721146E+04  0.13718314747E+04  0.19086888721E+03 0.  0.
         24    2    5    5    0    0  0.94166307979E+02 -0.33409530495E+02 -0.44744707449E+03  0.46518681186E+03  0.78780677643E+02 0.  0.
          5    1    5    5  501    0  0.66467985900E+01 -0.12272998711E+02 -0.90652504008E+03  0.90664466287E+03  0.47000000000E+01 0. -1.
        -13    1    6    6    0    0  0.62502030820E+02  0.10218525739E+02 -0.14885497256E+03  0.16176750285E+03  0.00000000000E+00 0.  1.
         14    1    6    6    0    0  0.31664277160E+02 -0.43628056234E+02 -0.29859210194E+03  0.30341930901E+03  0.00000000000E+00 0. -1.
         -5    1    3    3    0  503 -0.80431101672E+02 -0.34233622411E+02 -0.60248470837E+03  0.60881115039E+03  0.47000000000E+01 0.  1.
         11    1    4    4    0    0 -0.40829410572E+02  0.59482991953E+02 -0.50694374949E+03  0.51205198198E+03  0.00000000000E+00 0. -1.
        -12    1    4    4    0    0  0.20447405675E+02  0.20433159664E+02 -0.61272541909E+03  0.61340692008E+03  0.00000000000E+00 0.  1.
</event>
<event>
12    1  0.1061634E+000  0.2592208E+03  0.7818608E-02  0.1107839E+00
         21   -1    0    0  503  502  0.00000000000E+00  0.00000000000E+00  0.89534786313E+03  0.89534786313E+03  0.00000000000E+00 0.  1.
         21   -1    0    0  501  503 -0.00000000000E+00 -0.00000000000E+00 -0.75429589960E+02  0.75429589960E+02  0.00000000000E+00 0.  1.
          6    2    1    2  501    0 -0.16656026129E+03 -0.98933730100E+02  0.35839768087E+03  0.44144136428E+03  0.16997463592E+03 0.  0.
         24    2    3    3    0    0 -0.60517704682E+02 -0.26775109904E+01  0.79122527003E+02  0.12755127987E+03  0.79620305647E+02 0.  0.
         -6    2    1    2    0  502  0.16656026129E+03  0.98933730100E+02  0.46152059230E+03  0.52933608881E+03  0.17223598405E+03 0.  0.
        -24    2    5    5    0    0  0.21472392633E+02  0.58496382881E+02  0.11943495210E+03  0.15553086692E+03  0.77731926035E+02 0.  0.
          5    1    3    3  501    0 -0.10604255660E+03 -0.96256219110E+02  0.27927515386E+03  0.31389008441E+03  0.47000000000E+01 0. -1.
        -13    1    4    4    0    0  0.18320100990E+02 -0.84037470848E+01  0.97891595610E+01  0.22407068310E+02  0.00000000000E+00 0.  1.
         14    1    4    4    0    0 -0.78837805673E+02  0.57262360944E+01  0.69333367442E+02  0.10514421156E+03  0.00000000000E+00 0. -1.
         -5    1    5    5    0  502  0.14508786865E+03  0.40437347220E+02  0.34208564020E+03  0.37380522189E+03  0.47000000000E+01 0.  1.
         11    1    6    6    0    0  0.31523094439E+02  0.56789205558E+02  0.12712790010E+03  0.14275931611E+03  0.00000000000E+00 0. -1.
        -12    1    6    6    0    0 -0.10050701806E+02  0.17071773222E+01 -0.76929479993E+01  0.12771550811E+02  0.00000000000E+00 0.  1.
</event>
<event>
12    1  0.1061634E+000  0.1919552E+03  0.7818608E-02  0.1156851E+00
         21   -1    0    0  503  502  0.00000000000E+00  0.00000000000E+00  0.14419457236E+03  0.14419457236E+03  0.00000000000E+00 0.  1.
         21   -1    0    0  501  503 -0.00000000000E+00 -0.00000000000E+00 -0.27948101946E+03  0.27948101946E+03  0.00000000000E+00 0.  1.
          6    2    1    2  501    0  0.45115809335E+02  0.70561813888E+02 -0.13083393660E+03  0.23230222119E+03  0.17272057542E+03 0.  0.
         24    2    3    3    0    0 -0.11646157771E+02 -0.33080964093E+01 -0.13582488131E+02  0.82473396443E+02  0.80441286938E+02 0.  0.
         -6    2    1    2    0  502 -0.45115809335E+02 -0.70561813888E+02 -0.44525104989E+01  0.19137337063E+03  0.17201609316E+03 0.  0.
        -24    2    5    5    0    0 -0.29940297308E+02 -0.11161896155E+03 -0.23437423845E+02  0.14343067072E+03  0.81656784695E+02 0.  0.
          5    1    3    3  501    0  0.56761967105E+02  0.73869910297E+02 -0.11725144847E+03  0.14982882475E+03  0.47000000000E+01 0. -1.
        -13    1    4    4    0    0 -0.14134113709E+02 -0.25883060035E+02 -0.38670341925E+02  0.48632307284E+02  0.00000000000E+00 0.  1.
         14    1    4    4    0    0  0.24879559386E+01  0.22574963626E+02  0.25087853794E+02  0.33841089159E+02  0.00000000000E+00 0. -1.
         -5    1    5    5    0  502 -0.15175512027E+02  0.41057147666E+02  0.18984913346E+02  0.47942699908E+02  0.47000000000E+01 0.  1.
         11    1    6    6    0    0 -0.51301648595E+01 -0.52296707113E+02  0.29392985692E+02  0.60209731557E+02  0.00000000000E+00 0. -1.
        -12    1    6    6    0    0 -0.24810132448E+02 -0.59322254441E+02 -0.52830409537E+02  0.83220939167E+02  0.00000000000E+00 0.  1.
</event>
<event>
12    1  0.1061634E+000  0.2561188E+03  0.7818608E-02  0.1109669E+00
         21   -1    0    0  501  502  0.00000000000E+00  0.00000000000E+00  0.20822863796E+03  0.20822863796E+03  0.00000000000E+00 0. -1.
         21   -1    0    0  502  503 -0.00000000000E+00 -0.00000000000E+00 -0.36794747344E+03  0.36794747344E+03  0.00000000000E+00 0. -1.
         -6    2    1    2    0  503  0.29388611977E+02  0.18460858769E+03  0.30952126514E+02  0.25687651714E+03  0.17344592747E+03 0.  0.
        -24    2    3    3    0    0  0.68607609841E+02  0.51007690009E+02  0.21361134890E+02  0.11722907973E+03  0.77314749443E+02 0.  0.
          6    2    1    2  501    0 -0.29388611977E+02 -0.18460858769E+03 -0.19067096199E+03  0.31929959427E+03  0.17507939339E+03 0.  0.
         24    2    5    5    0    0 -0.71750415322E+01 -0.15796762232E+03 -0.21348742425E+03  0.27751604849E+03  0.80206146487E+02 0.  0.
          5    1    5    5  501    0 -0.22213570445E+02 -0.26640965378E+02  0.22816462256E+02  0.41783545781E+02  0.47000000000E+01 0. -1.
        -11    1    6    6    0    0  0.29765348835E+01 -0.15744733380E+03 -0.16544002539E+03  0.22840517657E+03  0.00000000000E+00 0.  1.
         12    1    6    6    0    0 -0.10151576416E+02 -0.52028851416E+00 -0.48047398854E+02  0.49110871917E+02  0.00000000000E+00 0. -1.
         -5    1    3    3    0  503 -0.39218997864E+02  0.13360089768E+03  0.95909916242E+01  0.13964743741E+03  0.47000000000E+01 0.  1.
         11    1    4    4    0    0  0.47819156944E+02  0.16248262832E+01  0.38026193954E+02  0.61117127370E+02  0.00000000000E+00 0. -1.
        -12    1    4    4    0    0  0.20788452897E+02  0.49382863725E+02 -0.16665059064E+02  0.56111952356E+02  0.00000000000E+00 0.  1.
</event>
<event>
12    1  0.1061634E+000  0.3588561E+03  0.7818608E-02  0.1059070E+00
         21   -1    0    0  501  502  0.00000000000E+00  0.00000000000E+00  0.12590950930E+04  0.12590950930E+04  0.00000000000E+00 0.  1.
         21   -1    0    0  502  503 -0.00000000000E+00 -0.00000000000E+00 -0.13831818763E+03  0.13831818763E+03  0.00000000000E+00 0.  1.
         -6    2    1    2    0  503 -0.74437492441E+02  0.30560309648E+03  0.20308738802E+03  0.41205459439E+03  0.17207646187E+03 0.  0.
        -24    2    3    3    0    0 -0.35700764406E+02  0.30321006768E+03  0.15929783374E+03  0.35335301222E+03  0.79193823540E+02 0.  0.
          6    2    1    2  501    0  0.74437492441E+02 -0.30560309648E+03  0.91768951739E+03  0.98535868627E+03  0.17275270597E+03 0.  0.
         24    2    5    5    0    0  0.80496082201E+02 -0.12853868306E+03  0.56505594927E+03  0.59069295888E+03  0.81413350092E+02 0.  0.
          5    1    5    5  501    0 -0.60585897609E+01 -0.17706441342E+03  0.35263356812E+03  0.39466572739E+03  0.47000000000E+01 0. -1.
        -11    1    6    6    0    0  0.71625750554E+02 -0.11676360208E+03  0.36116159846E+03  0.38626634220E+03  0.00000000000E+00 0.  1.
         12    1    6    6    0    0  0.88703316470E+01 -0.11775080974E+02  0.20389435080E+03  0.20442661668E+03  0.00000000000E+00 0. -1.
         -5    1    3    3    0  503 -0.38736728034E+02  0.23930287942E+01  0.43789554280E+02  0.58701582174E+02  0.47000000000E+01 0.  1.
         13    1    4    4    0    0 -0.35575493614E+02  0.26121763262E+03  0.10281040802E+03  0.28296686614E+03  0.00000000000E+00 0. -1.
        -14    1    4    4    0    0 -0.12527079263E+00  0.41992435063E+02  0.56487425716E+02  0.70386146075E+02  0.00000000000E+00 0.  1.
</event>
<event>
12    1  0.1061634E+000  0.1885746E+03  0.7818608E-02  0.1161122E+00
         21   -1    0    0  503  502  0.00000000000E+00  0.00000000000E+00  0.21251471082E+03  0.21251471082E+03  0.00000000000E+00 0. -1.
         21   -1    0    0  501  503 -0.00000000000E+00 -0.00000000000E+00 -0.17217189723E+03  0.17217189723E+03  0.00000000000E+00 0. -1.
          6    2    1    2  501    0 -0.42573405691E+01  0.77048497752E+02  0.66922854117E+02  0.20009754966E+03  0.17206325878E+03 0.  0.
         24    2    3    3    0    0 -0.21824523440E+02 -0.18879093539E+02  0.31726832721E+01  0.83491876691E+02  0.78282166283E+02 0.  0.
         -6    2    1    2    0  502  0.42573405691E+01 -0.77048497752E+02 -0.26580040528E+02  0.18458905840E+03  0.16556577536E+03 0.  0.
        -24    2    5    5    0    0  0.66066805078E+02 -0.42373452827E+02 -0.11027966902E+02  0.11187918536E+03  0.78962040399E+02 0.  0.
          5    1    3    3  501    0  0.17567182871E+02  0.95927591291E+02  0.63750170845E+02  0.11660567296E+03  0.47000000000E+01 0. -1.
        -13    1    4    4    0    0 -0.31200935889E+02  0.14846388530E+02 -0.21472719177E+02  0.40681584551E+02  0.00000000000E+00 0.  1.
         14    1    4    4    0    0  0.93764124490E+01 -0.33725482069E+02  0.24645402450E+02  0.42810292140E+02  0.00000000000E+00 0. -1.
         -5    1    5    5    0  502 -0.61809464509E+02 -0.34675044925E+02 -0.15552073626E+02  0.72709873040E+02  0.47000000000E+01 0.  1.
         13    1    6    6    0    0  0.48489888282E+02  0.36225691829E+01 -0.32158003241E+02  0.58296907684E+02  0.00000000000E+00 0. -1.
        -14    1    6    6    0    0  0.17576916796E+02 -0.45996022010E+02  0.21130036338E+02  0.53582277671E+02  0.00000000000E+00 0.  1.
</event>
<event>
12    1  0.1061634E+000  0.3234352E+03  0.7818608E-02  0.1074133E+00
         21   -1    0    0  503  502  0.00000000000E+00  0.00000000000E+00  0.45368704036E+03  0.45368704036E+03  0.00000000000E+00 0.  1.
         21   -1    0    0  501  503 -0.00000000000E+00 -0.00000000000E+00 -0.24665832235E+03  0.24665832235E+03  0.00000000000E+00 0. -1.
          6    2    1    2  501    0 -0.31332450881E+02 -0.27026697961E+03  0.13099397416E+02  0.32322612074E+03  0.17400450617E+03 0.  0.
         24    2    3    3    0    0  0.30980220485E+02 -0.10749504000E+03 -0.26722322912E+02  0.14438140388E+03  0.87275137117E+02 0.  0.
         -6    2    1    2    0  502  0.31332450881E+02  0.27026697961E+03  0.19392932059E+03  0.37711924197E+03  0.17488390014E+03 0.  0.
        -24    2    5    5    0    0  0.77965814025E+02  0.24491817356E+03  0.18213522247E+03  0.32254430929E+03  0.69267685779E+02 0.  0.
          5    1    3    3  501    0 -0.62312671366E+02 -0.16277193961E+03  0.39821720328E+02  0.17884471686E+03  0.47000000000E+01 0. -1.
        -13    1    4    4    0    0  0.28975345656E+02 -0.75247251644E+02  0.24100284322E+02  0.84157847170E+02  0.00000000000E+00 0.  1.
         14    1    4    4    0    0  0.20048748284E+01 -0.32247788360E+02 -0.50822607234E+02  0.60223556714E+02  0.00000000000E+00 0. -1.
         -5    1    5    5    0  502 -0.46633363143E+02  0.25348806055E+02  0.11794098121E+02  0.54574932679E+02  0.47000000000E+01 0.  1.
         13    1    6    6    0    0  0.54301768685E+02  0.18350523206E+03  0.95875829894E+02  0.21404445107E+03  0.00000000000E+00 0. -1.
        -14    1    6    6    0    0  0.23664045340E+02  0.61412941496E+02  0.86259392578E+02  0.10849985822E+03  0.00000000000E+00 0.  1.
</event>
<event>
12    1  0.1061634E+000  0.2438818E+03  0.7818608E-02  0.1117265E+00
         21   -1    0    0  503  502  0.00000000000E+00  0.00000000000E+00  0.15841796859E+03  0.15841796859E+03  0.00000000000E+00 0. -1.
         21   -1    0    0  501  503 -0.00000000000E+00 -0.00000000000E+00 -0.47994457131E+03  0.47994457131E+03  0.00000000000E+00 0.  1.
          6    2    1    2  501    0 -0.60498812558E+01  0.17373902672E+03 -0.11570485109E+02  0.24396286578E+03  0.17076929842E+03 0.  0.
         24    2    3    3    0    0 -0.29188408306E+02  0.14825610072E+03 -0.62861785614E+02  0.18201402835E+03  0.79659700243E+02 0.  0.
         -6    2    1    2    0  502  0.60498812558E+01 -0.17373902672E+03 -0.30995611761E+03  0.39439967412E+03  0.17104519179E+03 0.  0.
        -24    2    5    5    0    0 -0.32099205398E+02 -0.13489577424E+03 -0.12163046634E+03  0.19830583943E+03  0.72828611938E+02 0.  0.
          5    1    3    3  501    0  0.23138527051E+02  0.25482925997E+02  0.51291300505E+02  0.61948837430E+02  0.47000000000E+01 0. -1.
        -11    1    4    4    0    0 -0.27705467193E+01  0.31280226797E+02 -0.53106183325E+02  0.61695990347E+02  0.00000000000E+00 0.  1.
         12    1    4    4    0    0 -0.26417861587E+02  0.11697587393E+03 -0.97556022891E+01  0.12031803800E+03  0.00000000000E+00 0. -1.
         -5    1    5    5    0  502  0.38149086654E+02 -0.38843252481E+02 -0.18832565127E+03  0.19609383469E+03  0.47000000000E+01 0.  1.
         11    1    6    6    0    0 -0.17590564786E+02 -0.97947693250E+02 -0.12345468058E+03  0.15856934363E+03  0.00000000000E+00 0. -1.
        -12    1    6    6    0    0 -0.14508640611E+02 -0.36948080990E+02  0.18242142393E+01  0.39736495805E+02  0.00000000000E+00 0.  1.
</event>
<event>
12    1  0.1061634E+000  0.3089103E+03  0.7818608E-02  0.1080892E+00
         21   -1    0    0  501  502  0.00000000000E+00  0.00000000000E+00  0.81604260879E+02  0.81604260879E+02  0.00000000000E+00 0. -1.
         21   -1    0    0  502  503 -0.00000000000E+00 -0.00000000000E+00 -0.11770333455E+04  0.11770333455E+04  0.00000000000E+00 0. -1.
         -6    2    1    2    0  503  0.43758608666E+02  0.25301839774E+03 -0.60063368933E+03  0.67532973961E+03  0.17139516625E+03 0.  0.
        -24    2    3    3    0    0 -0.22077034648E+02  0.53955248326E+02 -0.17153945143E+03  0.19772695027E+03  0.79193428925E+02 0.  0.
          6    2    1    2  501    0 -0.43758608666E+02 -0.25301839774E+03 -0.49479539532E+03  0.58330786680E+03  0.17173368574E+03 0.  0.
         24    2    5    5    0    0  0.23381971324E+02 -0.17953443161E+03 -0.25028869606E+03  0.31927497730E+03  0.80701617298E+02 0.  0.
          5    1    5    5  501    0 -0.67140579990E+02 -0.73483966122E+02 -0.24450669925E+03  0.26403288950E+03  0.47000000000E+01 0. -1.
        -13    1    6    6    0    0 -0.19407919692E+02 -0.15993941737E+02 -0.14123586047E+02  0.28843529637E+02  0.00000000000E+00 0.  1.
         14    1    6    6    0    0  0.42789891017E+02 -0.16354048988E+03 -0.23616511002E+03  0.29043144766E+03  0.00000000000E+00 0. -1.
         -5    1    3    3    0  503  0.65835643315E+02  0.19906314941E+03 -0.42909423790E+03  0.47760278934E+03  0.47000000000E+01 0.  1.
         11    1    4    4    0    0  0.18468187658E+02 -0.58327064823E+01 -0.12502662329E+02  0.23052353147E+02  0.00000000000E+00 0. -1.
        -12    1    4    4    0    0 -0.40545222307E+02  0.59787954809E+02 -0.15903678910E+03  0.17467459712E+03  0.00000000000E+00 0.  1.
</event>
<event>
12    1  0.1061634E+000  0.3601246E+03  0.7818608E-02  0.1058549E+00
         21   -1    0    0  501  502  0.00000000000E+00  0.00000000000E+00  0.10819326176E+03  0.10819326176E+03  0.00000000000E+00 0.  1.
         21   -1    0    0  502  503 -0.00000000000E+00 -0.00000000000E+00 -0.12156290760E+04  0.12156290760E+04  0.00000000000E+00 0.  1.
         -6    2    1    2    0  503  0.20417623401E+03  0.24088412344E+03 -0.63312721368E+03  0.72838161000E+03  0.17313753384E+03 0.  0.
        -24    2    3    3    0    0  0.40341969954E+02  0.14119917958E+03 -0.25362323994E+03  0.30314742723E+03  0.77517300937E+02 0.  0.
          6    2    1    2  501    0 -0.20417623401E+03 -0.24088412344E+03 -0.47430860057E+03  0.59544072777E+03  0.17282336721E+03 0.  0.
         24    2    5    5    0    0 -0.18405760540E+03 -0.25577780888E+03 -0.39004641558E+03  0.50741353366E+03  0.77671089965E+02 0.  0.
          5    1    5    5  501    0 -0.20118628608E+02  0.14893685440E+02 -0.84262184993E+02  0.88027194110E+02  0.47000000000E+01 0. -1.
        -13    1    6    6    0    0 -0.10043292977E+02 -0.67197595964E+02 -0.80454748795E+02  0.10530598863E+03  0.00000000000E+00 0.  1.
         14    1    6    6    0    0 -0.17401431242E+03 -0.18858021291E+03 -0.30959166678E+03  0.40210754503E+03  0.00000000000E+00 0. -1.
         -5    1    3    3    0  503  0.16383426405E+03  0.99684943854E+02 -0.37950397374E+03  0.42523418276E+03  0.47000000000E+01 0.  1.
         11    1    4    4    0    0  0.44279516977E+02  0.27264261428E+02 -0.82924477852E+02  0.97879949949E+02  0.00000000000E+00 0. -1.
        -12    1    4    4    0    0 -0.39375470233E+01  0.11393491815E+03 -0.17069876209E+03  0.20526747729E+03  0.00000000000E+00 0.  1.
</event>
<event>
12    1  0.1061634E+000  0.1758605E+03  0.7818608E-02  0.1171990E+00
         21   -1    0    0  501  502  0.00000000000E+00  0.00000000000E+00  0.74576082076E+02  0.74576082076E+02  0.00000000000E+00 0.  1.
         21   -1    0    0  502  503 -0.00000000000E+00 -0.00000000000E+00 -0.42680009574E+03  0.42680009574E+03  0.00000000000E+00 0.  1.
         -6    2    1    2    0  503  0.13271743747E+02 -0.30155026116E+02 -0.13221962758E+03  0.22002034860E+03  0.17274680633E+03 0.  0.
        -24    2    3    3    0    0  0.10898377536E+02 -0.79819146882E+02 -0.12589866904E+03  0.16967948771E+03  0.80316765617E+02 0.  0.
          6    2    1    2  501    0 -0.13271743747E+02  0.30155026116E+02 -0.22000438608E+03  0.28135582922E+03  0.17226058155E+03 0.  0.
         24    2    5    5    0    0 -0.61403246392E+02  0.44024224801E+02 -0.90581995900E+02  0.14249891978E+03  0.79952192713E+02 0.  0.
          5    1    5    5  501    0  0.48131502645E+02 -0.13869198685E+02 -0.12942239018E+03  0.13885690944E+03  0.47000000000E+01 0. -1.
        -11    1    6    6    0    0 -0.58572048944E+02  0.22330743025E+02 -0.10052513104E+03  0.11846792381E+03  0.00000000000E+00 0.  1.
         12    1    6    6    0    0 -0.28311974480E+01  0.21693481775E+02  0.99431351426E+01  0.24030995963E+02  0.00000000000E+00 0. -1.
         -5    1    3    3    0  503  0.23733662113E+01  0.49664120766E+02 -0.63209585384E+01  0.50340860893E+02  0.47000000000E+01 0.  1.
         13    1    4    4    0    0 -0.13883929227E+02 -0.48174154160E+02 -0.11868979038E+03  0.12884401018E+03  0.00000000000E+00 0. -1.
        -14    1    4    4    0    0  0.24782306763E+02 -0.31644992722E+02 -0.72088786638E+01  0.40835477522E+02  0.00000000000E+00 0.  1.
</event>
<event>
12    1  0.1061634E+000  0.2136854E+03  0.7818608E-02  0.1138889E+00
         21   -1    0    0  503  502  0.00000000000E+00  0.00000000000E+00  0.18949500151E+03  0.18949500151E+03  0.00000000000E+00 0.  1.
         21   -1    0    0  501  503 -0.00000000000E+00 -0.00000000000E+00 -0.28895410030E+03  0.28895410030E+03  0.00000000000E+00 0.  1.
          6    2    1    2  501    0 -0.88488270313E+02 -0.89752549631E+02  0.49088086587E+02  0.21820364851E+03  0.17122353176E+03 0.  0.
         24    2    3    3    0    0 -0.78161528268E+02 -0.85866711534E+02  0.95433675371E+02  0.17033147560E+03  0.80143050451E+02 0.  0.
         -6    2    1    2    0  502  0.88488270313E+02  0.89752549631E+02 -0.14854718538E+03  0.26024545331E+03  0.17255647057E+03 0.  0.
        -24    2    5    5    0    0  0.11096367675E+03  0.86726215684E+02 -0.16460849847E+03  0.23206108938E+03  0.83198662187E+02 0.  0.
          5    1    3    3  501    0 -0.10326742045E+02 -0.38858380965E+01 -0.46345588784E+02  0.47872172906E+02  0.47000000000E+01 0. -1.
        -13    1    4    4    0    0  0.40418131426E+01 -0.37692615641E+02  0.37322565635E+01  0.38091984280E+02  0.00000000000E+00 0.  1.
         14    1    4    4    0    0 -0.82203341411E+02 -0.48174095894E+02  0.91701418808E+02  0.13223949132E+03  0.00000000000E+00 0. -1.
         -5    1    5    5    0  502 -0.22475406440E+02  0.30263339468E+01  0.16061313093E+02  0.28184363929E+02  0.47000000000E+01 0.  1.
         11    1    6    6    0    0  0.40318396196E+01  0.49852992530E+02 -0.58554918084E+02  0.77008149093E+02  0.00000000000E+00 0. -1.
        -12    1    6    6    0    0  0.10693183713E+03  0.36873223154E+02 -0.10605358038E+03  0.15505294028E+03  0.00000000000E+00 0.  1.
</event>
<event>
12    1  0.1061634E+000  0.1958412E+03  0.7818608E-02  0.1155260E+00
         21   -1    0    0  501  502  0.00000000000E+00  0.00000000000E+00  0.71757742892E+03  0.71757742892E+03  0.00000000000E+00 0.  1.
         21   -1    0    0  502  503 -0.00000000000E+00 -0.00000000000E+00 -0.53381936288E+02  0.53381936288E+02  0.00000000000E+00 0.  1.
         -6    2    1    2    0  503  0.70419776265E+02 -0.58712676799E+02  0.40506874592E+03  0.44615106168E+03  0.16298453180E+03 0.  0.
        -24    2    3    3    0    0  0.59318422738E+02  0.23895129772E+02  0.22603804806E+03  0.24861278555E+03  0.81396962272E+02 0.  0.
          6    2    1    2  501    0 -0.70419776265E+02  0.58712676799E+02  0.25912674671E+03  0.32480830353E+03  0.17305386409E+03 0.  0.
         24    2    5    5    0    0 -0.24182093108E+02  0.97665498792E+02  0.14746620215E+03  0.19774370226E+03  0.85046856059E+02 0.  0.
          5    1    5    5  501    0 -0.46237683157E+02 -0.38952821993E+02  0.11166054456E+03  0.12706460127E+03  0.47000000000E+01 0. -1.
        -13    1    6    6    0    0 -0.31405151198E+02  0.28613722421E+01  0.15622184764E+02  0.35192664430E+02  0.00000000000E+00 0.  1.
         14    1    6    6    0    0  0.72230580904E+01  0.94804126550E+02  0.13184401738E+03  0.16255103783E+03  0.00000000000E+00 0. -1.
         -5    1    3    3    0  503  0.11101353527E+02 -0.82607806570E+02  0.17903069786E+03  0.19753827612E+03  0.47000000000E+01 0.  1.
         11    1    4    4    0    0  0.63839704468E+02 -0.29761948772E+01  0.93189437241E+02  0.11299839298E+03  0.00000000000E+00 0. -1.
        -12    1    4    4    0    0 -0.45212817304E+01  0.26871324649E+02  0.13284861082E+03  0.13561439257E+03  0.00000000000E+00 0.  1.
</event>
<event>
12    1  0.1061634E+000  0.4278161E+03  0.7818608E-02  0.1034614E+00
         21   -1    0    0  503  502  0.00000000000E+00  0.00000000000E+00  0.57229848503E+03  0.57229848503E+03  0.00000000000E+00 0. -1.
         21   -1    0    0  501  503 -0.00000000000E+00 -0.00000000000E+00 -0.32279351649E+03  0.32279351649E+03  0.00000000000E+00 0. -1.
          6    2    1    2  501    0 -0.36505118912E+03 -0.14042421573E+03  0.17165238211E+03  0.46024990787E+03  0.17141792897E+03 0.  0.
         24    2    3    3    0    0 -0.31071129764E+03 -0.60607608871E+02  0.15705757276E+03  0.36248174845E+03  0.80691660446E+02 0.  0.
         -6    2    1    2    0  502  0.36505118912E+03  0.14042421573E+03  0.77852586431E+02  0.43484209364E+03  0.17333577285E+03 0.  0.
        -24    2    5    5    0    0  0.23750815511E+03  0.11609369910E+03  0.11559723332E+03  0.29954261865E+03  0.80468561090E+02 0.  0.
          5    1    3    3  501    0 -0.54339891481E+02 -0.79816606863E+02  0.14594809354E+02  0.97768159425E+02  0.47000000000E+01 0. -1.
        -11    1    4    4    0    0 -0.23037558553E+03 -0.45262144621E+02  0.74612991623E+02  0.24635070664E+03  0.00000000000E+00 0.  1.
         12    1    4    4    0    0 -0.80335712111E+02 -0.15345464250E+02  0.82444581137E+02  0.11613104181E+03  0.00000000000E+00 0. -1.
         -5    1    5    5    0  502  0.12754303401E+03  0.24330516637E+02 -0.37744646890E+02  0.13529947499E+03  0.47000000000E+01 0.  1.
         11    1    6    6    0    0  0.23646608580E+03  0.94585437172E+02  0.10413554070E+03  0.27514873341E+03  0.00000000000E+00 0. -1.
        -12    1    6    6    0    0  0.10420693065E+01  0.21508261924E+02  0.11461692625E+02  0.24393885243E+02  0.00000000000E+00 0.  1.
</event>
<event>
12    1  0.1061634E+000  0.2418825E+03  0.7818608E-02  0.1118897E+00
         21   -1    0    0  503  502  0.00000000000E+00  0.00000000000E+00  0.11288349757E+04  0.11288349757E+04  0.00000000000E+00 0. -1.
         21   -1    0    0  501  503 -0.00000000000E+00 -0.00000000000E+00 -0.73300105629E+02  0.73300105629E+02  0.00000000000E+00 0. -1.
          6    2    1    2  501    0 -0.16452768951E+03 -0.38887177100E+02  0.85812449758E+03  0.89156312676E+03  0.17299012254E+03 0.  0.
         24    2    3    3    0    0 -0.16518090449E+03 -0.60564176124E+02  0.84292445383E+03  0.86466609521E+03  0.78568891352E+02 0.  0.
         -6    2    1    2    0  502  0.16452768951E+03  0.38887177100E+02  0.19741037247E+03  0.31057195455E+03  0.17000738405E+03 0.  0.
        -24    2    5    5    0    0  0.16853507303E+03  0.20137770696E+02  0.21434608398E+03  0.28456219316E+03  0.78878370956E+02 0.  0.
          5    1    3    3  501    0  0.65321498149E+00  0.21676999025E+02  0.15200043741E+02  0.26897031551E+02  0.47000000000E+01 0. -1.
        -11    1    4    4    0    0 -0.12976131066E+03 -0.10066116776E+02  0.60844351314E+03  0.62220803044E+03  0.00000000000E+00 0.  1.
         12    1    4    4    0    0 -0.35419593830E+02 -0.50498059349E+02  0.23448094069E+03  0.24245806477E+03  0.00000000000E+00 0. -1.
         -5    1    5    5    0  502 -0.40073835155E+01  0.18749406404E+02 -0.16935711514E+02  0.26009761391E+02  0.47000000000E+01 0.  1.
         11    1    6    6    0    0  0.11050923409E+03 -0.25102498228E+02  0.13729085484E+03  0.17802023778E+03  0.00000000000E+00 0. -1.
        -12    1    6    6    0    0  0.58025838939E+02  0.45240268924E+02  0.77055229142E+02  0.10654195537E+03  0.00000000000E+00 0.  1.
</event>
<event>
12    1  0.1061634E+000  0.1876660E+03  0.7818608E-02  0.1161044E+00
         21   -1    0    0  501  502  0.00000000000E+00  0.00000000000E+00  0.32943319005E+02  0.32943319005E+02  0.00000000000E+00 0. -1.
         21   -1    0    0  502  503 -0.00000000000E+00 -0.00000000000E+00 -0.10614190023E+04  0.10614190023E+04  0.00000000000E+00 0. -1.
         -6    2    1    2    0  503 -0.33098551869E+02  0.63350735537E+02 -0.48459119220E+03  0.51966061847E+03  0.17352148282E+03 0.  0.
        -24    2    3    3    0    0 -0.76815751915E+02  0.50817765212E+01 -0.23282056232E+03  0.25752133253E+03  0.78646921565E+02 0.  0.
          6    2    1    2  501    0  0.33098551869E+02 -0.63350735537E+02 -0.54388449105E+03  0.57470170280E+03  0.17135599715E+03 0.  0.
         24    2    5    5    0    0 -0.74077220811E+01  0.17609501004E+02 -0.16164869379E+03  0.18186380640E+03  0.81112113796E+02 0.  0.
          5    1    5    5  501    0  0.40506273950E+02 -0.80960236541E+02 -0.38223579727E+03  0.39283789639E+03  0.47000000000E+01 0. -1.
        -11    1    6    6    0    0 -0.42059923206E+02  0.27587789838E+01 -0.58990484006E+02  0.72501897939E+02  0.00000000000E+00 0.  1.
         12    1    6    6    0    0  0.34652201125E+02  0.14850722020E+02 -0.10265820978E+03  0.10936190846E+03  0.00000000000E+00 0. -1.
         -5    1    3    3    0  503  0.43717200046E+02  0.58268959015E+02 -0.25177062988E+03  0.26213928594E+03  0.47000000000E+01 0.  1.
         11    1    4    4    0    0 -0.33332746437E+02 -0.30955706950E+02 -0.57435702457E+02  0.73267917225E+02  0.00000000000E+00 0. -1.
        -12    1    4    4    0    0 -0.43483005477E+02  0.36037483471E+02 -0.17538485987E+03  0.18425341530E+03  0.00000000000E+00 0.  1.
</event>
<event>
12    1  0.1061634E+000  0.1995453E+03  0.7818608E-02  0.1150805E+00
         21   -1    0    0  503  502  0.00000000000E+00  0.00000000000E+00  0.51900751571E+03  0.51900751571E+03  0.00000000000E+00 0.  1.
         21   -1    0    0  501  503 -0.00000000000E+00 -0.00000000000E+00 -0.80093713551E+02  0.80093713551E+02  0.00000000000E+00 0.  1.
          6    2    1    2  501    0  0.23141738334E+02 -0.98057655330E+02  0.14602409724E+03  0.24469650890E+03  0.16853041468E+03 0.  0.
         24    2    3    3    0    0  0.12821185694E+02 -0.35103040758E+02  0.16176434233E+03  0.17882054501E+03  0.66426490170E+02 0.  0.
         -6    2    1    2    0  502 -0.23141738334E+02  0.98057655330E+02  0.29288970492E+03  0.35440472036E+03  0.17224251143E+03 0.  0.
        -24    2    5    5    0    0 -0.62414766062E+02  0.11855132386E+03  0.23255546049E+03  0.27940690568E+03  0.77692710884E+02 0.  0.
          5    1    3    3  501    0  0.10320552640E+02 -0.62954614572E+02 -0.15740245090E+02  0.65875963888E+02  0.47000000000E+01 0. -1.
        -13    1    4    4    0    0  0.17865549193E+02  0.14536307480E+02  0.77924704127E+02  0.81257255654E+02  0.00000000000E+00 0.  1.
         14    1    4    4    0    0 -0.50443634991E+01 -0.49639348238E+02  0.83839638203E+02  0.97563289360E+02  0.00000000000E+00 0. -1.
         -5    1    5    5    0  502  0.39273027728E+02 -0.20493668528E+02  0.60334244429E+02  0.74997814684E+02  0.47000000000E+01 0.  1.
         13    1    6    6    0    0 -0.38553262352E+02  0.10379954086E+03  0.22433546193E+03  0.25017413576E+03  0.00000000000E+00 0. -1.
        -14    1    6    6    0    0 -0.23861503710E+02  0.14751782995E+02  0.82199985574E+01  0.29232769919E+02  0.00000000000E+00 0.  1.
</event>
<event>
12    1  0.1061634E+000  0.1952979E+03  0.7818608E-02  0.1153835E+00
         21   -1    0    0  501  502  0.00000000000E+00  0.00000000000E+00  0.70562243698E+02  0.70562243698E+02  0.00000000000E+00 0. -1.
         21   -1    0    0  502  503 -0.00000000000E+00 -0.00000000000E+00 -0.66612964808E+03  0.66612964808E+03  0.00000000000E+00 0. -1.
         -6    2    1    2    0  503  0.53134641450E+02  0.76411435853E+02 -0.45845428049E+03  0.49831878629E+03  0.17169533429E+03 0.  0.
        -24    2    3    3    0    0 -0.15895337085E+02 -0.12142639664E+02 -0.18220876806E+03  0.20008962044E+03  0.80222912001E+02 0.  0.
          6    2    1    2  501    0 -0.53134641450E+02 -0.76411435853E+02 -0.13711312389E+03  0.23837310549E+03  0.17134681504E+03 0.  0.
         24    2    5    5    0    0 -0.86946871005E+02 -0.86564790483E+02 -0.13990496260E+03  0.20264857832E+03  0.80248529006E+02 0.  0.
          5    1    5    5  501    0  0.33812229555E+02  0.10153354630E+02  0.27918387080E+01  0.35724527164E+02  0.47000000000E+01 0. -1.
        -13    1    6    6    0    0  0.15540706954E+02 -0.14729479584E+02 -0.18851612668E+02  0.28528134212E+02  0.00000000000E+00 0.  1.
         14    1    6    6    0    0 -0.10248757796E+03 -0.71835310899E+02 -0.12105334993E+03  0.17412044411E+03  0.00000000000E+00 0. -1.
         -5    1    3    3    0  503  0.69029978535E+02  0.88554075517E+02 -0.27624551243E+03  0.29822916585E+03  0.47000000000E+01 0.  1.
         11    1    4    4    0    0  0.61638325026E+01 -0.24050553000E+02 -0.17071722027E+03  0.17251316248E+03  0.00000000000E+00 0. -1.
        -12    1    4    4    0    0 -0.22059169587E+02  0.11907913337E+02 -0.11491547784E+02  0.27576457956E+02  0.00000000000E+00 0.  1.
</event>
<event>
12    1  0.1061634E+000  0.2040955E+03  0.7818608E-02  0.1146943E+00
         21   -1    0    0  501  502  0.00000000000E+00  0.00000000000E+00  0.11223744402E+03  0.11223744402E+03  0.00000000000E+00 0.  1.
         21   -1    0    0  502  503 -0.00000000000E+00 -0.00000000000E+00 -0.36606267167E+03  0.36606267167E+03  0.00000000000E+00 0.  1.
         -6    2    1    2    0  503  0.10261010233E+03 -0.28877952371E+02 -0.13472316220E+03  0.24455120232E+03  0.17404651932E+03 0.  0.
        -24    2    3    3    0    0  0.30600721369E+02  0.17631221232E+02 -0.13338732330E+03  0.15868893679E+03  0.78375611849E+02 0.  0.
          6    2    1    2  501    0 -0.10261010233E+03  0.28877952371E+02 -0.11910206545E+03  0.23374891337E+03  0.17055932480E+03 0.  0.
         24    2    5    5    0    0  0.29536511390E+01  0.35756987129E+02 -0.25271183731E+02  0.92266223517E+02  0.81161179706E+02 0.  0.
          5    1    5    5  501    0 -0.10556375347E+03 -0.68790347579E+01 -0.93830881716E+02  0.14148268986E+03  0.47000000000E+01 0. -1.
        -11    1    6    6    0    0 -0.36600705162E+02  0.25416226905E+02 -0.69716805462E+00  0.44565482738E+02  0.00000000000E+00 0.  1.
         12    1    6    6    0    0  0.39554356301E+02  0.10340760225E+02 -0.24574015676E+02  0.47700740779E+02  0.00000000000E+00 0. -1.
         -5    1    3    3    0  503  0.72009380958E+02 -0.46509173603E+02 -0.13358389002E+01  0.85862265523E+02  0.47000000000E+01 0.  1.
         11    1    4    4    0    0  0.51120077270E+02 -0.93280644075E+01 -0.76589078418E+02  0.92553562971E+02  0.00000000000E+00 0. -1.
        -12    1    4    4    0    0 -0.20519355901E+02  0.26959285639E+02 -0.56798244882E+02  0.66135373821E+02  0.00000000000E+00 0.  1.
</event>
<event>
12    1  0.1061634E+000  0.3971206E+03  0.7818608E-02  0.1044848E+00
         21   -1    0    0  503  502  0.00000000000E+00  0.00000000000E+00  0.11696592279E+04  0.11696592279E+04  0.00000000000E+00 0.  1.
         21   -1    0    0  501  503 -0.00000000000E+00 -0.00000000000E+00 -0.39606614057E+03  0.39606614057E+03  0.00000000000E+00 0.  1.
          6    2    1    2  501    0  0.88288492129E+02  0.34657958624E+03  0.10227816621E+04  0.10968973681E+04  0.17084858891E+03 0.  0.
         24    2    3    3    0    0 -0.10501166524E+02  0.88676184104E+02  0.23835359688E+03  0.26525859975E+03  0.74672267066E+02 0.  0.
         -6    2    1    2    0  502 -0.88288492129E+02 -0.34657958624E+03 -0.24918857480E+03  0.46882800036E+03  0.17260498448E+03 0.  0.
        -24    2    5    5    0    0  0.27025717730E+00 -0.26465456155E+03 -0.17145259806E+03  0.32523366263E+03  0.79616781740E+02 0.  0.
          5    1    3    3  501    0  0.98789658653E+02  0.25790340214E+03  0.78442806521E+03  0.83163876833E+03  0.47000000000E+01 0. -1.
        -11    1    4    4    0    0  0.56921866655E+01 -0.34170761444E+01 -0.23405511070E+01  0.70395722808E+01  0.00000000000E+00 0.  1.
         12    1    4    4    0    0 -0.16193353190E+02  0.92093260248E+02  0.24069414799E+03  0.25821902747E+03  0.00000000000E+00 0. -1.
         -5    1    5    5    0  502 -0.88558749306E+02 -0.81925024687E+02 -0.77735976741E+02  0.14359433773E+03  0.47000000000E+01 0.  1.
         13    1    6    6    0    0  0.44365222569E+01 -0.24346116944E+02 -0.50350025832E+02  0.56102952161E+02  0.00000000000E+00 0. -1.
        -14    1    6    6    0    0 -0.41662650796E+01 -0.24030844461E+03 -0.12110257222E+03  0.26913071046E+03  0.00000000000E+00 0.  1.
</event>
<event>
12    1  0.1061634E+000  0.1775855E+03  0.7818608E-02  0.1170447E+00
         21   -1    0    0  503  502  0.00000000000E+00  0.00000000000E+00  0.78790422247E+02  0.78790422247E+02  0.00000000000E+00 0. -1.
         21   -1    0    0  501  503 -0.00000000000E+00 -0.00000000000E+00 -0.40449419867E+03  0.40449419867E+03  0.00000000000E+00 0. -1.
          6    2    1    2  501    0  0.79935650406E+01  0.39327738438E+02 -0.13089732584E+03  0.21968235806E+03  0.17180122363E+03 0.  0.
         24    2    3    3    0    0  0.63151924105E+02  0.47937873055E+02 -0.50178911416E+02  0.12142691842E+03  0.77073783971E+02 0.  0.
         -6    2    1    2    0  502 -0.79935650406E+01 -0.39327738438E+02 -0.19480645059E+03  0.26360226286E+03  0.17299142088E+03 0.  0.
        -24    2    5    5    0    0  0.56013029399E+01  0.30606381662E+02 -0.43467259797E+02  0.96266545629E+02  0.80060726576E+02 0.  0.
          5    1    3    3  501    0 -0.55158359064E+02 -0.86101346175E+01 -0.80718414419E+02  0.98255439642E+02  0.47000000000E+01 0. -1.
        -13    1    4    4    0    0  0.16397822774E+02  0.26820887138E+02  0.17905497691E+02  0.36178107001E+02  0.00000000000E+00 0.  1.
         14    1    4    4    0    0  0.46754101331E+02  0.21116985917E+02 -0.68084409107E+02  0.85248811422E+02  0.00000000000E+00 0. -1.
         -5    1    5    5    0  502 -0.13594867981E+02 -0.69934120100E+02 -0.15133919079E+03  0.16733571723E+03  0.47000000000E+01 0.  1.
         11    1    6    6    0    0  0.17460657869E+02  0.26447310179E+02 -0.64443098247E+02  0.71813979841E+02  0.00000000000E+00 0. -1.
        -12    1    6    6    0    0 -0.11859354929E+02  0.41590714833E+01  0.20975838450E+02  0.24452565788E+02  0.00000000000E+00 0.  1.
</event>
<event>
12    1  0.1061634E+000  0.1820229E+03  0.7818608E-02  0.1166131E+00
         21   -1    0    0  503  502  0.00000000000E+00  0.00000000000E+00  0.25447797995E+03  0.25447797995E+03  0.00000000000E+00 0. -1.
         21   -1    0    0  501  503 -0.00000000000E+00 -0.00000000000E+00 -0.13272542291E+03  0.13272542291E+03  0.00000000000E+00 0. -1.
          6    2    1    2  501    0  0.49089265635E+02  0.35375872197E+02  0.30357287438E+02  0.18453699380E+03  0.17167157262E+03 0.  0.
         24    2    3    3    0    0  0.61091703755E+02  0.27848765998E+02 -0.43868171555E+02  0.10882553752E+03  0.73558351711E+02 0.  0.
         -6    2    1    2    0  502 -0.49089265635E+02 -0.35375872197E+02  0.91395269603E+02  0.20266640906E+03  0.17046809004E+03 0.  0.
        -24    2    5    5    0    0 -0.34375653117E+02  0.45904836009E+02  0.37900446777E+02  0.10414316313E+03  0.78233081646E+02 0.  0.
          5    1    3    3  501    0 -0.12002438119E+02  0.75271061995E+01  0.74225458993E+02  0.75711456275E+02  0.47000000000E+01 0. -1.
        -11    1    4    4    0    0 -0.12432291594E+02 -0.73898949082E+01  0.30163051032E+01  0.14773981099E+02  0.00000000000E+00 0.  1.
         12    1    4    4    0    0  0.73523995348E+02  0.35238660906E+02 -0.46884476658E+02  0.94051556425E+02  0.00000000000E+00 0. -1.
         -5    1    5    5    0  502 -0.14713612519E+02 -0.81280708206E+02  0.53494822826E+02  0.98523245932E+02  0.47000000000E+01 0.  1.
         11    1    6    6    0    0 -0.41762774642E+02 -0.51772777123E+01  0.37385586415E+01  0.42248199618E+02  0.00000000000E+00 0. -1.
        -12    1    6    6    0    0  0.73871215251E+01  0.51082113721E+02  0.34161888136E+02  0.61894963508E+02  0.00000000000E+00 0.  1.
</event>
<event>
12    1  0.1061634E+000  0.2341721E+03  0.7818608E-02  0.1123823E+00
         21   -1    0    0  501  502  0.00000000000E+00  0.00000000000E+00  0.41087277399E+03  0.41087277399E+03  0.00000000000E+00 0. -1.
         21   -1    0    0  502  503 -0.00000000000E+00 -0.00000000000E+00 -0.30542065187E+03  0.30542065187E+03  0.00000000000E+00 0. -1.
         -6    2    1    2    0  503 -0.99705364714E+02  0.12322081827E+03  0.32165704498E+03  0.39757548426E+03  0.17169298558E+03 0.  0.
        -24    2    3    3    0    0 -0.18842323378E+02 -0.22112668257E+00  0.16148286764E+03  0.17973471142E+03  0.76633986596E+02 0.  0.
          6    2    1    2  501    0  0.99705364714E+02 -0.12322081827E+03 -0.21620492285E+03  0.31871794160E+03  0.17237177212E+03 0.  0.
         24    2    5    5    0    0 -0.14029884336E+02 -0.31248475303E+02 -0.98209743378E+02  0.13072972089E+03  0.79194705411E+02 0.  0.
          5    1    5    5  501    0  0.11373524905E+03 -0.91972342966E+02 -0.11799517947E+03  0.18798822071E+03  0.47000000000E+01 0. -1.
        -13    1    6    6    0    0 -0.55587752751E+00  0.26257699511E+02 -0.21662193448E+02  0.34044476915E+02  0.00000000000E+00 0.  1.
         14    1    6    6    0    0 -0.13474006809E+02 -0.57506174815E+02 -0.76547549930E+02  0.96685243970E+02  0.00000000000E+00 0. -1.
         -5    1    3    3    0  503 -0.80863041337E+02  0.12344194495E+03  0.16017417734E+03  0.21784077284E+03  0.47000000000E+01 0.  1.
         11    1    4    4    0    0 -0.42131265261E+02 -0.21538528699E+02  0.94545246900E+02  0.10572490455E+03  0.00000000000E+00 0. -1.
        -12    1    4    4    0    0  0.23288941884E+02  0.21317402016E+02  0.66937620737E+02  0.74009806868E+02  0.00000000000E+00 0.  1.
</event>
<event>
12    1  0.1061634E+000  0.2284972E+03  0.7818608E-02  0.1128979E+00
         21   -1    0    0  503  502  0.00000000000E+00  0.00000000000E+00  0.17319236789E+03  0.17319236789E+03  0.00000000000E+00 0. -1.
         21   -1    0    0  501  503 -0.00000000000E+00 -0.00000000000E+00 -0.53304627855E+03  0.53304627855E+03  0.00000000000E+00 0. -1.
          6    2    1    2  501    0 -0.13950927161E+03 -0.62874758816E+01  0.58970963585E+02  0.22913777549E+03  0.17182600616E+03 0.  0.
         24    2    3    3    0    0 -0.12800006079E+03 -0.13604769025E+02 -0.16304796202E+02  0.15249226209E+03  0.80118277032E+02 0.  0.
         -6    2    1    2    0  502  0.13950927161E+03  0.62874758816E+01 -0.41882487424E+03  0.47710087095E+03  0.18085518117E+03 0.  0.
        -24    2    5    5    0    0  0.12392892362E+03  0.47898174065E+02 -0.19683096623E+03  0.25065533082E+03  0.80206311567E+02 0.  0.
          5    1    3    3  501    0 -0.11509210814E+02  0.73172931434E+01  0.75275759788E+02  0.76645513399E+02  0.47000000000E+01 0. -1.
        -11    1    4    4    0    0 -0.12834519335E+03 -0.14751569321E+02  0.67880620676E+01  0.12936837032E+03  0.00000000000E+00 0.  1.
         12    1    4    4    0    0  0.34513255465E+00  0.11468002957E+01 -0.23092858270E+02  0.23123891768E+02  0.00000000000E+00 0. -1.
         -5    1    5    5    0  502  0.15580347991E+02 -0.41610698184E+02 -0.22199390802E+03  0.22644554013E+03  0.47000000000E+01 0.  1.
         11    1    6    6    0    0  0.24304235205E+01  0.21701785487E+02 -0.55357499206E+01  0.22528181884E+02  0.00000000000E+00 0. -1.
        -12    1    6    6    0    0  0.12149850010E+03  0.26196388578E+02 -0.19129521631E+03  0.22812714894E+03  0.00000000000E+00 0.  1.
</event>
<event>
12    1  0.1061634E+000  0.1839835E+03  0.7818608E-02  0.1164105E+00
         21   -1    0    0  501  502  0.00000000000E+00  0.00000000000E+00  0.14167621405E+04  0.14167621405E+04  0.00000000000E+00 0.  1.
         21   -1    0    0  502  503 -0.00000000000E+00 -0.00000000000E+00 -0.34562067427E+02  0.34562067427E+02  0.00000000000E+00 0.  1.
         -6    2    1    2    0  503  0.47264686166E+02 -0.44934248079E+02  0.28740883985E+03  0.34125324715E+03  0.17203749665E+03 0.  0.
        -24    2    3    3    0    0 -0.25076053534E+02 -0.45245038505E+02  0.89748580486E+02  0.13071833949E+03  0.79728003919E+02 0.  0.
          6    2    1    2  501    0 -0.47264686166E+02  0.44934248079E+02  0.10947912333E+04  0.11100709608E+04  0.17157114099E+03 0.  0.
         24    2    5    5    0    0 -0.44912348079E+02 -0.93146040133E+00  0.28862388985E+03  0.30258283565E+03  0.78959711300E+02 0.  0.
          5    1    5    5  501    0 -0.23523380871E+01  0.45865708481E+02  0.80616734341E+03  0.80748812517E+03  0.47000000000E+01 0. -1.
        -11    1    6    6    0    0 -0.48199633636E+02 -0.38132759653E+01  0.29266352078E+03  0.29663054825E+03  0.00000000000E+00 0.  1.
         12    1    6    6    0    0  0.32872855565E+01  0.28818155639E+01 -0.40396309310E+01  0.59522874035E+01  0.00000000000E+00 0. -1.
         -5    1    3    3    0  503  0.72340739700E+02  0.31079042614E+00  0.19766025937E+03  0.21053490766E+03  0.47000000000E+01 0.  1.
         13    1    4    4    0    0 -0.81754425425E+00 -0.20466554962E+02  0.93612692686E+02  0.95827368129E+02  0.00000000000E+00 0. -1.
        -14    1    4    4    0    0 -0.24258509279E+02 -0.24778483543E+02 -0.38641122008E+01  0.34890971357E+02  0.00000000000E+00 0.  1.
</event>
<event>
12    1  0.1061634E+000  0.1962602E+03  0.7818608E-02  0.1153023E+00
         21   -1    0    0  501  502  0.00000000000E+00  0.00000000000E+00  0.21188090660E+03  0.21188090660E+03  0.00000000000E+00 0.  1.
         21   -1    0    0  502  503 -0.00000000000E+00 -0.00000000000E+00 -0.19833706025E+03  0.19833706025E+03  0.00000000000E+00 0.  1.
         -6    2    1    2    0  503 -0.36945667067E+02  0.86711652910E+02  0.66690729228E+02  0.20688903316E+03  0.17167272821E+03 0.  0.
        -24    2    3    3    0    0 -0.89994620961E+01 -0.15245399933E+02 -0.43125408139E+01  0.79453616754E+02  0.77336063191E+02 0.  0.
          6    2    1    2  501    0  0.36945667067E+02 -0.86711652910E+02 -0.53146882873E+02  0.20332893369E+03  0.17214578430E+03 0.  0.
         24    2    5    5    0    0  0.30369850513E+02  0.90448649152E+01 -0.62566819872E+02  0.10677129659E+03  0.80506927813E+02 0.  0.
          5    1    5    5  501    0  0.65758165542E+01 -0.95756517826E+02  0.94199369991E+01  0.96557637101E+02  0.47000000000E+01 0. -1.
        -13    1    6    6    0    0  0.36543206633E+02  0.13599309408E+02  0.45150627586E+01  0.39252171394E+02  0.00000000000E+00 0.  1.
         14    1    6    6    0    0 -0.61733561204E+01 -0.45544444927E+01 -0.67081882631E+02  0.67519125200E+02  0.00000000000E+00 0. -1.
         -5    1    3    3    0  503 -0.27946204971E+02  0.10195705284E+03  0.71003270042E+02  0.12743541640E+03  0.47000000000E+01 0.  1.
         13    1    4    4    0    0 -0.17878034771E+02  0.16296338751E+02 -0.29481145929E+02  0.38135714878E+02  0.00000000000E+00 0. -1.
        -14    1    4    4    0    0  0.88785726752E+01 -0.31541738684E+02  0.25168605115E+02  0.41317901875E+02  0.00000000000E+00 0.  1.
</event>
<event>
12    1  0.1061634E+000  0.1738454E+03  0.7818608E-02  0.1174220E+00
         21   -1    0    0  501  502  0.00000000000E+00  0.00000000000E+00  0.36891564897E+02  0.36891564897E+02  0.00000000000E+00 0.  1.
         21   -1    0    0  502  503 -0.00000000000E+00 -0.00000000000E+00 -0.82526777664E+03  0.82526777664E+03  0.00000000000E+00 0.  1.
         -6    2    1    2    0  503  0.19539960435E+02  0.88511030680E+01 -0.44771149802E+03  0.48027888570E+03  0.17251687023E+03 0.  0.
        -24    2    3    3    0    0  0.69005479522E+02  0.17696349003E+02 -0.19844823037E+03  0.22595754851E+03  0.81241594133E+02 0.  0.
          6    2    1    2  501    0 -0.19539960435E+02 -0.88511030680E+01 -0.34066471372E+03  0.38188045583E+03  0.17123108156E+03 0.  0.
         24    2    5    5    0    0 -0.70779197882E+01 -0.65054961754E+02 -0.14088573376E+03  0.17391914447E+03  0.78210190125E+02 0.  0.
          5    1    5    5  501    0 -0.12462040647E+02  0.56203858686E+02 -0.19977897997E+03  0.20796131136E+03  0.47000000000E+01 0. -1.
        -11    1    6    6    0    0  0.22152044272E+02  0.47499599455E+01 -0.54800371252E+02  0.59298869081E+02  0.00000000000E+00 0.  1.
         12    1    6    6    0    0 -0.29229964061E+02 -0.69804921700E+02 -0.86085362505E+02  0.11462027539E+03  0.00000000000E+00 0. -1.
         -5    1    3    3    0  503 -0.49465519087E+02 -0.88452459354E+01 -0.24926326765E+03  0.25432133720E+03  0.47000000000E+01 0.  1.
         13    1    4    4    0    0  0.30185066935E+02  0.30053732127E+02 -0.17244177606E+03  0.17762469201E+03  0.00000000000E+00 0. -1.
        -14    1    4    4    0    0  0.38820412587E+02 -0.12357383124E+02 -0.26006454307E+02  0.48332856493E+02  0.00000000000E+00 0.  1.
</event>
<event>
12    1  0.1061634E+000  0.2712563E+03  0.7818608E-02  0.1100879E+00
         21   -1    0    0  501  502  0.00000000000E+00  0.00000000000E+00  0.13700013008E+03  0.13700013008E+03  0.00000000000E+00 0. -1.
         21   -1    0    0  502  503 -0.00000000000E+00 -0.00000000000E+00 -0.55737460363E+03  0.55737460363E+03  0.00000000000E+00 0. -1.
         -6    2    1    2    0  503 -0.20013871763E+03 -0.59784975905E+02 -0.28404651720E+03  0.39276254199E+03  0.17306137876E+03 0.  0.
        -24    2    3    3    0    0 -0.14355591991E+03  0.27327186505E+02 -0.16811338537E+03  0.23702968453E+03  0.81030140955E+02 0.  0.
          6    2    1    2  501    0  0.20013871763E+03  0.59784975905E+02 -0.13632795635E+03  0.30161219173E+03  0.16957255933E+03 0.  0.
         24    2    5    5    0    0  0.31673875589E+02  0.12906017211E+02 -0.77414539567E+02  0.11702909270E+03  0.80826962864E+02 0.  0.
          5    1    5    5  501    0  0.16846484204E+03  0.46878958693E+02 -0.58913416786E+02  0.18458309903E+03  0.47000000000E+01 0. -1.
        -11    1    6    6    0    0  0.50827718328E+02 -0.15744558026E+02 -0.44353020650E+02  0.69271484022E+02  0.00000000000E+00 0.  1.
         12    1    6    6    0    0 -0.19153842739E+02  0.28650575238E+02 -0.33061518917E+02  0.47757608673E+02  0.00000000000E+00 0. -1.
         -5    1    3    3    0  503 -0.56582797720E+02 -0.87112162410E+02 -0.11593313182E+03  0.15573285746E+03  0.47000000000E+01 0.  1.
         11    1    4    4    0    0 -0.27041867122E+02  0.41050821284E+02 -0.59199849179E+02  0.76948389511E+02  0.00000000000E+00 0. -1.
        -12    1    4    4    0    0 -0.11651405279E+03 -0.13723634779E+02 -0.10891353619E+03  0.16008129502E+03  0.00000000000E+00 0.  1.
</event>
<event>
12    1  0.1061634E+000  0.2733909E+03  0.7818608E-02  0.1099565E+00
         21   -1    0    0  503  502  0.00000000000E+00  0.00000000000E+00  0.34980690576E+03  0.34980690576E+03  0.00000000000E+00 0.  1.
         21   -1    0    0  501  503 -0.00000000000E+00 -0.00000000000E+00 -0.26287649272E+03  0.26287649272E+03  0.00000000000E+00 0.  1.
          6    2    1    2  501    0 -0.43060426076E+01  0.21174198610E+03  0.17765828886E+03  0.32604455453E+03  0.17288543391E+03 0.  0.
         24    2    3    3    0    0  0.18906259384E+01  0.30455831243E+02  0.11441960780E+02  0.79969309202E+02  0.73027664790E+02 0.  0.
         -6    2    1    2    0  502  0.43060426076E+01 -0.21174198610E+03 -0.90727875823E+02  0.28663884395E+03  0.17051999511E+03 0.  0.
        -24    2    5    5    0    0 -0.50858203853E+02 -0.14107589971E+03 -0.97907606758E+02  0.19658092710E+03  0.81050570994E+02 0.  0.
          5    1    3    3  501    0 -0.61966685460E+01  0.18128615485E+03  0.16621632808E+03  0.24607524533E+03  0.47000000000E+01 0. -1.
        -13    1    4    4    0    0  0.28987009167E+01  0.31587687394E+02 -0.26904012148E+02  0.41593392883E+02  0.00000000000E+00 0.  1.
         14    1    4    4    0    0 -0.10080749782E+01 -0.11318561509E+01  0.38345972928E+02  0.38375916319E+02  0.00000000000E+00 0. -1.
         -5    1    5    5    0  502  0.55164246460E+02 -0.70666086386E+02  0.71797309349E+01  0.90057916858E+02  0.47000000000E+01 0.  1.
         13    1    6    6    0    0  0.85820192030E+01 -0.94323630244E+02 -0.50650508604E+02  0.10740610922E+03  0.00000000000E+00 0. -1.
        -14    1    6    6    0    0 -0.59440223056E+02 -0.46752269467E+02 -0.47257098154E+02  0.89174817875E+02  0.00000000000E+00 0.  1.
</event>
<event>
12    1  0.1061634E+000  0.3446838E+03  0.7818608E-02  0.1064830E+00
         21   -1    0    0  503  502  0.00000000000E+00  0.00000000000E+00  0.19426319797E+04  0.19426319797E+04  0.00000000000E+00 0.  1.
         21   -1    0    0  501  503 -0.00000000000E+00 -0.00000000000E+00 -0.74222855879E+02  0.74222855879E+02  0.00000000000E+00 0.  1.
          6    2    1    2  501    0 -0.20450673112E+03 -0.21752111443E+03  0.13577175097E+04  0.14007868245E+04  0.17224532852E+03 0.  0.
         24    2    3    3    0    0 -0.17742919288E+03 -0.13528407908E+03  0.11716965407E+04  0.11955503414E+04  0.81761451271E+02 0.  0.
         -6    2    1    2    0  502  0.20450673112E+03  0.21752111443E+03  0.51069161414E+03  0.61606801111E+03  0.17203322723E+03 0.  0.
        -24    2    5    5    0    0  0.10532395294E+03  0.13934378689E+03  0.41573467036E+03  0.45799262024E+03  0.80075577080E+02 0.  0.
          5    1    3    3  501    0 -0.27077538236E+02 -0.82237035352E+02  0.18602096904E+03  0.20523648307E+03  0.47000000000E+01 0. -1.
        -11    1    4    4    0    0 -0.70455429402E+02 -0.68505223041E+02  0.71653937932E+03  0.72324657983E+03  0.00000000000E+00 0.  1.
         12    1    4    4    0    0 -0.10697376348E+03 -0.66778856040E+02  0.45515716136E+03  0.47230376160E+03  0.00000000000E+00 0. -1.
         -5    1    5    5    0  502  0.99182778179E+02  0.78177327544E+02  0.94956943773E+02  0.15807539087E+03  0.47000000000E+01 0.  1.
         11    1    6    6    0    0  0.88870472787E+02  0.64303960821E+02  0.18815416209E+03  0.21779565887E+03  0.00000000000E+00 0. -1.
        -12    1    6    6    0    0  0.16453480151E+02  0.75039826068E+02  0.22758050827E+03  0.24019696137E+03  0.00000000000E+00 0.  1.
</event>
<event>
12    1  0.1061634E+000  0.1973927E+03  0.7818608E-02  0.1152050E+00
         21   -1    0    0  503  502  0.00000000000E+00  0.00000000000E+00  0.91709427021E+02  0.91709427021E+02  0.00000000000E+00 0. -1.
         21   -1    0    0  501  503 -0.00000000000E+00 -0.00000000000E+00 -0.47114933542E+03  0.47114933542E+03  0.00000000000E+00 0. -1.
          6    2    1    2  501    0  0.91755907004E+02  0.34045637216E+02 -0.10044382900E+03  0.22109468718E+03  0.17092584951E+03 0.  0.
         24    2    3    3    0    0  0.51591776514E+02 -0.46436801188E+02 -0.65157918089E+02  0.12435914160E+03  0.80009711293E+02 0.  0.
         -6    2    1    2    0  502 -0.91755907004E+02 -0.34045637216E+02 -0.27899607940E+03  0.34176407527E+03  0.17142234084E+03 0.  0.
        -24    2    5    5    0    0  0.18859852467E+02 -0.19654893537E+01 -0.10786527366E+03  0.13543224349E+03  0.79670685524E+02 0.  0.
          5    1    3    3  501    0  0.40164130490E+02  0.80482438403E+02 -0.35285910910E+02  0.96735545577E+02  0.47000000000E+01 0. -1.
        -11    1    4    4    0    0 -0.83650562116E+01 -0.42698112357E+02 -0.40433992231E+02  0.59397059624E+02  0.00000000000E+00 0.  1.
         12    1    4    4    0    0  0.59956832726E+02 -0.37386888309E+01 -0.24723925858E+02  0.64962081975E+02  0.00000000000E+00 0. -1.
         -5    1    5    5    0  502 -0.11061575947E+03 -0.32080147862E+02 -0.17113080574E+03  0.20633183178E+03  0.47000000000E+01 0.  1.
         11    1    6    6    0    0 -0.24868124830E+02  0.18146125890E+02 -0.25234549861E+02  0.39805628045E+02  0.00000000000E+00 0. -1.
        -12    1    6    6    0    0  0.43727977297E+02 -0.20111615244E+02 -0.82630723799E+02  0.95626615447E+02  0.00000000000E+00 0.  1.
</event>
<event>
12    1  0.1061634E+000  0.2167006E+03  0.7818608E-02  0.1137101E+00
         21   -1    0    0  503  502  0.00000000000E+00  0.00000000000E+00  0.10146987033E+03  0.10146987033E+03  0.00000000000E+00 0. -1.
         21   -1    0    0  501  503 -0.00000000000E+00 -0.00000000000E+00 -0.52105147924E+03  0.52105147924E+03  0.00000000000E+00 0. -1.
          6    2    1    2  501    0  0.69109794225E+02  0.11230361507E+03 -0.10031222891E+03  0.23879217555E+03  0.17196189757E+03 0.  0.
         24    2    3    3    0    0 -0.28321409115E+01  0.40640110240E+02  0.78842414453E+01  0.90333877854E+02  0.80239694930E+02 0.  0.
         -6    2    1    2    0  502 -0.69109794225E+02 -0.11230361507E+03 -0.31926938000E+03  0.38372917403E+03  0.16711336385E+03 0.  0.
        -24    2    5    5    0    0 -0.74507124879E+02 -0.76542608330E+02 -0.32060585313E+03  0.34723455878E+03  0.79835100078E+02 0.  0.
          5    1    3    3  501    0  0.71941935136E+02  0.71663504834E+02 -0.10819647036E+03  0.14845829770E+03  0.47000000000E+01 0. -1.
        -11    1    4    4    0    0  0.38209159554E+02  0.16740448813E+02  0.96155584380E+01  0.42809361878E+02  0.00000000000E+00 0.  1.
         12    1    4    4    0    0 -0.41041300466E+02  0.23899661427E+02 -0.17313169927E+01  0.47524515976E+02  0.00000000000E+00 0. -1.
         -5    1    5    5    0  502  0.53973306545E+01 -0.35761006744E+02  0.13364731279E+01  0.36494615246E+02  0.47000000000E+01 0.  1.
         11    1    6    6    0    0 -0.71010924291E+02 -0.54986142193E+02 -0.14702767013E+03  0.17228802334E+03  0.00000000000E+00 0. -1.
        -12    1    6    6    0    0 -0.34962005884E+01 -0.21556466137E+02 -0.17357818299E+03  0.17494653544E+03  0.00000000000E+00 0.  1.
</event>
<event>
12    1  0.1061634E+000  0.2222486E+03  0.7818608E-02  0.1133617E+00
         21   -1    0    0  503  502  0.00000000000E+00  0.00000000000E+00  0.70541810420E+03  0.70541810420E+03  0.00000000000E+00 0. -1.
         21   -1    0    0  501  503 -0.00000000000E+00 -0.00000000000E+00 -0.13794122010E+03  0.13794122010E+03  0.00000000000E+00 0. -1.
          6    2    1    2  501    0  0.12557953112E+03  0.68054948472E+02 -0.19553222325E+02  0.21566608341E+03  0.16039899121E+03 0.  0.
         24    2    3    3    0    0  0.68612583043E+02  0.92994780821E+02 -0.37909178487E+02  0.15065639538E+03  0.88907411639E+02 0.  0.
         -6    2    1    2    0  502 -0.12557953112E+03 -0.68054948472E+02  0.58703010642E+03  0.62769324089E+03  0.17027261720E+03 0.  0.
        -24    2    5    5    0    0 -0.29356453923E+02 -0.51978809895E+02  0.12555337173E+03  0.15599398344E+03  0.70759279621E+02 0.  0.
          5    1    3    3  501    0  0.56966948078E+02 -0.24939832349E+02  0.18355956161E+02  0.65009688028E+02  0.47000000000E+01 0. -1.
        -13    1    4    4    0    0  0.80296227942E+02  0.10234906821E+03 -0.29146361345E+02  0.13331288896E+03  0.00000000000E+00 0.  1.
         14    1    4    4    0    0 -0.11683644899E+02 -0.93542873858E+01 -0.87628171412E+01  0.17343506418E+02  0.00000000000E+00 0. -1.
         -5    1    5    5    0  502 -0.96223077198E+02 -0.16076138577E+02  0.46147673469E+03  0.47169925745E+03  0.47000000000E+01 0.  1.
         13    1    6    6    0    0  0.16860796147E+02 -0.18787902729E+02  0.99281528090E+01  0.27126370083E+02  0.00000000000E+00 0. -1.
        -14    1    6    6    0    0 -0.46217250070E+02 -0.33190907165E+02  0.11562521892E+03  0.12886761336E+03  0.00000000000E+00 0.  1.
</event>
<event>
12    1  0.1061634E+000  0.2035142E+03  0.7818608E-02  0.1146935E+00
         21   -1    0    0  503  502  0.00000000000E+00  0.00000000000E+00  0.34073666853E+03  0.34073666853E+03  0.00000000000E+00 0.  1.
         21   -1    0    0  501  503 -0.00000000000E+00 -0.00000000000E+00 -0.16896439605E+03  0.16896439605E+03  0.00000000000E+00 0.  1.
          6    2    1    2  501    0  0.89829052002E+02 -0.58325708052E+02  0.22131177296E+03  0.30024419083E+03  0.17232680137E+03 0.  0.
         24    2    3    3    0    0 -0.13066593500E+02  0.62200843022E+01  0.10410677197E+03  0.13138692735E+03  0.78834506358E+02 0.  0.
         -6    2    1    2    0  502 -0.89829052002E+02  0.58325708052E+02 -0.49539500479E+02  0.20945687376E+03  0.17305164851E+03 0.  0.
        -24    2    5    5    0    0  0.18555410345E+02  0.26380841243E+02 -0.43040638785E+02  0.96178493660E+02  0.79734271289E+02 0.  0.
          5    1    3    3  501    0  0.10289564550E+03 -0.64545792355E+02  0.11720500099E+03  0.16885726348E+03  0.47000000000E+01 0. -1.
        -13    1    4    4    0    0  0.21243697087E+02  0.30480928558E+02  0.59137798027E+02  0.69840252199E+02  0.00000000000E+00 0.  1.
         14    1    4    4    0    0 -0.34310290586E+02 -0.24260844255E+02  0.44968973943E+02  0.61546675147E+02  0.00000000000E+00 0. -1.
         -5    1    5    5    0  502 -0.10838446235E+03  0.31944866809E+02 -0.64988616943E+01  0.11327838010E+03  0.47000000000E+01 0.  1.
         13    1    6    6    0    0  0.32979297848E+02  0.47743243245E+02 -0.39419345620E+02  0.70149384682E+02  0.00000000000E+00 0. -1.
        -14    1    6    6    0    0 -0.14423887503E+02 -0.21362402002E+02 -0.36212931642E+01  0.26029108978E+02  0.00000000000E+00 0.  1.
</event>
<event>
12    1  0.1061634E+000  0.2152085E+03  0.7818608E-02  0.1137562E+00
         21   -1    0    0  501  502  0.00000000000E+00  0.00000000000E+00  0.32233678735E+03  0.32233678735E+03  0.00000000000E+00 0.  1.
         21   -1    0    0  502  503 -0.00000000000E+00 -0.00000000000E+00 -0.21357490542E+03  0.21357490542E+03  0.00000000000E+00 0.  1.
         -6    2    1    2    0  503 -0.78125721072E+02 -0.10067094765E+03  0.20785220929E+03  0.29898638038E+03  0.17306659628E+03 0.  0.
        -24    2    3    3    0    0 -0.88004324542E+02 -0.25948498835E+02  0.18481949212E+03  0.22003305730E+03  0.76408218853E+02 0.  0.
          6    2    1    2  501    0  0.78125721072E+02  0.10067094765E+03 -0.99090327364E+02  0.23692531240E+03  0.17342561138E+03 0.  0.
         24    2    5    5    0    0  0.75935791111E+02  0.10933849895E+03 -0.13133813481E+03  0.20313280844E+03  0.79322635414E+02 0.  0.
          5    1    5    5  501    0  0.21899299611E+01 -0.86675512922E+01  0.32247807442E+02  0.33792503953E+02  0.47000000000E+01 0. -1.
        -11    1    6    6    0    0 -0.14051597917E+02  0.34915404529E+02 -0.24902777578E+02  0.45129604569E+02  0.00000000000E+00 0.  1.
         12    1    6    6    0    0  0.89987389029E+02  0.74423094417E+02 -0.10643535723E+03  0.15800320388E+03  0.00000000000E+00 0. -1.
         -5    1    3    3    0  503  0.98786034699E+01 -0.74722448819E+02  0.23032717170E+02  0.78953323073E+02  0.47000000000E+01 0.  1.
         11    1    4    4    0    0 -0.32738361799E+02 -0.29907604215E+02  0.14545978187E+03  0.15206844928E+03  0.00000000000E+00 0. -1.
        -12    1    4    4    0    0 -0.55265962743E+02  0.39591053807E+01  0.39359710251E+02  0.67964608028E+02  0.00000000000E+00 0.  1.
</event>
<event>
12    1  0.1061634E+000  0.3624519E+03  0.7818608E-02  0.1057949E+00
         21   -1    0    0  501  502  0.00000000000E+00  0.00000000000E+00  0.66549113398E+03  0.66549113398E+03  0.00000000000E+00 0.  1.
         21   -1    0    0  502  503 -0.00000000000E+00 -0.00000000000E+00 -0.21497078117E+03  0.21497078117E+03  0.00000000000E+00 0.  1.
         -6    2    1    2    0  503 -0.11786958807E+03 -0.29622741394E+03  0.35844124574E+03  0.50975630511E+03  0.17241648235E+03 0.  0.
        -24    2    3    3    0    0 -0.57305428437E+02 -0.28307399122E+03  0.28172095067E+03  0.41101865456E+03  0.78452811999E+02 0.  0.
          6    2    1    2  501    0  0.11786958807E+03  0.29622741394E+03  0.92079107071E+02  0.37070561005E+03  0.16522762117E+03 0.  0.
         24    2    5    5    0    0  0.86840716821E+02  0.11198009842E+03  0.98764408644E+02  0.18368516361E+03  0.62489826172E+02 0.  0.
          5    1    5    5  501    0  0.31028871250E+02  0.18424731552E+03 -0.66853015726E+01  0.18702044644E+03  0.47000000000E+01 0. -1.
        -13    1    6    6    0    0  0.95544087564E+01  0.21742374829E+02  0.49813784610E+02  0.55185421327E+02  0.00000000000E+00 0.  1.
         14    1    6    6    0    0  0.77286308065E+02  0.90237723589E+02  0.48950624034E+02  0.12849974228E+03  0.00000000000E+00 0. -1.
         -5    1    3    3    0  503 -0.60564159634E+02 -0.13153422721E+02  0.76720295066E+02  0.98737650552E+02  0.47000000000E+01 0.  1.
         11    1    4    4    0    0  0.15793858656E-01 -0.55890058441E+02  0.99790388012E+02  0.11437578599E+03  0.00000000000E+00 0. -1.
        -12    1    4    4    0    0 -0.57321222296E+02 -0.22718393278E+03  0.18193056266E+03  0.29664286856E+03  0.00000000000E+00 0.  1.
</event>
<event>
12    1  0.1061634E+000  0.2054688E+03  0.7818608E-02  0.1145690E+00
         21   -1    0    0  503  502  0.00000000000E+00  0.00000000000E+00  0.38279121475E+03  0.38279121475E+03  0.00000000000E+00 0. -1.
         21   -1    0    0  501  503 -0.00000000000E+00 -0.00000000000E+00 -0.10911064833E+03  0.10911064833E+03  0.00000000000E+00 0. -1.
          6    2    1    2  501    0 -0.80144316065E+02  0.73203610688E+02  0.13062168293E+03  0.24347372713E+03  0.17445787955E+03 0.  0.
         24    2    3    3    0    0 -0.12479285007E+02  0.56243010544E+02  0.13882914723E+03  0.17307720125E+03  0.85808954560E+02 0.  0.
         -6    2    1    2    0  502  0.80144316065E+02 -0.73203610688E+02  0.14305888350E+03  0.24842813595E+03  0.17166483207E+03 0.  0.
        -24    2    5    5    0    0  0.52362106204E+01 -0.76902111347E+02  0.34455205772E+02  0.11636091071E+03  0.80070891744E+02 0.  0.
          5    1    3    3  501    0 -0.67665031059E+02  0.16960600144E+02 -0.82074643023E+01  0.70396525878E+02  0.47000000000E+01 0. -1.
        -11    1    4    4    0    0  0.76474794674E+01  0.46272683461E+02  0.18092536210E+02  0.50269126145E+02  0.00000000000E+00 0.  1.
         12    1    4    4    0    0 -0.20126764474E+02  0.99703270830E+01  0.12073661102E+03  0.12280807511E+03  0.00000000000E+00 0. -1.
         -5    1    5    5    0  502  0.74908105445E+02  0.36985006593E+01  0.10860367772E+03  0.13206722524E+03  0.47000000000E+01 0.  1.
         13    1    6    6    0    0 -0.32874972749E+02 -0.28497603198E+02  0.33222446425E+02  0.54741283943E+02  0.00000000000E+00 0. -1.
        -14    1    6    6    0    0  0.38111183370E+02 -0.48404508149E+02  0.12327593467E+01  0.61619626764E+02  0.00000000000E+00 0.  1.
</event>
<event>
12    1  0.1061634E+000  0.1829706E+03  0.7818608E-02  0.1165595E+00
         21   -1    0    0  501  502  0.00000000000E+00  0.00000000000E+00  0.37269580237E+03  0.37269580237E+03  0.00000000000E+00 0.  1.
         21   -1    0    0  502  503 -0.00000000000E+00 -0.00000000000E+00 -0.88856155261E+02  0.88856155261E+02  0.00000000000E+00 0.  1.
         -6    2    1    2    0  503  0.25128307289E+02  0.49798297288E+02  0.15500258513E+03  0.23777250354E+03  0.17146037385E+03 0.  0.
        -24    2    3    3    0    0 -0.14444176520E+02  0.54966360908E+02  0.23469551735E+02  0.10023807428E+03  0.79163859240E+02 0.  0.
          6    2    1    2  501    0 -0.25128307289E+02 -0.49798297288E+02  0.12883706198E+03  0.22377945410E+03  0.17426116405E+03 0.  0.
         24    2    5    5    0    0  0.35104548723E+02  0.82212104400E+01  0.40502275676E+02  0.10204455897E+03  0.86445011646E+02 0.  0.
          5    1    5    5  501    0 -0.60232856012E+02 -0.58019507728E+02  0.88334786303E+02  0.12173489513E+03  0.47000000000E+01 0. -1.
        -13    1    6    6    0    0 -0.17925311150E+02 -0.33684157773E+00 -0.16038677783E+02  0.24055548780E+02  0.00000000000E+00 0.  1.
         14    1    6    6    0    0  0.53029859873E+02  0.85580520177E+01  0.56540953459E+02  0.77989010191E+02  0.00000000000E+00 0. -1.
         -5    1    3    3    0  503  0.39572483809E+02 -0.51680636192E+01  0.13153303340E+03  0.13753442926E+03  0.47000000000E+01 0.  1.
         11    1    4    4    0    0 -0.42921125107E+02  0.11339239685E+02  0.38223361640E+01  0.44557957660E+02  0.00000000000E+00 0. -1.
        -12    1    4    4    0    0  0.28476948587E+02  0.43627121223E+02  0.19647215571E+02  0.55680116619E+02  0.00000000000E+00 0.  1.
</event>
<event>
12    1  0.1061634E+000  0.2684835E+03  0.7818608E-02  0.1102246E+00
         21   -1    0    0  501  502  0.00000000000E+00  0.00000000000E+00  0.13697224906E+03  0.13697224906E+03  0.00000000000E+00 0. -1.
         21   -1    0    0  502  503 -0.00000000000E+00 -0.00000000000E+00 -0.53479877409E+03  0.53479877409E+03  0.00000000000E+00 0. -1.
         -6    2    1    2    0  503  0.15479676174E+03  0.13635608748E+03 -0.24470698342E+03  0.36326974101E+03  0.17183822904E+03 0.  0.
        -24    2    3    3    0    0  0.85402066195E+01  0.30029127469E+02 -0.94467036054E+02  0.12813034804E+03  0.80738352488E+02 0.  0.
          6    2    1    2  501    0 -0.15479676174E+03 -0.13635608748E+03 -0.15311954160E+03  0.30850128214E+03  0.17079937653E+03 0.  0.
         24    2    5    5    0    0 -0.17559587696E+03 -0.83432868397E+02 -0.12610780298E+03  0.24537288651E+03  0.80682835375E+02 0.  0.
          5    1    5    5  501    0  0.20799115220E+02 -0.52923219079E+02 -0.27011738615E+02  0.63128395629E+02  0.47000000000E+01 0. -1.
        -11    1    6    6    0    0 -0.13983484696E+03 -0.97942329328E+02 -0.92355773284E+02  0.19410325385E+03  0.00000000000E+00 0.  1.
         12    1    6    6    0    0 -0.35761030004E+02  0.14509460931E+02 -0.33752029701E+02  0.51269632653E+02  0.00000000000E+00 0. -1.
         -5    1    3    3    0  503  0.14625655512E+03  0.10632696001E+03 -0.15023994737E+03  0.23513939297E+03  0.47000000000E+01 0.  1.
         13    1    4    4    0    0 -0.47372861609E+01  0.48411776069E+01 -0.99058061969E+02  0.99289367617E+02  0.00000000000E+00 0. -1.
        -14    1    4    4    0    0  0.13277492780E+02  0.25187949862E+02  0.45910259154E+01  0.28840980423E+02  0.00000000000E+00 0.  1.
</event>
<event>
12    1  0.1061634E+000  0.1870873E+03  0.7818608E-02  0.1161408E+00
         21   -1    0    0  503  502  0.00000000000E+00  0.00000000000E+00  0.43531609952E+03  0.43531609952E+03  0.00000000000E+00 0.  1.
         21   -1    0    0  501  503 -0.00000000000E+00 -0.00000000000E+00 -0.81636334520E+02  0.81636334520E+02  0.00000000000E+00 0.  1.
          6    2    1    2  501    0  0.72748247932E+02  0.13707455477E+02  0.21437954791E+03  0.28370105354E+03  0.17043325762E+03 0.  0.
         24    2    3    3    0    0  0.10534103255E+03 -0.54152135095E+01  0.10873682612E+03  0.17140483478E+03  0.80186422525E+02 0.  0.
         -6    2    1    2    0  502 -0.72748247932E+02 -0.13707455477E+02  0.13930021709E+03  0.23325138050E+03  0.17181808436E+03 0.  0.
        -24    2    5    5    0    0 -0.72537141361E+02 -0.39117343793E+02  0.30498157340E+02  0.12142255955E+03  0.83794372746E+02 0.  0.
          5    1    3    3  501    0 -0.32592784619E+02  0.19122668986E+02  0.10564272179E+03  0.11229621875E+03  0.47000000000E+01 0. -1.
        -11    1    4    4    0    0 -0.17673010174E+01 -0.96586347412E+01  0.46351529813E+02  0.47380131849E+02  0.00000000000E+00 0.  1.
         12    1    4    4    0    0  0.10710833357E+03  0.42434212317E+01  0.62385296303E+02  0.12402470294E+03  0.00000000000E+00 0. -1.
         -5    1    5    5    0  502 -0.21110657069E+00  0.25409888317E+02  0.10880205975E+03  0.11182882095E+03  0.47000000000E+01 0.  1.
         11    1    6    6    0    0 -0.31810375060E+01 -0.45428715018E+02  0.36773434308E+00  0.45541435818E+02  0.00000000000E+00 0. -1.
        -12    1    6    6    0    0 -0.69356103855E+02  0.63113712247E+01  0.30130422997E+02  0.75881123731E+02  0.00000000000E+00 0.  1.
</event>
<event>
12    1  0.1061634E+000  0.2412820E+03  0.7818608E-02  0.1119176E+00
         21   -1    0    0  503  502  0.00000000000E+00  0.00000000000E+00  0.46364074867E+02  0.46364074867E+02  0.00000000000E+00 0.  1.
         21   -1    0    0  501  503 -0.00000000000E+00 -0.00000000000E+00 -0.15845937284E+04  0.15845937284E+04  0.00000000000E+00 0.  1.
          6    2    1    2  501    0  0.12632597908E+03 -0.11058853850E+03 -0.39167480515E+03  0.45929018768E+03  0.17131913399E+03 0.  0.
         24    2    3    3    0    0  0.10111897386E+03 -0.11433546881E+03 -0.40047055275E+03  0.43192437370E+03  0.53706188398E+02 0.  0.
         -6    2    1    2    0  502 -0.12632597908E+03  0.11058853850E+03 -0.11465548484E+04  0.11716676156E+04  0.17328849710E+03 0.  0.
        -24    2    5    5    0    0 -0.11244194541E+03  0.10495311113E+03 -0.11424025895E+04  0.11554239804E+04  0.79136282381E+02 0.  0.
          5    1    3    3  501    0  0.25207005213E+02  0.37469303072E+01  0.87957476067E+01  0.27365813975E+02  0.47000000000E+01 0. -1.
        -13    1    4    4    0    0  0.45462556749E+02 -0.15083537794E+02 -0.11124631712E+03  0.12112018928E+03  0.00000000000E+00 0.  1.
         14    1    4    4    0    0  0.55656417115E+02 -0.99251931018E+02 -0.28922423564E+03  0.31080418443E+03  0.00000000000E+00 0. -1.
         -5    1    5    5    0  502 -0.13884033663E+02  0.56354273754E+01 -0.41522588734E+01  0.16243635252E+02  0.47000000000E+01 0.  1.
         11    1    6    6    0    0  0.73442496688E+01  0.31024771875E+02 -0.24013401635E+03  0.24224124397E+03  0.00000000000E+00 0. -1.
        -12    1    6    6    0    0 -0.11978619508E+03  0.73928339254E+02 -0.90226857320E+03  0.91318273640E+03  0.00000000000E+00 0.  1.
</event>
<event>
12    1  0.1061634E+000  0.2933017E+03  0.7818608E-02  0.1088739E+00
         21   -1    0    0  501  502  0.00000000000E+00  0.00000000000E+00  0.29923128246E+03  0.29923128246E+03  0.00000000000E+00 0. -1.
         21   -1    0    0  502  503 -0.00000000000E+00 -0.00000000000E+00 -0.28683303811E+03  0.28683303811E+03  0.00000000000E+00 0. -1.
         -6    2    1    2    0  503  0.13053958996E+03 -0.19815090573E+03  0.43409633883E+00  0.29251872797E+03  0.17106329760E+03 0.  0.
        -24    2    3    3    0    0 -0.50403830171E+01  0.12951306183E+01  0.10925965202E+02  0.51079667753E+02  0.49625325368E+02 0.  0.
          6    2    1    2  501    0 -0.13053958996E+03  0.19815090573E+03  0.11964148014E+02  0.29354559260E+03  0.17239926946E+03 0.  0.
         24    2    5    5    0    0 -0.83745318414E+00  0.68755549059E+02  0.24978258182E+02  0.10981410462E+03  0.81897480658E+02 0.  0.
          5    1    5    5  501    0 -0.12970213677E+03  0.12939535667E+03 -0.13014110168E+02  0.18373148798E+03  0.47000000000E+01 0. -1.
        -13    1    6    6    0    0  0.80520263119E+01  0.80549382157E+02  0.38635905519E+02  0.89698223443E+02  0.00000000000E+00 0.  1.
         14    1    6    6    0    0 -0.88894794961E+01 -0.11793833098E+02 -0.13657647337E+02  0.20115881180E+02  0.00000000000E+00 0. -1.
         -5    1    3    3    0  503  0.13557997297E+03 -0.19944603635E+03 -0.10491868864E+02  0.24143906022E+03  0.47000000000E+01 0.  1.
         13    1    4    4    0    0 -0.77391931348E+01 -0.22919813138E+02 -0.43762289159E+00  0.24195132950E+02  0.00000000000E+00 0. -1.
        -14    1    4    4    0    0  0.26988101177E+01  0.24214943757E+02  0.11363588094E+02  0.26884534803E+02  0.00000000000E+00 0.  1.
</event>
<event>
12    1  0.1061634E+000  0.1990776E+03  0.7818608E-02  0.1150553E+00
         21   -1    0    0  501  502  0.00000000000E+00  0.00000000000E+00  0.76034637089E+02  0.76034637089E+02  0.00000000000E+00 0. -1.
         21   -1    0    0  502  503 -0.00000000000E+00 -0.00000000000E+00 -0.59275705502E+03  0.59275705502E+03  0.00000000000E+00 0. -1.
         -6    2    1    2    0  503  0.17839267849E+02  0.98421562427E+02 -0.37476413649E+03  0.42428396737E+03  0.17194093040E+03 0.  0.
        -24    2    3    3    0    0  0.53861645530E+02  0.22310185956E+01 -0.18429204827E+03  0.20783088052E+03  0.79523968345E+02 0.  0.
          6    2    1    2  501    0 -0.17839267849E+02 -0.98421562427E+02 -0.14195828144E+03  0.24450772473E+03  0.17212446182E+03 0.  0.
         24    2    5    5    0    0 -0.70040243888E+02 -0.36432308437E+02 -0.11716927390E+03  0.15963019882E+03  0.74298134344E+02 0.  0.
          5    1    5    5  501    0  0.52200976039E+02 -0.61989253991E+02 -0.24789007535E+02  0.84877525908E+02  0.47000000000E+01 0. -1.
        -11    1    6    6    0    0 -0.45896392491E+02 -0.16132357131E+02 -0.12384766341E+02  0.50200739313E+02  0.00000000000E+00 0.  1.
         12    1    6    6    0    0 -0.24143851397E+02 -0.20299951306E+02 -0.10478450756E+03  0.10942945951E+03  0.00000000000E+00 0. -1.
         -5    1    3    3    0  503 -0.36022377681E+02  0.96190543832E+02 -0.19047208822E+03  0.21645308685E+03  0.47000000000E+01 0.  1.
         11    1    4    4    0    0  0.53125965476E+02  0.33042601243E+02 -0.98693748377E+02  0.11685306018E+03  0.00000000000E+00 0. -1.
        -12    1    4    4    0    0  0.73568005455E+00 -0.30811582647E+02 -0.85598299891E+02  0.90977820344E+02  0.00000000000E+00 0.  1.
</event>
<event>
12    1  0.1061634E+000  0.6097680E+03  0.7818608E-02  0.9885494E-01
         21   -1    0    0  501  502  0.00000000000E+00  0.00000000000E+00  0.22814141295E+03  0.22814141295E+03  0.00000000000E+00 0.  1.
         21   -1    0    0  502  503 -0.00000000000E+00 -0.00000000000E+00 -0.20157243694E+04  0.20157243694E+04  0.00000000000E+00 0.  1.
         -6    2    1    2    0  503  0.52558008851E+03  0.25678158304E+03 -0.40218950378E+03  0.73021720657E+03  0.17114193232E+03 0.  0.
        -24    2    3    3    0    0  0.52797197668E+03  0.23437103625E+03 -0.37040330297E+03  0.69096919645E+03  0.80966862328E+02 0.  0.
          6    2    1    2  501    0 -0.52558008851E+03 -0.25678158304E+03 -0.13853934527E+04  0.15136485758E+04  0.17217950351E+03 0.  0.
         24    2    5    5    0    0 -0.16924607066E+03 -0.67628235309E+02 -0.57937434541E+03  0.61229303410E+03  0.77526233318E+02 0.  0.
          5    1    5    5  501    0 -0.35633401785E+03 -0.18915334773E+03 -0.80601910732E+03  0.90135554172E+03  0.47000000000E+01 0. -1.
        -11    1    6    6    0    0 -0.21461908920E+02 -0.14194995562E+02 -0.24262682645E+02  0.35366498309E+02  0.00000000000E+00 0.  1.
         12    1    6    6    0    0 -0.14778416174E+03 -0.53433239747E+02 -0.55511166276E+03  0.57692653580E+03  0.00000000000E+00 0. -1.
         -5    1    3    3    0  503 -0.23918881771E+01  0.22410546788E+02 -0.31786200813E+02  0.39248010121E+02  0.47000000000E+01 0.  1.
         13    1    4    4    0    0  0.96722652038E+02  0.53975448255E+02 -0.36945039766E+02  0.11676282112E+03  0.00000000000E+00 0. -1.
        -14    1    4    4    0    0  0.43124932465E+03  0.18039558800E+03 -0.33345826320E+03  0.57420637533E+03  0.00000000000E+00 0.  1.
</event>
<event>
12    1  0.1061634E+000  0.1809581E+03  0.7818608E-02  0.1167601E+00
         21   -1    0    0  503  502  0.00000000000E+00  0.00000000000E+00  0.16411686558E+03  0.16411686558E+03  0.00000000000E+00 0.  1.
         21   -1    0    0  501  503 -0.00000000000E+00 -0.00000000000E+00 -0.19882171139E+03  0.19882171139E+03  0.00000000000E+00 0.  1.
          6    2    1    2  501    0  0.49316849160E+02  0.21297292321E+02 -0.38111777351E+02  0.18492788800E+03  0.17280072313E+03 0.  0.
         24    2    3    3    0    0  0.36728177668E+02  0.14318518354E+02 -0.93857850601E+02  0.12716204498E+03  0.76203087619E+02 0.  0.
         -6    2    1    2    0  502 -0.49316849160E+02 -0.21297292321E+02  0.34069315450E+01  0.17801068897E+03  0.16967755283E+03 0.  0.
        -24    2    5    5    0    0 -0.65673554447E+01  0.40345069872E+02  0.32286159024E+02  0.97491127312E+02  0.82409156164E+02 0.  0.
          5    1    3    3  501    0  0.12588671492E+02  0.69787739662E+01  0.55746073250E+02  0.57765843012E+02  0.47000000000E+01 0. -1.
        -11    1    4    4    0    0 -0.78058580460E+01 -0.29731280346E+01 -0.75535201052E+02  0.75995641376E+02  0.00000000000E+00 0.  1.
         12    1    4    4    0    0  0.44534035714E+02  0.17291646389E+02 -0.18322649549E+02  0.51166403609E+02  0.00000000000E+00 0. -1.
         -5    1    5    5    0  502 -0.42749493715E+02 -0.61642362193E+02 -0.28879227479E+02  0.80519561657E+02  0.47000000000E+01 0.  1.
         11    1    6    6    0    0 -0.33353667911E+02  0.42944537887E+02 -0.13766831581E+01  0.54392975226E+02  0.00000000000E+00 0. -1.
        -12    1    6    6    0    0  0.26786312466E+02 -0.25994680146E+01  0.33662842182E+02  0.43098152086E+02  0.00000000000E+00 0.  1.
</event>
<event>
12    1  0.1061634E+000  0.2195436E+03  0.7818608E-02  0.1134407E+00
         21   -1    0    0  501  502  0.00000000000E+00  0.00000000000E+00  0.11657508226E+04  0.11657508226E+04  0.00000000000E+00 0. -1.
         21   -1    0    0  502  503 -0.00000000000E+00 -0.00000000000E+00 -0.96163279947E+02  0.96163279947E+02  0.00000000000E+00 0. -1.
         -6    2    1    2    0  503 -0.11995253528E+03  0.63847086014E+02  0.10114604316E+04  0.10348058694E+04  0.17118972356E+03 0.  0.
        -24    2    3    3    0    0  0.53618282705E+01  0.17651629702E+02  0.27681997139E+03  0.28810887213E+03  0.77698754200E+02 0.  0.
          6    2    1    2  501    0  0.11995253528E+03 -0.63847086014E+02  0.58127111070E+02  0.22710823321E+03  0.17243644463E+03 0.  0.
         24    2    5    5    0    0  0.13330412759E+03 -0.30032865806E+01  0.30468435713E+02  0.15879040779E+03  0.80666336654E+02 0.  0.
          5    1    5    5  501    0 -0.13351592312E+02 -0.60843799434E+02  0.27658675357E+02  0.68317825414E+02  0.47000000000E+01 0. -1.
        -11    1    6    6    0    0  0.10418438981E+03 -0.41138497921E+01 -0.14434877510E+02  0.10526004242E+03  0.00000000000E+00 0.  1.
         12    1    6    6    0    0  0.29119737776E+02  0.11105632115E+01  0.44903313223E+02  0.53530365375E+02  0.00000000000E+00 0. -1.
         -5    1    3    3    0  503 -0.12531436355E+03  0.46195456313E+02  0.73464046020E+03  0.74669699722E+03  0.47000000000E+01 0.  1.
         11    1    4    4    0    0  0.20645683877E+02 -0.20316504865E+02  0.51367616858E+02  0.58971490522E+02  0.00000000000E+00 0. -1.
        -12    1    4    4    0    0 -0.15283855607E+02  0.37968134567E+02  0.22545235454E+03  0.22913738161E+03  0.00000000000E+00 0.  1.
</event>
<event>
12    1  0.1061634E+000  0.1905104E+03  0.7818608E-02  0.1158143E+00
         21   -1    0    0  501  502  0.00000000000E+00  0.00000000000E+00  0.25929316456E+02  0.25929316456E+02  0.00000000000E+00 0.  1.
         21   -1    0    0  502  503 -0.00000000000E+00 -0.00000000000E+00 -0.14097068992E+04  0.14097068992E+04  0.00000000000E+00 0.  1.
         -6    2    1    2    0  503  0.80973218312E+02  0.62149236020E+01 -0.61780289007E+03  0.64632548794E+03  0.17164188890E+03 0.  0.
        -24    2    3    3    0    0  0.21699559448E+02  0.20268078741E+02 -0.14090255825E+03  0.16552732416E+03  0.81633928157E+02 0.  0.
          6    2    1    2  501    0 -0.80973218312E+02 -0.62149236020E+01 -0.76597469269E+03  0.78931072774E+03  0.17233371032E+03 0.  0.
         24    2    5    5    0    0  0.27491465047E+02 -0.80370284965E+01 -0.38656866763E+03  0.39467300848E+03  0.74236610606E+02 0.  0.
          5    1    5    5  501    0 -0.10846468336E+03  0.18221048945E+01 -0.37940602507E+03  0.39463771926E+03  0.47000000000E+01 0. -1.
        -11    1    6    6    0    0  0.16050530704E+02 -0.65157742211E+01 -0.38178746042E+03  0.38218024515E+03  0.00000000000E+00 0.  1.
         12    1    6    6    0    0  0.11440934343E+02 -0.15212542754E+01 -0.47812072046E+01  0.12492763327E+02  0.00000000000E+00 0. -1.
         -5    1    3    3    0  503  0.59273658863E+02 -0.14053155139E+02 -0.47690033182E+03  0.48079816378E+03  0.47000000000E+01 0.  1.
         13    1    4    4    0    0  0.52525312664E+02  0.60374494377E+01 -0.83240257497E+02  0.98611864065E+02  0.00000000000E+00 0. -1.
        -14    1    4    4    0    0 -0.30825753216E+02  0.14230629303E+02 -0.57662300754E+02  0.66915460096E+02  0.00000000000E+00 0.  1.
</event>
<event>
12    1  0.1061634E+000  0.2058866E+03  0.7818608E-02  0.1148740E+00
         21   -1    0    0  503  502  0.00000000000E+00  0.00000000000E+00  0.20062748103E+03  0.20062748103E+03  0.00000000000E+00 0.  1.
         21   -1    0    0  501  503 -0.00000000000E+00 -0.00000000000E+00 -0.23126698951E+03  0.23126698951E+03  0.00000000000E+00 0.  1.
          6    2    1    2  501    0 -0.67351822485E+02 -0.37151300394E+02 -0.10360333335E+03  0.23048411517E+03  0.19097850547E+03 0.  0.
         24    2    3    3    0    0  0.18897524151E+02 -0.10772098628E+02 -0.11180844046E+03  0.13979659749E+03  0.81048175701E+02 0.  0.
         -6    2    1    2    0  502  0.67351822485E+02  0.37151300394E+02  0.72963824865E+02  0.20141035536E+03  0.17124813691E+03 0.  0.
        -24    2    5    5    0    0  0.60641870972E+02  0.58977693562E+02  0.10851165366E+03  0.15889973293E+03  0.79489252684E+02 0.  0.
          5    1    3    3  501    0 -0.86249346636E+02 -0.26379201766E+02  0.82051071073E+01  0.90687517683E+02  0.47000000000E+01 0. -1.
        -11    1    4    4    0    0 -0.25501009336E+02  0.13918081804E+02 -0.62866937024E+02  0.69255081034E+02  0.00000000000E+00 0.  1.
         12    1    4    4    0    0  0.44398533487E+02 -0.24690180433E+02 -0.48941503431E+02  0.70541516454E+02  0.00000000000E+00 0. -1.
         -5    1    5    5    0  502  0.67099515130E+01 -0.21826393168E+02 -0.35547828792E+02  0.42510622435E+02  0.47000000000E+01 0.  1.
         11    1    6    6    0    0  0.27192664532E+02 -0.97711584379E+01  0.36478596374E+01  0.29124275468E+02  0.00000000000E+00 0. -1.
        -12    1    6    6    0    0  0.33449206440E+02  0.68748852000E+02  0.10486379402E+03  0.12977545746E+03  0.00000000000E+00 0.  1.
</event>
<event>
12    1  0.1061634E+000  0.1825845E+03  0.7818608E-02  0.1165378E+00
         21   -1    0    0  501  502  0.00000000000E+00  0.00000000000E+00  0.95566697987E+03  0.95566697987E+03  0.00000000000E+00 0. -1.
         21   -1    0    0  502  503 -0.00000000000E+00 -0.00000000000E+00 -0.35706861319E+02  0.35706861319E+02  0.00000000000E+00 0. -1.
         -6    2    1    2    0  503 -0.60314726635E+02 -0.12324969845E+02  0.38304889698E+03  0.42433895675E+03  0.17189334368E+03 0.  0.
        -24    2    3    3    0    0 -0.12563302366E+02 -0.57781330483E+02  0.30005795042E+03  0.31824434588E+03  0.88023697712E+02 0.  0.
          6    2    1    2  501    0  0.60314726635E+02  0.12324969845E+02  0.53691122157E+03  0.56703488445E+03  0.17165409753E+03 0.  0.
         24    2    5    5    0    0 -0.14598053419E+02 -0.51925337187E+01  0.13674430162E+03  0.15951256436E+03  0.80654749351E+02 0.  0.
          5    1    5    5  501    0  0.74912780055E+02  0.17517503563E+02  0.40016691996E+03  0.40752232009E+03  0.47000000000E+01 0. -1.
        -13    1    6    6    0    0  0.27840330264E+02  0.17085320498E+02  0.40824250916E+02  0.52283951922E+02  0.00000000000E+00 0.  1.
         14    1    6    6    0    0 -0.42438383683E+02 -0.22277854217E+02  0.95920050700E+02  0.10722861243E+03  0.00000000000E+00 0. -1.
         -5    1    3    3    0  503 -0.47751424269E+02  0.45456360638E+02  0.82990946565E+02  0.10609461086E+03  0.47000000000E+01 0.  1.
         13    1    4    4    0    0  0.25004627461E+02  0.36716456452E+01  0.32549604155E+02  0.41209090100E+02  0.00000000000E+00 0. -1.
        -14    1    4    4    0    0 -0.37567929827E+02 -0.61452976128E+02  0.26750834626E+03  0.27703525578E+03  0.00000000000E+00 0.  1.
</event>
<event>
12    1  0.1061634E+000  0.2053538E+03  0.7818608E-02  0.1145330E+00
         21   -1    0    0  503  502  0.00000000000E+00  0.00000000000E+00  0.91329961554E+03  0.91329961554E+03  0.00000000000E+00 0.  1.
         21   -1    0    0  501  503 -0.00000000000E+00 -0.00000000000E+00 -0.52959801289E+02  0.52959801289E+02  0.00000000000E+00 0.  1.
          6    2    1    2  501    0 -0.11115798803E+03  0.19274383298E+01  0.25665539328E+03  0.32860349830E+03  0.17247740396E+03 0.  0.
         24    2    3    3    0    0  0.12564198263E+02 -0.12803979529E+02  0.11396734375E+03  0.13911428085E+03  0.77733047831E+02 0.  0.
         -6    2    1    2    0  502  0.11115798803E+03 -0.19274383298E+01  0.60368442097E+03  0.63765591852E+03  0.17265681852E+03 0.  0.
        -24    2    5    5    0    0  0.14025060464E+03  0.17431959082E+02  0.54791965168E+03  0.57167890659E+03  0.81404681974E+02 0.  0.
          5    1    3    3  501    0 -0.12372218629E+03  0.14731417858E+02  0.14268804953E+03  0.18948921745E+03  0.47000000000E+01 0. -1.
        -11    1    4    4    0    0  0.12854934287E+02  0.31067317962E+02  0.66252140674E+02  0.74295179687E+02  0.00000000000E+00 0.  1.
         12    1    4    4    0    0 -0.29073602403E+00 -0.43871297490E+02  0.47715203076E+02  0.64819101163E+02  0.00000000000E+00 0. -1.
         -5    1    5    5    0  502 -0.29092616607E+02 -0.19359397411E+02  0.55764769291E+02  0.65977011930E+02  0.47000000000E+01 0.  1.
         13    1    6    6    0    0  0.10293699492E+02  0.29974133059E+02  0.13185142634E+03  0.13560681225E+03  0.00000000000E+00 0. -1.
        -14    1    6    6    0    0  0.12995690515E+03 -0.12542173978E+02  0.41606822535E+03  0.43607209435E+03  0.00000000000E+00 0.  1.
</event>
<event>
12    1  0.1061634E+000  0.2316113E+03  0.7818608E-02  0.1126579E+00
         21   -1    0    0  501  502  0.00000000000E+00  0.00000000000E+00  0.73057855818E+03  0.73057855818E+03  0.00000000000E+00 0. -1.
         21   -1    0    0  502  503 -0.00000000000E+00 -0.00000000000E+00 -0.80299886157E+02  0.80299886157E+02  0.00000000000E+00 0. -1.
         -6    2    1    2    0  503  0.34766999520E+02 -0.14190169377E+03  0.45533642375E+03  0.50814712035E+03  0.17186448783E+03 0.  0.
        -24    2    3    3    0    0 -0.51883292834E+02 -0.54566853343E+02  0.19371898509E+03  0.21900801589E+03  0.69051055611E+02 0.  0.
          6    2    1    2  501    0 -0.34766999520E+02  0.14190169377E+03  0.19494224826E+03  0.30273132398E+03  0.17971905689E+03 0.  0.
         24    2    5    5    0    0  0.12266214816E+02  0.36649129486E+02 -0.13645734693E+02  0.64359215347E+02  0.49621404724E+02 0.  0.
          5    1    5    5  501    0 -0.47033214336E+02  0.10525256428E+03  0.20858798296E+03  0.23837210863E+03  0.47000000000E+01 0. -1.
        -13    1    6    6    0    0 -0.89420178655E+01  0.40197824731E+02 -0.64399359313E+01  0.41680901759E+02  0.00000000000E+00 0.  1.
         14    1    6    6    0    0  0.21208232681E+02 -0.35486952453E+01 -0.72057987614E+01  0.22678313588E+02  0.00000000000E+00 0. -1.
         -5    1    3    3    0  503  0.86650292354E+02 -0.87334840427E+02  0.26161743866E+03  0.28913910446E+03  0.47000000000E+01 0.  1.
         11    1    4    4    0    0 -0.41860915848E+02 -0.14900171723E+02  0.15980137218E+03  0.16586388981E+03  0.00000000000E+00 0. -1.
        -12    1    4    4    0    0 -0.10022376985E+02 -0.39666681620E+02  0.33917612911E+02  0.53144126080E+02  0.00000000000E+00 0.  1.
</event>
<event>
12    1  0.1061634E+000  0.2230664E+03  0.7818608E-02  0.1131693E+00
         21   -1    0    0  501  502  0.00000000000E+00  0.00000000000E+00  0.19447459387E+04  0.19447459387E+04  0.00000000000E+00 0. -1.
         21   -1    0    0  502  503 -0.00000000000E+00 -0.00000000000E+00 -0.29865654573E+02  0.29865654573E+02  0.00000000000E+00 0. -1.
         -6    2    1    2    0  503 -0.13934290838E+03  0.31327824121E+02  0.58087937666E+03  0.62208912182E+03  0.17081026486E+03 0.  0.
        -24    2    3    3    0    0 -0.82230230054E+02 -0.11908429470E+02  0.50330491321E+03  0.51639560722E+03  0.80280546004E+02 0.  0.
          6    2    1    2  501    0  0.13934290838E+03 -0.31327824121E+02  0.13340009074E+04  0.13525224714E+04  0.17134974752E+03 0.  0.
         24    2    5    5    0    0  0.23038527392E+02 -0.58909099799E+02  0.53271145606E+03  0.54235316153E+03  0.79777193595E+02 0.  0.
          5    1    5    5  501    0  0.11630438098E+03  0.27581275678E+02  0.80128945137E+03  0.81016930989E+03  0.47000000000E+01 0. -1.
        -13    1    6    6    0    0  0.10457047490E+01 -0.70396520186E+01  0.37172311733E+03  0.37179124002E+03  0.00000000000E+00 0.  1.
         14    1    6    6    0    0  0.21992822643E+02 -0.51869447781E+02  0.16098833873E+03  0.17056192150E+03  0.00000000000E+00 0. -1.
         -5    1    3    3    0  503 -0.57112678322E+02  0.43236253591E+02  0.77574463453E+02  0.10569351461E+03  0.47000000000E+01 0.  1.
         11    1    4    4    0    0 -0.84352211603E+02  0.13557132335E+02  0.31560585073E+03  0.32696505082E+03  0.00000000000E+00 0. -1.
        -12    1    4    4    0    0  0.21219815489E+01 -0.25465561805E+02  0.18769906247E+03  0.18943055640E+03  0.00000000000E+00 0.  1.
</event>
<event>
12    1  0.1061634E+000  0.1789781E+03  0.7818608E-02  0.1168945E+00
         21   -1    0    0  503  502  0.00000000000E+00  0.00000000000E+00  0.13086519656E+04  0.13086519656E+04  0.00000000000E+00 0.  1.
         21   -1    0    0  501  503 -0.00000000000E+00 -0.00000000000E+00 -0.24897250377E+02  0.24897250377E+02  0.00000000000E+00 0.  1.
          6    2    1    2  501    0 -0.44391613229E+02  0.22146127835E+02  0.54607184578E+03  0.57446478266E+03  0.17133084794E+03 0.  0.
         24    2    3    3    0    0 -0.48795003174E+02 -0.35761833693E+02  0.45252120494E+03  0.46425346630E+03  0.84237633918E+02 0.  0.
         -6    2    1    2    0  502  0.44391613229E+02 -0.22146127835E+02  0.73768286947E+03  0.75908443335E+03  0.17196538820E+03 0.  0.
        -24    2    5    5    0    0 -0.28423219340E+02  0.22613946356E+02  0.27703597651E+03  0.29055149526E+03  0.79699241825E+02 0.  0.
          5    1    3    3  501    0  0.44033899448E+01  0.57907961529E+02  0.93550640848E+02  0.11021131636E+03  0.47000000000E+01 0. -1.
        -13    1    4    4    0    0 -0.65438382302E+01 -0.38725309687E+02  0.77848847904E+02  0.87194693354E+02  0.00000000000E+00 0.  1.
         14    1    4    4    0    0 -0.42251164944E+02  0.29634759938E+01  0.37467235703E+03  0.37705877294E+03  0.00000000000E+00 0. -1.
         -5    1    5    5    0  502  0.72814832570E+02 -0.44760074192E+02  0.46064689296E+03  0.46853293809E+03  0.47000000000E+01 0.  1.
         11    1    6    6    0    0 -0.35783982181E+02 -0.12356895562E+02  0.62592273593E+02  0.73150385934E+02  0.00000000000E+00 0. -1.
        -12    1    6    6    0    0  0.73607628410E+01  0.34970841918E+02  0.21444370292E+03  0.21740110933E+03  0.00000000000E+00 0.  1.
</event>
<event>
12    1  0.1061634E+000  0.3351606E+03  0.7818608E-02  0.1068913E+00
         21   -1    0    0  503  502  0.00000000000E+00  0.00000000000E+00  0.33683893762E+03  0.33683893762E+03  0.00000000000E+00 0.  1.
         21   -1    0    0  501  503 -0.00000000000E+00 -0.00000000000E+00 -0.33329577121E+03  0.33329577121E+03  0.00000000000E+00 0. -1.
          6    2    1    2  501    0 -0.22921423851E+03 -0.17338382705E+03 -0.52963197210E+01  0.33485755517E+03  0.17175684159E+03 0.  0.
         24    2    3    3    0    0 -0.83098890761E+02 -0.53736230363E+02 -0.51280444918E+02  0.14043051998E+03  0.85428559700E+02 0.  0.
         -6    2    1    2    0  502  0.22921423851E+03  0.17338382705E+03  0.88394861282E+01  0.33527715367E+03  0.17242828840E+03 0.  0.
        -24    2    5    5    0    0  0.79019410328E+02  0.11085992187E+03  0.53452240784E+02  0.16651663397E+03  0.79603127193E+02 0.  0.
          5    1    3    3  501    0 -0.14611534775E+03 -0.11964759668E+03  0.45984125197E+02  0.19442703518E+03  0.47000000000E+01 0. -1.
        -13    1    4    4    0    0 -0.57282403944E+02 -0.12541662430E+02  0.12775714282E+02  0.60014881267E+02  0.00000000000E+00 0.  1.
         14    1    4    4    0    0 -0.25816486817E+02 -0.41194567933E+02 -0.64056159200E+02  0.80415638716E+02  0.00000000000E+00 0. -1.
         -5    1    5    5    0  502  0.15019482818E+03  0.62523905179E+02 -0.44612754656E+02  0.16876051970E+03  0.47000000000E+01 0.  1.
         13    1    6    6    0    0  0.41914693576E+02  0.40779076946E+02  0.63800989549E+02  0.86546755697E+02  0.00000000000E+00 0. -1.
        -14    1    6    6    0    0  0.37104716752E+02  0.70080844920E+02 -0.10348748765E+02  0.79969878272E+02  0.00000000000E+00 0.  1.
</event>
<event>
12    1  0.1061634E+000  0.4217261E+03  0.7818608E-02  0.1036590E+00
         21   -1    0    0  503  502  0.00000000000E+00  0.00000000000E+00  0.75342000528E+03  0.75342000528E+03  0.00000000000E+00 0.  1.
         21   -1    0    0  501  503 -0.00000000000E+00 -0.00000000000E+00 -0.28303896393E+03  0.28303896393E+03  0.00000000000E+00 0.  1.
          6    2    1    2  501    0  0.38667211813E+02 -0.38250402765E+03  0.44737296026E+03  0.61410571444E+03  0.17081796891E+03 0.  0.
         24    2    3    3    0    0  0.25153378356E+02 -0.94759765885E+02  0.10589311154E+03  0.16732840867E+03  0.84695570150E+02 0.  0.
         -6    2    1    2    0  502 -0.38667211813E+02  0.38250402765E+03  0.23008081095E+02  0.42235325478E+03  0.17334478819E+03 0.  0.
        -24    2    5    5    0    0 -0.80726121230E+02  0.26318297164E+03  0.57769489349E+02  0.29106383491E+03  0.74825522903E+02 0.  0.
          5    1    3    3  501    0  0.13513833457E+02 -0.28774426176E+03  0.34147984872E+03  0.44677730577E+03  0.47000000000E+01 0. -1.
        -13    1    4    4    0    0 -0.24163188676E+02 -0.51801015366E+02  0.22693669463E+02  0.61499654582E+02  0.00000000000E+00 0.  1.
         14    1    4    4    0    0  0.49316567033E+02 -0.42958750518E+02  0.83199442073E+02  0.10582875409E+03  0.00000000000E+00 0. -1.
         -5    1    5    5    0  502  0.42058909417E+02  0.11932105600E+03 -0.34761408254E+02  0.13128941987E+03  0.47000000000E+01 0.  1.
         13    1    6    6    0    0 -0.41371693925E+02  0.12274461803E+03  0.65226004098E+02  0.14502513549E+03  0.00000000000E+00 0. -1.
        -14    1    6    6    0    0 -0.39354427305E+02  0.14043835361E+03 -0.74565147493E+01  0.14603869941E+03  0.00000000000E+00 0.  1.
</event>
<event>
12    1  0.1061634E+000  0.4143547E+03  0.7818608E-02  0.1038949E+00
         21   -1    0    0  501  502  0.00000000000E+00  0.00000000000E+00  0.11576722473E+04  0.11576722473E+04  0.00000000000E+00 0. -1.
         21   -1    0    0  502  503 -0.00000000000E+00 -0.00000000000E+00 -0.22634220925E+03  0.22634220925E+03  0.00000000000E+00 0. -1.
         -6    2    1    2    0  503  0.36419415896E+03  0.96407982135E+02  0.87245775592E+03  0.96585317433E+03  0.17250488126E+03 0.  0.
        -24    2    3    3    0    0  0.73099175965E+02  0.24759394146E+02  0.18980773418E+03  0.22026417799E+03  0.80825831418E+02 0.  0.
          6    2    1    2  501    0 -0.36419415896E+03 -0.96407982135E+02  0.58872282157E+02  0.41816128226E+03  0.17164215082E+03 0.  0.
         24    2    5    5    0    0 -0.30648444944E+03 -0.21422748366E+02  0.60943705439E+02  0.32340065409E+03  0.80512085678E+02 0.  0.
          5    1    5    5  501    0 -0.57709709516E+02 -0.74985233769E+02 -0.20714232812E+01  0.94760628165E+02  0.47000000000E+01 0. -1.
        -11    1    6    6    0    0 -0.29570180277E+03 -0.49627716826E+01  0.47412305706E+02  0.29951980234E+03  0.00000000000E+00 0.  1.
         12    1    6    6    0    0 -0.10782646672E+02 -0.16459976683E+02  0.13531399733E+02  0.23880851752E+02  0.00000000000E+00 0. -1.
         -5    1    3    3    0  503  0.29109498299E+03  0.71648587988E+02  0.68265002174E+03  0.74558899634E+03  0.47000000000E+01 0.  1.
         11    1    4    4    0    0  0.71981922194E+01  0.39321073948E+02  0.10172699218E+03  0.10929932189E+03  0.00000000000E+00 0. -1.
        -12    1    4    4    0    0  0.65900983746E+02 -0.14561679801E+02  0.88080741999E+02  0.11096485610E+03  0.00000000000E+00 0.  1.
</event>
<event>
12    1  0.1061634E+000  0.1962543E+03  0.7818608E-02  0.1153045E+00
         21   -1    0    0  501  502  0.00000000000E+00  0.00000000000E+00  0.50645464311E+03  0.50645464311E+03  0.00000000000E+00 0.  1.
         21   -1    0    0  502  503 -0.00000000000E+00 -0.00000000000E+00 -0.96952317878E+02  0.96952317878E+02  0.00000000000E+00 0.  1.
         -6    2    1    2    0  503  0.90225467049E+02  0.20889402119E+02  0.34567885427E+03  0.39750422768E+03  0.17302814427E+03 0.  0.
        -24    2    3    3    0    0  0.86185878026E+02  0.72744845157E+02  0.20480149068E+03  0.24725833980E+03  0.80456310811E+02 0.  0.
          6    2    1    2  501    0 -0.90225467049E+02 -0.20889402119E+02  0.63823470956E+02  0.20590273330E+03  0.17246883229E+03 0.  0.
         24    2    5    5    0    0 -0.82617595279E+02 -0.65143523936E+02  0.83987697535E+02  0.15645586238E+03  0.79719243439E+02 0.  0.
          5    1    5    5  501    0 -0.76078717703E+01  0.44254121817E+02 -0.20164226579E+02  0.49446870924E+02  0.47000000000E+01 0. -1.
        -13    1    6    6    0    0  0.14681428714E+02 -0.14742572680E+02  0.23135534936E+02  0.31114960631E+02  0.00000000000E+00 0.  1.
         14    1    6    6    0    0 -0.97299023993E+02 -0.50400951256E+02  0.60852162599E+02  0.12534090175E+03  0.00000000000E+00 0. -1.
         -5    1    3    3    0  503  0.40395890234E+01 -0.51855443038E+02  0.14087736359E+03  0.15024588788E+03  0.47000000000E+01 0.  1.
         13    1    4    4    0    0  0.56460603317E+02  0.85235429998E+02  0.17825239680E+03  0.20549159404E+03  0.00000000000E+00 0. -1.
        -14    1    4    4    0    0  0.29725274710E+02 -0.12490584841E+02  0.26549093878E+02  0.41766745767E+02  0.00000000000E+00 0.  1.
</event>
<event>
12    1  0.1061634E+000  0.2203028E+03  0.7818608E-02  0.1133964E+00
         21   -1    0    0  501  502  0.00000000000E+00  0.00000000000E+00  0.46342884997E+02  0.46342884997E+02  0.00000000000E+00 0.  1.
         21   -1    0    0  502  503 -0.00000000000E+00 -0.00000000000E+00 -0.11095393573E+04  0.11095393573E+04  0.00000000000E+00 0.  1.
         -6    2    1    2    0  503  0.94145422876E+02  0.98476501182E+02 -0.67867690984E+03  0.71353743459E+03  0.17312521677E+03 0.  0.
        -24    2    3    3    0    0  0.12029710800E+03  0.68472838003E+02 -0.63263263235E+03  0.65249404078E+03  0.79777828999E+02 0.  0.
          6    2    1    2  501    0 -0.94145422876E+02 -0.98476501182E+02 -0.38451956244E+03  0.44234480769E+03  0.17103406985E+03 0.  0.
         24    2    5    5    0    0 -0.11949415133E+03 -0.35127293296E+02 -0.28944273500E+03  0.32522361707E+03  0.80501710042E+02 0.  0.
          5    1    5    5  501    0  0.25348728457E+02 -0.63349207885E+02 -0.95076827445E+02  0.11712119062E+03  0.47000000000E+01 0. -1.
        -13    1    6    6    0    0  0.29445189113E+01  0.14867432507E+02 -0.20207104843E+02  0.25259410664E+02  0.00000000000E+00 0.  1.
         14    1    6    6    0    0 -0.12243867024E+03 -0.49994725803E+02 -0.26923563016E+03  0.29996420641E+03  0.00000000000E+00 0. -1.
         -5    1    3    3    0  503 -0.26151685120E+02  0.30003663179E+02 -0.46044277488E+02  0.61043393812E+02  0.47000000000E+01 0.  1.
         11    1    4    4    0    0  0.75201731092E+02 -0.29427587858E+01 -0.29057503392E+03  0.30016297328E+03  0.00000000000E+00 0. -1.
        -12    1    4    4    0    0  0.45095376904E+02  0.71415596789E+02 -0.34205759843E+03  0.35233106750E+03  0.00000000000E+00 0.  1.
</event>
<event>
12    1  0.1061634E+000  0.1994385E+03  0.7818608E-02  0.1150273E+00
         21   -1    0    0  501  502  0.00000000000E+00  0.00000000000E+00  0.93089537236E+03  0.93089537236E+03  0.00000000000E+00 0.  1.
         21   -1    0    0  502  503 -0.00000000000E+00 -0.00000000000E+00 -0.43591251094E+02  0.43591251094E+02  0.00000000000E+00 0.  1.
         -6    2    1    2    0  503  0.52416180000E+01 -0.10418878457E+03  0.51424640556E+03  0.55146445117E+03  0.16964933799E+03 0.  0.
        -24    2    3    3    0    0  0.47769014949E+02 -0.81320700942E+02  0.20904100935E+03  0.24242731325E+03  0.78599767342E+02 0.  0.
          6    2    1    2  501    0 -0.52416180000E+01  0.10418878457E+03  0.37305771571E+03  0.42302217229E+03  0.16997917993E+03 0.  0.
         24    2    5    5    0    0  0.46005921504E+02  0.78846519914E+01  0.14842404918E+03  0.17325594080E+03  0.76218174313E+02 0.  0.
          5    1    5    5  501    0 -0.51247539504E+02  0.96304132577E+02  0.22463366652E+03  0.24976623149E+03  0.47000000000E+01 0. -1.
        -11    1    6    6    0    0  0.40672406948E+02  0.20672986333E+02  0.31332615633E+02  0.55347537011E+02  0.00000000000E+00 0.  1.
         12    1    6    6    0    0  0.53335145561E+01 -0.12788334341E+02  0.11709143355E+03  0.11790840379E+03  0.00000000000E+00 0. -1.
         -5    1    3    3    0  503 -0.42527396949E+02 -0.22868083626E+02  0.30520539621E+03  0.30903713792E+03  0.47000000000E+01 0.  1.
         13    1    4    4    0    0  0.85963461753E+01 -0.82754321025E+02  0.13305116231E+03  0.15692286834E+03  0.00000000000E+00 0. -1.
        -14    1    4    4    0    0  0.39172668773E+02  0.14336200825E+01  0.75989847048E+02  0.85504444913E+02  0.00000000000E+00 0.  1.
</event>
<event>
12    1  0.1061634E+000  0.3507576E+03  0.7818608E-02  0.1062326E+00
         21   -1    0    0  503  502  0.00000000000E+00  0.00000000000E+00  0.43162316705E+03  0.43162316705E+03  0.00000000000E+00 0. -1.
         21   -1    0    0  501  503 -0.00000000000E+00 -0.00000000000E+00 -0.29916073629E+03  0.29916073629E+03  0.00000000000E+00 0. -1.
          6    2    1    2  501    0 -0.30424052122E+03 -0.33055516581E+02 -0.13641527069E+02  0.35081381297E+03  0.17096572225E+03 0.  0.
         24    2    3    3    0    0 -0.22669891723E+03  0.38881443904E+02 -0.32473621223E+01  0.24442887373E+03  0.82648431315E+02 0.  0.
         -6    2    1    2    0  502  0.30424052122E+03  0.33055516581E+02  0.14610395782E+03  0.37997009037E+03  0.17139411062E+03 0.  0.
        -24    2    5    5    0    0  0.14791360685E+03  0.39847700042E+02  0.14115877058E+03  0.22334703080E+03  0.80571852188E+02 0.  0.
          5    1    3    3  501    0 -0.77541603987E+02 -0.71936960485E+02 -0.10394164946E+02  0.10638493924E+03  0.47000000000E+01 0. -1.
        -13    1    4    4    0    0 -0.14321283053E+03  0.61690211035E+02 -0.16767264718E+02  0.15683347262E+03  0.00000000000E+00 0.  1.
         14    1    4    4    0    0 -0.83486086698E+02 -0.22808767131E+02  0.13519902596E+02  0.87595401115E+02  0.00000000000E+00 0. -1.
         -5    1    5    5    0  502  0.15632691436E+03 -0.67921834603E+01  0.49451872386E+01  0.15662305956E+03  0.47000000000E+01 0.  1.
         11    1    6    6    0    0  0.70366757408E+02 -0.17377522631E+02  0.36776974496E+02  0.81277331981E+02  0.00000000000E+00 0. -1.
        -12    1    6    6    0    0  0.77546849447E+02  0.57225222673E+02  0.10438179609E+03  0.14206969882E+03  0.00000000000E+00 0.  1.
</event>
<event>
12    1  0.1061634E+000  0.2668305E+03  0.7818608E-02  0.1103614E+00
         21   -1    0    0  503  502  0.00000000000E+00  0.00000000000E+00  0.53924581608E+03  0.53924581608E+03  0.00000000000E+00 0.  1.
         21   -1    0    0  501  503 -0.00000000000E+00 -0.00000000000E+00 -0.13035711456E+03  0.13035711456E+03  0.00000000000E+00 0.  1.
          6    2    1    2  501    0  0.11267351299E+03 -0.16966732450E+03  0.19791643841E+03  0.32944441135E+03  0.16697419575E+03 0.  0.
         24    2    3    3    0    0  0.30591443255E+02 -0.11991732724E+03  0.18095596148E+03  0.23186226044E+03  0.75492026377E+02 0.  0.
         -6    2    1    2    0  502 -0.11267351299E+03  0.16966732450E+03  0.21097226312E+03  0.34015851929E+03  0.17238387659E+03 0.  0.
        -24    2    5    5    0    0 -0.14039587655E+03  0.17156212952E+03  0.19235812447E+03  0.30638432966E+03  0.87892792524E+02 0.  0.
          5    1    3    3  501    0  0.82082069737E+02 -0.49749997259E+02  0.16960476928E+02  0.97582150915E+02  0.47000000000E+01 0. -1.
        -11    1    4    4    0    0 -0.88014837613E+01  0.70689922232E+01  0.86412120016E+01  0.14216445136E+02  0.00000000000E+00 0.  1.
         12    1    4    4    0    0  0.39392927017E+02 -0.12698631946E+03  0.17231474948E+03  0.21764581530E+03  0.00000000000E+00 0. -1.
         -5    1    5    5    0  502  0.27722363554E+02 -0.18948050250E+01  0.18614138649E+02  0.33774189624E+02  0.47000000000E+01 0.  1.
         13    1    6    6    0    0 -0.66429719557E+02  0.14563666087E+03  0.13116335326E+03  0.20694629706E+03  0.00000000000E+00 0. -1.
        -14    1    6    6    0    0 -0.73966156990E+02  0.25925468655E+02  0.61194771207E+02  0.99438032602E+02  0.00000000000E+00 0.  1.
</event>
<event>
12    1  0.1061634E+000  0.2311789E+03  0.7818608E-02  0.1125825E+00
         21   -1    0    0  503  502  0.00000000000E+00  0.00000000000E+00  0.21418838814E+04  0.21418838814E+04  0.00000000000E+00 0. -1.
         21   -1    0    0  501  503 -0.00000000000E+00 -0.00000000000E+00 -0.79519919506E+02  0.79519919506E+02  0.00000000000E+00 0. -1.
          6    2    1    2  501    0 -0.10277855199E+03 -0.11688872446E+03  0.19513784946E+04  0.19650246055E+04  0.17093058958E+03 0.  0.
         24    2    3    3    0    0 -0.99826519536E+01 -0.84362337273E+02  0.68922920529E+03  0.69904199765E+03  0.80038489247E+02 0.  0.
         -6    2    1    2    0  502  0.10277855199E+03  0.11688872446E+03  0.11098546733E+03  0.25637919543E+03  0.17083943699E+03 0.  0.
        -24    2    5    5    0    0  0.12944768531E+03  0.12550503953E+03  0.83089802545E+02  0.21655782338E+03  0.86516804168E+02 0.  0.
          5    1    3    3  501    0 -0.92795900034E+02 -0.32526387191E+02  0.12621492893E+04  0.12659826078E+04  0.47000000000E+01 0. -1.
        -11    1    4    4    0    0 -0.68872507738E+01  0.26987344925E+01  0.42213948236E+01  0.85168988100E+01  0.00000000000E+00 0.  1.
         12    1    4    4    0    0 -0.30954011798E+01 -0.87061071766E+02  0.68500781046E+03  0.69052509884E+03  0.00000000000E+00 0. -1.
         -5    1    5    5    0  502 -0.26669133318E+02 -0.86163150659E+01  0.27895664788E+02  0.39821372041E+02  0.47000000000E+01 0.  1.
         11    1    6    6    0    0  0.87948687242E+02  0.40188796333E+02  0.10831809340E+02  0.97300765834E+02  0.00000000000E+00 0. -1.
        -12    1    6    6    0    0  0.41498998064E+02  0.85316243197E+02  0.72257993205E+02  0.11925705755E+03  0.00000000000E+00 0.  1.
</event>
<event>
12    1  0.1061634E+000  0.3373790E+03  0.7818608E-02  0.1067935E+00
         21   -1    0    0  501  502  0.00000000000E+00  0.00000000000E+00  0.72171066367E+03  0.72171066367E+03  0.00000000000E+00 0.  1.
         21   -1    0    0  502  503 -0.00000000000E+00 -0.00000000000E+00 -0.19397948289E+03  0.19397948289E+03  0.00000000000E+00 0.  1.
         -6    2    1    2    0  503  0.28486301698E+03 -0.49666005006E+02  0.46197756514E+03  0.57196333480E+03  0.17350831441E+03 0.  0.
        -24    2    3    3    0    0  0.15969135077E+03  0.17305195337E+02  0.17111237225E+03  0.24826943907E+03  0.80978226359E+02 0.  0.
          6    2    1    2  501    0 -0.28486301698E+03  0.49666005006E+02  0.65753615643E+02  0.34372681177E+03  0.17381292433E+03 0.  0.
         24    2    5    5    0    0 -0.51728018620E+02  0.39720910908E+02  0.39083921349E+01  0.10227753340E+03  0.78688497476E+02 0.  0.
          5    1    5    5  501    0 -0.23313499836E+03  0.99450940981E+01  0.61845223508E+02  0.24144927837E+03  0.47000000000E+01 0. -1.
        -11    1    6    6    0    0 -0.48622962760E+02  0.21391365724E+02  0.36712098244E+02  0.64572139446E+02  0.00000000000E+00 0.  1.
         12    1    6    6    0    0 -0.31050558602E+01  0.18329545183E+02 -0.32803706109E+02  0.37705393951E+02  0.00000000000E+00 0. -1.
         -5    1    3    3    0  503  0.12517166620E+03 -0.66971200343E+02  0.29086519289E+03  0.32369389573E+03  0.47000000000E+01 0.  1.
         11    1    4    4    0    0  0.16809580825E+03  0.14462825424E+02  0.16967780503E+03  0.23928211715E+03  0.00000000000E+00 0. -1.
        -12    1    4    4    0    0 -0.84044574754E+01  0.28423699130E+01  0.14345672176E+01  0.89873219193E+01  0.00000000000E+00 0.  1.
</event>
<event>
12    1  0.1061634E+000  0.2586197E+03  0.7818608E-02  0.1108904E+00
         21   -1    0    0  501  502  0.00000000000E+00  0.00000000000E+00  0.61022258438E+02  0.61022258438E+02  0.00000000000E+00 0. -1.
         21   -1    0    0  502  503 -0.00000000000E+00 -0.00000000000E+00 -0.19297807605E+04  0.19297807605E+04  0.00000000000E+00 0. -1.
         -6    2    1    2    0  503  0.70504064056E+02  0.18010706943E+03 -0.16047204073E+04  0.16254266349E+04  0.17168220714E+03 0.  0.
        -24    2    3    3    0    0  0.30328451428E+01  0.86688037655E+02 -0.11540377692E+04  0.11602208620E+04  0.82372700190E+02 0.  0.
          6    2    1    2  501    0 -0.70504064056E+02 -0.18010706943E+03 -0.26403809475E+03  0.36537638405E+03  0.16240199208E+03 0.  0.
         24    2    5    5    0    0 -0.81068683068E+01 -0.16120603655E+03 -0.22932368295E+03  0.29136395625E+03  0.79060077835E+02 0.  0.
          5    1    5    5  501    0 -0.62397195749E+02 -0.18901032885E+02 -0.34714411791E+02  0.74012427791E+02  0.47000000000E+01 0. -1.
        -11    1    6    6    0    0 -0.32509424547E+01 -0.12092689916E+03 -0.10364457366E+03  0.15929871693E+03  0.00000000000E+00 0.  1.
         12    1    6    6    0    0 -0.48559258522E+01 -0.40279137393E+02 -0.12567910929E+03  0.13206523933E+03  0.00000000000E+00 0. -1.
         -5    1    3    3    0  503  0.67471218913E+02  0.93419031779E+02 -0.45068263808E+03  0.46520577291E+03  0.47000000000E+01 0.  1.
         11    1    4    4    0    0 -0.14834227784E+02  0.39451067245E+02 -0.17976086996E+03  0.18463588868E+03  0.00000000000E+00 0. -1.
        -12    1    4    4    0    0  0.17867072927E+02  0.47236970410E+02 -0.97427689928E+03  0.97558497330E+03  0.00000000000E+00 0.  1.
</event>
<event>
12    1  0.1061634E+000  0.1933552E+03  0.7818608E-02  0.1155593E+00
         21   -1    0    0  501  502  0.00000000000E+00  0.00000000000E+00  0.29411114100E+03  0.29411114100E+03  0.00000000000E+00 0.  1.
         21   -1    0    0  502  503 -0.00000000000E+00 -0.00000000000E+00 -0.12677163317E+03  0.12677163317E+03  0.00000000000E+00 0.  1.
         -6    2    1    2    0  503  0.21670857017E+02  0.86280143474E+02  0.86388758016E+02  0.21126586293E+03  0.17104490090E+03 0.  0.
        -24    2    3    3    0    0 -0.49396296794E+02  0.30115213908E+02  0.49775806118E+02  0.11345155973E+03  0.83944656079E+02 0.  0.
          6    2    1    2  501    0 -0.21670857017E+02 -0.86280143474E+02  0.80950749811E+02  0.20961691125E+03  0.17167508959E+03 0.  0.
         24    2    5    5    0    0 -0.35637724268E+02 -0.47193615257E+02 -0.18672440750E+02  0.10159052481E+03  0.80465458281E+02 0.  0.
          5    1    5    5  501    0  0.13966867251E+02 -0.39086528217E+02  0.99623190560E+02  0.10802638644E+03  0.47000000000E+01 0. -1.
        -11    1    6    6    0    0 -0.10875562894E+02  0.22656437615E+02 -0.97063528248E+01  0.26940774280E+02  0.00000000000E+00 0.  1.
         12    1    6    6    0    0 -0.24762161374E+02 -0.69850052872E+02 -0.89660879247E+01  0.74649750534E+02  0.00000000000E+00 0. -1.
         -5    1    3    3    0  503  0.71067153810E+02  0.56164929566E+02  0.36612951898E+02  0.97814303200E+02  0.47000000000E+01 0.  1.
         13    1    4    4    0    0  0.23867103275E+02  0.72348644305E+01  0.15734134979E+02  0.29488046487E+02  0.00000000000E+00 0. -1.
        -14    1    4    4    0    0 -0.73263400068E+02  0.22880349477E+02  0.34041671139E+02  0.83963513241E+02  0.00000000000E+00 0.  1.
</event>
<event>
12    1  0.1061634E+000  0.3862611E+03  0.7818608E-02  0.1048719E+00
         21   -1    0    0  503  502  0.00000000000E+00  0.00000000000E+00  0.10250929385E+04  0.10250929385E+04  0.00000000000E+00 0. -1.
         21   -1    0    0  501  503 -0.00000000000E+00 -0.00000000000E+00 -0.27127705203E+03  0.27127705203E+03  0.00000000000E+00 0. -1.
          6    2    1    2  501    0 -0.29960696554E+03 -0.17243290500E+03  0.81852026762E+03  0.90472690531E+03  0.17046379135E+03 0.  0.
         24    2    3    3    0    0 -0.22989464464E+03 -0.98881638409E+02  0.43359497219E+03  0.50665760284E+03  0.77898655739E+02 0.  0.
         -6    2    1    2    0  502  0.29960696554E+03  0.17243290500E+03 -0.64704381130E+02  0.39164308523E+03  0.17233748502E+03 0.  0.
        -24    2    5    5    0    0  0.64762855835E+02  0.27503503308E+02 -0.51518360259E+02  0.11532397897E+03  0.75463954916E+02 0.  0.
          5    1    3    3  501    0 -0.69712320901E+02 -0.73551266592E+02  0.38492529543E+03  0.39806930246E+03  0.47000000000E+01 0. -1.
        -13    1    4    4    0    0 -0.15394169458E+03 -0.94679069717E+02  0.25511658848E+03  0.31264459901E+03  0.00000000000E+00 0.  1.
         14    1    4    4    0    0 -0.75952950060E+02 -0.42025686922E+01  0.17847838370E+03  0.19401300383E+03  0.00000000000E+00 0. -1.
         -5    1    5    5    0  502  0.23484410970E+03  0.14492940169E+03 -0.13186020871E+02  0.27631910626E+03  0.47000000000E+01 0.  1.
         11    1    6    6    0    0  0.79641208889E+02  0.31541729335E+02 -0.34460198973E+02  0.92331512259E+02  0.00000000000E+00 0. -1.
        -12    1    6    6    0    0 -0.14878353053E+02 -0.40382260271E+01 -0.17058161286E+02  0.22992466711E+02  0.00000000000E+00 0.  1.
</event>
<event>
12    1  0.1061634E+000  0.2841184E+03  0.7818608E-02  0.1093532E+00
         21   -1    0    0  503  502  0.00000000000E+00  0.00000000000E+00  0.36530757782E+02  0.36530757782E+02  0.00000000000E+00 0. -1.
         21   -1    0    0  501  503 -0.00000000000E+00 -0.00000000000E+00 -0.22075597422E+04  0.22075597422E+04  0.00000000000E+00 0. -1.
          6    2    1    2  501    0  0.25836797473E+02  0.22465890894E+03 -0.10512651989E+04  0.10888441286E+04  0.17112525403E+03 0.  0.
         24    2    3    3    0    0  0.46095072873E+02  0.13961830927E+03 -0.42992953318E+03  0.46137110068E+03  0.80036622952E+02 0.  0.
         -6    2    1    2    0  502 -0.25836797473E+02 -0.22465890894E+03 -0.11197637855E+04  0.11552463713E+04  0.17200022584E+03 0.  0.
        -24    2    5    5    0    0  0.63721191996E+01 -0.57344605967E+02 -0.25282766705E+03  0.27171266300E+03  0.81098300045E+02 0.  0.
          5    1    3    3  501    0 -0.20258275400E+02  0.85040599670E+02 -0.62133566570E+03  0.62747302793E+03  0.47000000000E+01 0. -1.
        -11    1    4    4    0    0  0.63290787134E+02  0.93349529034E+02 -0.34694319400E+03  0.36481425160E+03  0.00000000000E+00 0.  1.
         12    1    4    4    0    0 -0.17195714260E+02  0.46268780237E+02 -0.82986339179E+02  0.96556849078E+02  0.00000000000E+00 0. -1.
         -5    1    5    5    0  502 -0.32208916673E+02 -0.16731430297E+03 -0.86693611846E+03  0.88353370834E+03  0.47000000000E+01 0.  1.
         13    1    6    6    0    0  0.40906305038E+02 -0.18807909591E+02 -0.86415519385E+02  0.97440778146E+02  0.00000000000E+00 0. -1.
        -14    1    6    6    0    0 -0.34534185838E+02 -0.38536696376E+02 -0.16641214767E+03  0.17427188485E+03  0.00000000000E+00 0.  1.
</event>
<event>
12    1  0.1061634E+000  0.2353290E+03  0.7818608E-02  0.1122992E+00
         21   -1    0    0  503  502  0.00000000000E+00  0.00000000000E+00  0.10036047913E+04  0.10036047913E+04  0.00000000000E+00 0. -1.
         21   -1    0    0  501  503 -0.00000000000E+00 -0.00000000000E+00 -0.60116212656E+02  0.60116212656E+02  0.00000000000E+00 0. -1.
          6    2    1    2  501    0 -0.39681721552E+02 -0.15539096615E+03  0.62540947435E+03  0.66821910231E+03  0.17221720792E+03 0.  0.
         24    2    3    3    0    0 -0.81288077473E+02 -0.93958427063E+02  0.29527675741E+03  0.32981882674E+03  0.78461184369E+02 0.  0.
         -6    2    1    2    0  502  0.39681721552E+02  0.15539096615E+03  0.31807910424E+03  0.39550190159E+03  0.17183261105E+03 0.  0.
        -24    2    5    5    0    0  0.60305198718E+02  0.31587359978E+02  0.18205299736E+03  0.21035911219E+03  0.80456099421E+02 0.  0.
          5    1    3    3  501    0  0.41606355921E+02 -0.61432539085E+02  0.33013271694E+03  0.33840027557E+03  0.47000000000E+01 0. -1.
        -13    1    4    4    0    0 -0.56920967243E+02 -0.10064926323E+03  0.27160484246E+03  0.29519393819E+03  0.00000000000E+00 0.  1.
         14    1    4    4    0    0 -0.24367110230E+02  0.66908361652E+01  0.23671914952E+02  0.34624888549E+02  0.00000000000E+00 0. -1.
         -5    1    5    5    0  502 -0.20623477166E+02  0.12380360617E+03  0.13602610689E+03  0.18514278940E+03  0.47000000000E+01 0.  1.
         11    1    6    6    0    0  0.62750852864E+02 -0.89061029477E+01  0.93507840471E+02  0.11296328799E+03  0.00000000000E+00 0. -1.
        -12    1    6    6    0    0 -0.24456541456E+01  0.40493462926E+02  0.88545156886E+02  0.97395824201E+02  0.00000000000E+00 0.  1.
</event>
<event>
12    1  0.1061634E+000  0.3982761E+03  0.7818608E-02  0.1044412E+00
         21   -1    0    0  501  502  0.00000000000E+00  0.00000000000E+00  0.10784308854E+03  0.10784308854E+03  0.00000000000E+00 0. -1.
         21   -1    0    0  502  503 -0.00000000000E+00 -0.00000000000E+00 -0.15024014521E+04  0.15024014521E+04  0.00000000000E+00 0.  1.
         -6    2    1    2    0  503 -0.35816260974E+03  0.21085852521E+02 -0.81616674729E+03  0.90799051199E+03  0.17202773695E+03 0.  0.
        -24    2    3    3    0    0 -0.20431671394E+03  0.77899954969E+02 -0.50962914450E+03  0.56030704414E+03  0.80052459074E+02 0.  0.
          6    2    1    2  501    0  0.35816260974E+03 -0.21085852521E+02 -0.57839161626E+03  0.70225402864E+03  0.17291266811E+03 0.  0.
         24    2    5    5    0    0  0.17609992830E+03  0.22101145886E+02 -0.40653179572E+03  0.44814809655E+03  0.63788479510E+02 0.  0.
          5    1    5    5  501    0  0.18206268145E+03 -0.43186998407E+02 -0.17185982054E+03  0.25410593209E+03  0.47000000000E+01 0. -1.
        -13    1    6    6    0    0  0.62932558680E+02  0.30383864364E+02 -0.10654789185E+03  0.12742111055E+03  0.00000000000E+00 0.  1.
         14    1    6    6    0    0  0.11316736962E+03 -0.82827184780E+01 -0.29998390387E+03  0.32072698600E+03  0.00000000000E+00 0. -1.
         -5    1    3    3    0  503 -0.15384589580E+03 -0.56814102449E+02 -0.30653760279E+03  0.34768346785E+03  0.47000000000E+01 0.  1.
         13    1    4    4    0    0 -0.89032251518E+02 -0.60818863981E+01 -0.17156607561E+03  0.19338730427E+03  0.00000000000E+00 0. -1.
        -14    1    4    4    0    0 -0.11528446242E+03  0.83981841367E+02 -0.33806306889E+03  0.36691973986E+03  0.00000000000E+00 0.  1.
</event>
<event>
12    1  0.1061634E+000  0.3130102E+03  0.7818608E-02  0.1079008E+00
         21   -1    0    0  501  502  0.00000000000E+00  0.00000000000E+00  0.12625146692E+04  0.12625146692E+04  0.00000000000E+00 0.  1.
         21   -1    0    0  502  503 -0.00000000000E+00 -0.00000000000E+00 -0.78277368517E+02  0.78277368517E+02  0.00000000000E+00 0.  1.
         -6    2    1    2    0  503 -0.39105943658E+02  0.25840468144E+03  0.66226122175E+03  0.73215882563E+03  0.17077577667E+03 0.  0.
        -24    2    3    3    0    0  0.21072709412E+01  0.87413281030E+02  0.15414477156E+03  0.19444049321E+03  0.80006077947E+02 0.  0.
          6    2    1    2  501    0  0.39105943658E+02 -0.25840468144E+03  0.52197607890E+03  0.60863321205E+03  0.17225883330E+03 0.  0.
         24    2    5    5    0    0  0.40916020721E+02 -0.17415942631E+03  0.46957551817E+03  0.50929314886E+03  0.82901855751E+02 0.  0.
          5    1    5    5  501    0 -0.18100770638E+01 -0.84245255124E+02  0.52400560728E+02  0.99340063189E+02  0.47000000000E+01 0. -1.
        -11    1    6    6    0    0  0.17522820693E+01 -0.85759700347E+00 -0.34706419861E+01  0.39813717318E+01  0.00000000000E+00 0.  1.
         12    1    6    6    0    0  0.39163738652E+02 -0.17330182931E+03  0.47304616016E+03  0.50531177713E+03  0.00000000000E+00 0. -1.
         -5    1    3    3    0  503 -0.41213214599E+02  0.17099140041E+03  0.50811645019E+03  0.53771833243E+03  0.47000000000E+01 0.  1.
         11    1    4    4    0    0  0.37556969144E+02  0.68320694495E+02  0.10797840045E+03  0.13318249957E+03  0.00000000000E+00 0. -1.
        -12    1    4    4    0    0 -0.35449698203E+02  0.19092586535E+02  0.46166371108E+02  0.61257993638E+02  0.00000000000E+00 0.  1.
</event>
<event>
12    1  0.1061634E+000  0.1946686E+03  0.7818608E-02  0.1155403E+00
         21   -1    0    0  503  502  0.00000000000E+00  0.00000000000E+00  0.70158440253E+03  0.70158440253E+03  0.00000000000E+00 0. -1.
         21   -1    0    0  501  503 -0.00000000000E+00 -0.00000000000E+00 -0.60465182820E+02  0.60465182820E+02  0.00000000000E+00 0. -1.
          6    2    1    2  501    0 -0.10377721736E+02  0.90125736203E+02  0.46099332525E+03  0.50041054399E+03  0.17223681712E+03 0.  0.
         24    2    3    3    0    0 -0.71127795701E+02  0.76903834164E+02  0.31943360047E+03  0.34572817310E+03  0.80726585096E+02 0.  0.
         -6    2    1    2    0  502  0.10377721736E+02 -0.90125736203E+02  0.18012589446E+03  0.26163904136E+03  0.16667124730E+03 0.  0.
        -24    2    5    5    0    0  0.32673594484E+01 -0.24490732280E+02  0.17605132489E+03  0.19532763126E+03  0.80921832250E+02 0.  0.
          5    1    3    3  501    0  0.60750073965E+02  0.13221902040E+02  0.14155972479E+03  0.15468237088E+03  0.47000000000E+01 0. -1.
        -11    1    4    4    0    0 -0.30157300350E+02  0.50903800587E+02  0.70168159602E+02  0.91783605837E+02  0.00000000000E+00 0.  1.
         12    1    4    4    0    0 -0.40970495351E+02  0.26000033577E+02  0.24926544086E+03  0.25394456727E+03  0.00000000000E+00 0. -1.
         -5    1    5    5    0  502  0.71103622880E+01 -0.65635003923E+02  0.40745695674E+01  0.66311410097E+02  0.47000000000E+01 0.  1.
         13    1    6    6    0    0 -0.36128202764E+02  0.34263990678E+01  0.78338200650E+02  0.86335745358E+02  0.00000000000E+00 0. -1.
        -14    1    6    6    0    0  0.39395562212E+02 -0.27917131348E+02  0.97713124238E+02  0.10899188590E+03  0.00000000000E+00 0.  1.
</event>
<event>
12    1  0.1061634E+000  0.2091164E+03  0.7818608E-02  0.1142576E+00
         21   -1    0    0  501  502  0.00000000000E+00  0.00000000000E+00  0.74928839508E+02  0.74928839508E+02  0.00000000000E+00 0.  1.
         21   -1    0    0  502  503 -0.00000000000E+00 -0.00000000000E+00 -0.63856952532E+03  0.63856952532E+03  0.00000000000E+00 0.  1.
         -6    2    1    2    0  503  0.10148992648E+03 -0.62712423320E+02 -0.38954270720E+03  0.44139585865E+03  0.16986385750E+03 0.  0.
        -24    2    3    3    0    0  0.10559615184E+03 -0.83166325963E+02 -0.38976156472E+03  0.42000985578E+03  0.80168675690E+02 0.  0.
          6    2    1    2  501    0 -0.10148992648E+03  0.62712423320E+02 -0.17409797862E+03  0.27210250618E+03  0.17174578451E+03 0.  0.
         24    2    5    5    0    0 -0.28457692705E+02  0.29043516802E+02 -0.10651597199E+02  0.89882551090E+02  0.79448412982E+02 0.  0.
          5    1    5    5  501    0 -0.73032233770E+02  0.33668906518E+02 -0.16344638142E+03  0.18221995509E+03  0.47000000000E+01 0. -1.
        -13    1    6    6    0    0  0.88148841036E+01 -0.21544281027E+02  0.75359230186E+01  0.24467291687E+02  0.00000000000E+00 0.  1.
         14    1    6    6    0    0 -0.37272576809E+02  0.50587797829E+02 -0.18187520217E+02  0.65415259404E+02  0.00000000000E+00 0. -1.
         -5    1    3    3    0  503 -0.41062253642E+01  0.20453902644E+02  0.21885752045E+00  0.21386002869E+02  0.47000000000E+01 0.  1.
         11    1    4    4    0    0  0.80658940963E+02 -0.93662142437E+02 -0.26587047284E+03  0.29319885745E+03  0.00000000000E+00 0. -1.
        -12    1    4    4    0    0  0.24937210877E+02  0.10495816474E+02 -0.12389109187E+03  0.12681099832E+03  0.00000000000E+00 0.  1.
</event>
<event>
12    1  0.1061634E+000  0.2241127E+03  0.7818608E-02  0.1130974E+00
         21   -1    0    0  503  502  0.00000000000E+00  0.00000000000E+00  0.89226671045E+03  0.89226671045E+03  0.00000000000E+00 0. -1.
         21   -1    0    0  501  503 -0.00000000000E+00 -0.00000000000E+00 -0.77624501026E+02  0.77624501026E+02  0.00000000000E+00 0. -1.
          6    2    1    2  501    0 -0.17019361211E+02 -0.14255749995E+03  0.66210235791E+03  0.69879177369E+03  0.17122532287E+03 0.  0.
         24    2    3    3    0    0  0.50525909070E+02 -0.10050848736E+03  0.49249594708E+03  0.51139137992E+03  0.79461072475E+02 0.  0.
         -6    2    1    2    0  502  0.17019361211E+02  0.14255749995E+03  0.15253985152E+03  0.27109943778E+03  0.17208776661E+03 0.  0.
        -24    2    5    5    0    0  0.23555203808E+02  0.48482051917E+02  0.14833143911E+03  0.17658643394E+03  0.79216133704E+02 0.  0.
          5    1    3    3  501    0 -0.67545270281E+02 -0.42049012592E+02  0.16960641082E+03  0.18740039378E+03  0.47000000000E+01 0. -1.
        -11    1    4    4    0    0  0.16169208708E+01 -0.20334718655E+02  0.25775503321E+03  0.25856096450E+03  0.00000000000E+00 0.  1.
         12    1    4    4    0    0  0.48908988200E+02 -0.80173768701E+02  0.23474091387E+03  0.25283041542E+03  0.00000000000E+00 0. -1.
         -5    1    5    5    0  502 -0.65358425971E+01  0.94075448031E+02  0.42084124137E+01  0.94513003844E+02  0.47000000000E+01 0.  1.
         11    1    6    6    0    0 -0.29416621233E+02  0.20575507176E+02  0.58200219771E+02  0.68380952623E+02  0.00000000000E+00 0. -1.
        -12    1    6    6    0    0  0.52971825041E+02  0.27906544741E+02  0.90131219338E+02  0.10820548132E+03  0.00000000000E+00 0.  1.
</event>
<event>
12    1  0.1061634E+000  0.2256635E+03  0.7818608E-02  0.1129749E+00
         21   -1    0    0  503  502  0.00000000000E+00  0.00000000000E+00  0.77380403273E+02  0.77380403273E+02  0.00000000000E+00 0. -1.
         21   -1    0    0  501  503 -0.00000000000E+00 -0.00000000000E+00 -0.69500798110E+03  0.69500798110E+03  0.00000000000E+00 0. -1.
          6    2    1    2  501    0  0.12556718208E+03 -0.75098131818E+02 -0.21936912623E+03  0.31463975638E+03  0.17166396283E+03 0.  0.
         24    2    3    3    0    0  0.39031692611E+02  0.16933736677E+02 -0.12089627276E+03  0.15439853626E+03  0.86097472473E+02 0.  0.
         -6    2    1    2    0  502 -0.12556718208E+03  0.75098131818E+02 -0.39825845160E+03  0.45774862799E+03  0.17180560393E+03 0.  0.
        -24    2    5    5    0    0 -0.13399259576E+03  0.27107565548E+02 -0.36704411523E+03  0.39969256163E+03  0.79648763149E+02 0.  0.
          5    1    3    3  501    0  0.86535489468E+02 -0.92031868495E+02 -0.98472853477E+02  0.16024122013E+03  0.47000000000E+01 0. -1.
        -13    1    4    4    0    0  0.60600087600E+02 -0.73170893795E+01 -0.61121172227E+02  0.86381179133E+02  0.00000000000E+00 0.  1.
         14    1    4    4    0    0 -0.21568394989E+02  0.24250826056E+02 -0.59775100528E+02  0.68017357123E+02  0.00000000000E+00 0. -1.
         -5    1    5    5    0  502  0.84254136791E+01  0.47990566270E+02 -0.31214336372E+02  0.58056066364E+02  0.47000000000E+01 0.  1.
         13    1    6    6    0    0 -0.95610358114E+02  0.78733081163E+01 -0.14724330348E+03  0.17573821434E+03  0.00000000000E+00 0. -1.
        -14    1    6    6    0    0 -0.38382237644E+02  0.19234257431E+02 -0.21980081175E+03  0.22395434729E+03  0.00000000000E+00 0.  1.
</event>
<event>
12    1  0.1061634E+000  0.1839101E+03  0.7818608E-02  0.1164504E+00
         21   -1    0    0  501  502  0.00000000000E+00  0.00000000000E+00  0.63177727610E+02  0.63177727610E+02  0.00000000000E+00 0. -1.
         21   -1    0    0  502  503 -0.00000000000E+00 -0.00000000000E+00 -0.54861683535E+03  0.54861683535E+03  0.00000000000E+00 0. -1.
         -6    2    1    2    0  503  0.61388706396E+02  0.12003055864E+02 -0.29782190659E+03  0.34907204488E+03  0.17099929196E+03 0.  0.
        -24    2    3    3    0    0  0.88827148252E+02  0.17270737665E+02 -0.12209683416E+03  0.17107764147E+03  0.78558143148E+02 0.  0.
          6    2    1    2  501    0 -0.61388706396E+02 -0.12003055864E+02 -0.18761720115E+03  0.26272251808E+03  0.17294583173E+03 0.  0.
         24    2    5    5    0    0 -0.25764962532E+02 -0.74527425868E+02 -0.10468807479E+03  0.15282402869E+03  0.78596566338E+02 0.  0.
          5    1    5    5  501    0 -0.35623743864E+02  0.62524370004E+02 -0.82929126359E+02  0.10989848939E+03  0.47000000000E+01 0. -1.
        -13    1    6    6    0    0 -0.34584741027E+02 -0.29757593423E+02 -0.85671229734E+01  0.46422131299E+02  0.00000000000E+00 0.  1.
         14    1    6    6    0    0  0.88197784952E+01 -0.44769832445E+02 -0.96120951815E+02  0.10640189739E+03  0.00000000000E+00 0. -1.
         -5    1    3    3    0  503 -0.27438441856E+02 -0.52676818013E+01 -0.17572507243E+03  0.17799440341E+03  0.47000000000E+01 0.  1.
         13    1    4    4    0    0 -0.90072284562E+00  0.18050201430E+02 -0.58145194840E+02  0.60889118537E+02  0.00000000000E+00 0. -1.
        -14    1    4    4    0    0  0.89727871098E+02 -0.77946376488E+00 -0.63951639319E+02  0.11018852294E+03  0.00000000000E+00 0.  1.
</event>
<event>
12    1  0.1061634E+000  0.2166464E+03  0.7818608E-02  0.1136830E+00
         21   -1    0    0  503  502  0.00000000000E+00  0.00000000000E+00  0.19834877535E+03  0.19834877535E+03  0.00000000000E+00 0. -1.
         21   -1    0    0  501  503 -0.00000000000E+00 -0.00000000000E+00 -0.23461957007E+03  0.23461957007E+03  0.00000000000E+00 0.  1.
          6    2    1    2  501    0 -0.12107292074E+03 -0.43987508551E+02 -0.26851377129E+02  0.21611725924E+03  0.17144130262E+03 0.  0.
         24    2    3    3    0    0 -0.10937281368E+03 -0.40032240362E+02 -0.79069629776E+02  0.16225286877E+03  0.80678339288E+02 0.  0.
         -6    2    1    2    0  502  0.12107292074E+03  0.43987508551E+02 -0.94194175906E+01  0.21685108619E+03  0.17418988234E+03 0.  0.
        -24    2    5    5    0    0 -0.43492286825E+01  0.42271835481E+02  0.22501736046E+01  0.90787893869E+02  0.80196973303E+02 0.  0.
          5    1    3    3  501    0 -0.11700107060E+02 -0.39552681892E+01  0.52218252647E+02  0.53864390474E+02  0.47000000000E+01 0. -1.
        -11    1    4    4    0    0 -0.10102209962E+02  0.17699071954E+02 -0.32439357807E+02  0.38309577511E+02  0.00000000000E+00 0.  1.
         12    1    4    4    0    0 -0.99270603714E+02 -0.57731312316E+02 -0.46630271969E+02  0.12394329126E+03  0.00000000000E+00 0. -1.
         -5    1    5    5    0  502  0.12542214942E+03  0.17156730706E+01 -0.11669591195E+02  0.12606319232E+03  0.47000000000E+01 0.  1.
         13    1    6    6    0    0  0.16841221376E+02  0.57518674470E+02 -0.11885845217E+02  0.61100719855E+02  0.00000000000E+00 0. -1.
        -14    1    6    6    0    0 -0.21190450058E+02 -0.15246838989E+02  0.14136018822E+02  0.29687174015E+02  0.00000000000E+00 0.  1.
</event>
<event>
12    1  0.1061634E+000  0.2134276E+03  0.7818608E-02  0.1139131E+00
         21   -1    0    0  501  502  0.00000000000E+00  0.00000000000E+00  0.33279030191E+03  0.33279030191E+03  0.00000000000E+00 0.  1.
         21   -1    0    0  502  503 -0.00000000000E+00 -0.00000000000E+00 -0.19339925580E+03  0.19339925580E+03  0.00000000000E+00 0.  1.
         -6    2    1    2    0  503 -0.12186209745E+03 -0.19473084359E+02  0.21281237207E+03  0.30048612824E+03  0.17254922703E+03 0.  0.
        -24    2    3    3    0    0 -0.28929182263E+02 -0.55602214656E+02  0.55599615085E+02  0.11426104470E+03  0.77690187780E+02 0.  0.
          6    2    1    2  501    0  0.12186209745E+03  0.19473084359E+02 -0.73421325950E+02  0.22570342947E+03  0.17413148814E+03 0.  0.
         24    2    5    5    0    0  0.13497120383E+03  0.50433824488E+02 -0.91326347703E+02  0.18732249797E+03  0.77384881883E+02 0.  0.
          5    1    5    5  501    0 -0.13109106382E+02 -0.30960740129E+02  0.17905021753E+02  0.38380931508E+02  0.47000000000E+01 0. -1.
        -11    1    6    6    0    0  0.10054569667E+02  0.30500214393E+02 -0.38765800856E+02  0.50340289681E+02  0.00000000000E+00 0.  1.
         12    1    6    6    0    0  0.12491663416E+03  0.19933610095E+02 -0.52560546848E+02  0.13698220828E+03  0.00000000000E+00 0. -1.
         -5    1    3    3    0  503 -0.92932915183E+02  0.36129130297E+02  0.15721275698E+03  0.18622508353E+03  0.47000000000E+01 0.  1.
         13    1    4    4    0    0 -0.25943229696E+01 -0.66767005873E+02  0.53470029443E+02  0.85578079164E+02  0.00000000000E+00 0. -1.
        -14    1    4    4    0    0 -0.26334859294E+02  0.11164791216E+02  0.21295856427E+01  0.28682965536E+02  0.00000000000E+00 0.  1.
</event>
<event>
12    1  0.1061634E+000  0.3070443E+03  0.7818608E-02  0.1081823E+00
         21   -1    0    0  501  502  0.00000000000E+00  0.00000000000E+00  0.20721171977E+03  0.20721171977E+03  0.00000000000E+00 0.  1.
         21   -1    0    0  502  503 -0.00000000000E+00 -0.00000000000E+00 -0.46392808255E+03  0.46392808255E+03  0.00000000000E+00 0.  1.
         -6    2    1    2    0  503  0.14261194260E+03  0.20941122166E+03 -0.80210225834E+02  0.31734818716E+03  0.17345018199E+03 0.  0.
        -24    2    3    3    0    0  0.68631916393E+02  0.20556965325E+03 -0.76817474727E+02  0.24304204552E+03  0.78735564903E+02 0.  0.
          6    2    1    2  501    0 -0.14261194260E+03 -0.20941122166E+03 -0.17650613694E+03  0.35379161516E+03  0.17269297800E+03 0.  0.
         24    2    5    5    0    0 -0.10904770641E+03 -0.92053407229E+02 -0.16306913995E+03  0.23090118653E+03  0.79740714085E+02 0.  0.
          5    1    5    5  501    0 -0.33564236194E+02 -0.11735781443E+03 -0.13436996990E+02  0.12289042863E+03  0.47000000000E+01 0. -1.
        -11    1    6    6    0    0 -0.23430531722E+02  0.30977798596E+01 -0.49386736586E-01  0.23634476848E+02  0.00000000000E+00 0.  1.
         12    1    6    6    0    0 -0.85617174687E+02 -0.95151187088E+02 -0.16301975322E+03  0.20726670969E+03  0.00000000000E+00 0. -1.
         -5    1    3    3    0  503  0.73980026210E+02  0.38415684154E+01 -0.33927511063E+01  0.74306141644E+02  0.47000000000E+01 0.  1.
         13    1    4    4    0    0 -0.12715630855E+02  0.75519240086E+02 -0.17358780363E+02  0.78524965119E+02  0.00000000000E+00 0. -1.
        -14    1    4    4    0    0  0.81347547247E+02  0.13005041316E+03 -0.59458694364E+02  0.16451708040E+03  0.00000000000E+00 0.  1.
</event>
<event>
12    1  0.1061634E+000  0.1886904E+03  0.7818608E-02  0.1159931E+00
         21   -1    0    0  503  502  0.00000000000E+00  0.00000000000E+00  0.13980023633E+04  0.13980023633E+04  0.00000000000E+00 0. -1.
         21   -1    0    0  501  503 -0.00000000000E+00 -0.00000000000E+00 -0.50467141056E+02  0.50467141056E+02  0.00000000000E+00 0. -1.
          6    2    1    2  501    0  0.30858474679E+02  0.67679963842E+02  0.11863119432E+04  0.12012244078E+04  0.17341057729E+03 0.  0.
         24    2    3    3    0    0  0.61007398932E+02  0.79727868640E+02  0.11196939140E+04  0.11269670077E+04  0.79131155559E+02 0.  0.
         -6    2    1    2    0  502 -0.30858474679E+02 -0.67679963842E+02  0.16122327908E+03  0.24724509660E+03  0.17205920235E+03 0.  0.
        -24    2    5    5    0    0 -0.65587837183E+02 -0.97944036847E+01  0.14334483906E+03  0.17725513081E+03  0.80460821417E+02 0.  0.
          5    1    3    3  501    0 -0.30148924253E+02 -0.12047904799E+02  0.66618029223E+02  0.74257400043E+02  0.47000000000E+01 0. -1.
        -11    1    4    4    0    0  0.73193347704E+02  0.84813600051E+02  0.91223808884E+03  0.91909136849E+03  0.00000000000E+00 0.  1.
         12    1    4    4    0    0 -0.12185948772E+02 -0.50857314102E+01  0.20745582513E+03  0.20787563925E+03  0.00000000000E+00 0. -1.
         -5    1    5    5    0  502  0.34729362504E+02 -0.57885560157E+02  0.17878440020E+02  0.69989965796E+02  0.47000000000E+01 0.  1.
         13    1    6    6    0    0 -0.69788063384E+02 -0.15045645159E+02  0.58926263973E+02  0.92569162333E+02  0.00000000000E+00 0. -1.
        -14    1    6    6    0    0  0.42002262013E+01  0.52512414741E+01  0.84418575083E+02  0.84685968473E+02  0.00000000000E+00 0.  1.
</event>
<event>
12    1  0.1061634E+000  0.2558570E+03  0.7818608E-02  0.1109868E+00
         21   -1    0    0  501  502  0.00000000000E+00  0.00000000000E+00  0.45197447262E+03  0.45197447262E+03  0.00000000000E+00 0. -1.
         21   -1    0    0  502  503 -0.00000000000E+00 -0.00000000000E+00 -0.20319904246E+03  0.20319904246E+03  0.00000000000E+00 0.  1.
         -6    2    1    2    0  503  0.12781839407E+03 -0.14183908150E+03 -0.52565030927E+02  0.25986492319E+03  0.16825822097E+03 0.  0.
        -24    2    3    3    0    0  0.23843144280E+02 -0.11358994975E+03  0.17024383813E+00  0.13981507847E+03  0.77955467865E+02 0.  0.
          6    2    1    2  501    0 -0.12781839407E+03  0.14183908150E+03  0.30134046110E+03  0.39530859189E+03  0.17031424611E+03 0.  0.
         24    2    5    5    0    0 -0.50545221893E+02  0.58147708088E+02  0.24606622825E+03  0.26860926302E+03  0.75275308584E+02 0.  0.
          5    1    5    5  501    0 -0.77273172174E+02  0.83691373409E+02  0.55274232850E+02  0.12669932888E+03  0.47000000000E+01 0. -1.
        -11    1    6    6    0    0  0.14839047405E+02  0.84789289488E+01  0.12914203808E+02  0.21421162994E+02  0.00000000000E+00 0.  1.
         12    1    6    6    0    0 -0.65384269298E+02  0.49668779139E+02  0.23315202444E+03  0.24718810002E+03  0.00000000000E+00 0. -1.
         -5    1    3    3    0  503  0.10397524979E+03 -0.28249131748E+02 -0.52735274765E+02  0.12004984472E+03  0.47000000000E+01 0.  1.
         13    1    4    4    0    0  0.92969216335E+01 -0.80118501994E+02  0.36311001245E+02  0.88452789244E+02  0.00000000000E+00 0. -1.
        -14    1    4    4    0    0  0.14546222646E+02 -0.33471447755E+02 -0.36140757407E+02  0.51362289221E+02  0.00000000000E+00 0.  1.
</event>
<event>
12    1  0.1061634E+000  0.2310318E+03  0.7818608E-02  0.1125920E+00
         21   -1    0    0  503  502  0.00000000000E+00  0.00000000000E+00  0.62784284203E+02  0.62784284203E+02  0.00000000000E+00 0. -1.
         21   -1    0    0  501  503 -0.00000000000E+00 -0.00000000000E+00 -0.19006548464E+04  0.19006548464E+04  0.00000000000E+00 0. -1.
          6    2    1    2  501    0  0.14771603373E+03  0.45491789234E+02 -0.18907047290E+03  0.29853532244E+03  0.17171536190E+03 0.  0.
         24    2    3    3    0    0  0.12063635343E+03  0.14882577096E+02 -0.43012587577E+02  0.14679465941E+03  0.70170994517E+02 0.  0.
         -6    2    1    2    0  502 -0.14771603373E+03 -0.45491789234E+02 -0.16488000893E+04  0.16649038082E+04  0.17167826435E+03 0.  0.
        -24    2    5    5    0    0 -0.14056032664E+03  0.15592915188E+02 -0.13548869616E+04  0.13645880379E+04  0.79884228275E+02 0.  0.
          5    1    3    3  501    0  0.27079680306E+02  0.30609212138E+02 -0.14605788532E+03  0.15174066303E+03  0.47000000000E+01 0. -1.
        -13    1    4    4    0    0  0.53563627103E+02 -0.94042646116E+01 -0.51572910389E+02  0.74948431787E+02  0.00000000000E+00 0.  1.
         14    1    4    4    0    0  0.67072726324E+02  0.24286841708E+02  0.85603228125E+01  0.71846227621E+02  0.00000000000E+00 0. -1.
         -5    1    5    5    0  502 -0.71557070969E+01 -0.61084704422E+02 -0.29391312767E+03  0.30031577027E+03  0.47000000000E+01 0.  1.
         13    1    6    6    0    0 -0.25768702744E+02  0.37559014576E+02 -0.38261005535E+03  0.38531176996E+03  0.00000000000E+00 0. -1.
        -14    1    6    6    0    0 -0.11479162389E+03 -0.21966099388E+02 -0.97227690629E+03  0.97927626793E+03  0.00000000000E+00 0.  1.
</event>
<event>
12    1  0.1061634E+000  0.2347223E+03  0.7818608E-02  0.1123429E+00
         21   -1    0    0  503  502  0.00000000000E+00  0.00000000000E+00  0.83563827742E+03  0.83563827742E+03  0.00000000000E+00 0. -1.
         21   -1    0    0  501  503 -0.00000000000E+00 -0.00000000000E+00 -0.13158745773E+03  0.13158745773E+03  0.00000000000E+00 0. -1.
          6    2    1    2  501    0  0.15347732570E+03 -0.40502456743E+02  0.69407936636E+03  0.73269416360E+03  0.17291278745E+03 0.  0.
         24    2    3    3    0    0  0.94863942572E+02  0.36791566363E+02  0.48865737100E+03  0.50547140755E+03  0.79765472878E+02 0.  0.
         -6    2    1    2    0  502 -0.15347732570E+03  0.40502456743E+02  0.99714533342E+01  0.23453157155E+03  0.17236556984E+03 0.  0.
        -24    2    5    5    0    0 -0.28685859215E+02  0.94941614409E+01 -0.43083978811E+02  0.95350418496E+02  0.79513869588E+02 0.  0.
          5    1    3    3  501    0  0.58613383130E+02 -0.77294023106E+02  0.20542199536E+03  0.22722275605E+03  0.47000000000E+01 0. -1.
        -11    1    4    4    0    0  0.19039753206E+02 -0.24495263968E+01  0.15500193842E+02  0.24673232274E+02  0.00000000000E+00 0.  1.
         12    1    4    4    0    0  0.75824189366E+02  0.39241092759E+02  0.47315717715E+03  0.48079817527E+03  0.00000000000E+00 0. -1.
         -5    1    5    5    0  502 -0.12479146649E+03  0.31008295302E+02  0.53055432145E+02  0.13918115306E+03  0.47000000000E+01 0.  1.
         13    1    6    6    0    0 -0.34512039840E+02  0.39709666808E+02 -0.36071493526E+02  0.63789428412E+02  0.00000000000E+00 0. -1.
        -14    1    6    6    0    0  0.58261806253E+01 -0.30215505367E+02 -0.70124852843E+01  0.31560990084E+02  0.00000000000E+00 0.  1.
</event>
<event>
12    1  0.1061634E+000  0.1962436E+03  0.7818608E-02  0.1153081E+00
         21   -1    0    0  503  502  0.00000000000E+00  0.00000000000E+00  0.19317132231E+04  0.19317132231E+04  0.00000000000E+00 0. -1.
         21   -1    0    0  501  503 -0.00000000000E+00 -0.00000000000E+00 -0.41140416173E+02  0.41140416173E+02  0.00000000000E+00 0. -1.
          6    2    1    2  501    0 -0.43660580475E+02 -0.86509827631E+02  0.16552198593E+04  0.16668126254E+04  0.17064978532E+03 0.  0.
         24    2    3    3    0    0 -0.35334610634E+02 -0.41981142756E+01  0.10981261130E+04  0.11035896926E+04  0.10374531656E+03 0.  0.
         -6    2    1    2    0  502  0.43660580475E+02  0.86509827631E+02  0.23535294763E+03  0.30604101381E+03  0.16994085916E+03 0.  0.
        -24    2    5    5    0    0 -0.25568207809E+02  0.77998329218E+02  0.96476587053E+02  0.15056174105E+03  0.81385707626E+02 0.  0.
          5    1    3    3  501    0 -0.83259698413E+01 -0.82311713355E+02  0.55709374626E+03  0.56322293282E+03  0.47000000000E+01 0. -1.
        -13    1    4    4    0    0 -0.38865694683E+02  0.15784599835E+02  0.16519507512E+03  0.17043799066E+03  0.00000000000E+00 0.  1.
         14    1    4    4    0    0  0.35310840490E+01 -0.19982714111E+02  0.93293103788E+03  0.93315170195E+03  0.00000000000E+00 0. -1.
         -5    1    5    5    0  502  0.69228788284E+02  0.85114984130E+01  0.13887636058E+03  0.15547927277E+03  0.47000000000E+01 0.  1.
         13    1    6    6    0    0 -0.29941987087E+02  0.89367326075E+02  0.10045517314E+03  0.13774717192E+03  0.00000000000E+00 0. -1.
        -14    1    6    6    0    0  0.43737792781E+01 -0.11368996857E+02 -0.39785860864E+01  0.12814569129E+02  0.00000000000E+00 0.  1.
</event>
<event>
12    1  0.1061634E+000  0.2194847E+03  0.7818608E-02  0.1134545E+00
         21   -1    0    0  503  502  0.00000000000E+00  0.00000000000E+00  0.26986109336E+03  0.26986109336E+03  0.00000000000E+00 0. -1.
         21   -1    0    0  501  503 -0.00000000000E+00 -0.00000000000E+00 -0.40678529863E+03  0.40678529863E+03  0.00000000000E+00 0. -1.
          6    2    1    2  501    0  0.62959202884E+02  0.11903885851E+03 -0.32266740882E+03  0.39024065709E+03  0.17331878913E+03 0.  0.
         24    2    3    3    0    0  0.64161763942E+02  0.75803506069E+02 -0.96309540732E+02  0.15973964559E+03  0.79864405422E+02 0.  0.
         -6    2    1    2    0  502 -0.62959202884E+02 -0.11903885851E+03  0.18574320355E+03  0.28640573490E+03  0.17144560728E+03 0.  0.
        -24    2    5    5    0    0  0.22727203534E+02 -0.85510874261E+02  0.70327786503E+02  0.13872670976E+03  0.80439213386E+02 0.  0.
          5    1    3    3  501    0 -0.12025610573E+01  0.43235352438E+02 -0.22635786809E+03  0.23050101149E+03  0.47000000000E+01 0. -1.
        -11    1    4    4    0    0  0.15933740998E+02  0.64027281206E+02 -0.87064775759E+02  0.10924125603E+03  0.00000000000E+00 0.  1.
         12    1    4    4    0    0  0.48228022944E+02  0.11776224863E+02 -0.92447649738E+01  0.50498389563E+02  0.00000000000E+00 0. -1.
         -5    1    5    5    0  502 -0.85686406418E+02 -0.33527984246E+02  0.11541541705E+03  0.14767902514E+03  0.47000000000E+01 0.  1.
         11    1    6    6    0    0 -0.77453089832E+01 -0.40168458879E+02  0.73378108071E+02  0.84010961451E+02  0.00000000000E+00 0. -1.
        -12    1    6    6    0    0  0.30472512517E+02 -0.45342415382E+02 -0.30503215676E+01  0.54715748313E+02  0.00000000000E+00 0.  1.
</event>
<event>
12    1  0.1061634E+000  0.1953356E+03  0.7818608E-02  0.1157107E+00
         21   -1    0    0  501  502  0.00000000000E+00  0.00000000000E+00  0.92178036341E+02  0.92178036341E+02  0.00000000000E+00 0.  1.
         21   -1    0    0  502  503 -0.00000000000E+00 -0.00000000000E+00 -0.40012585024E+03  0.40012585024E+03  0.00000000000E+00 0.  1.
         -6    2    1    2    0  503  0.35714856378E+02 -0.34133341279E+02 -0.19896100346E+03  0.26862080908E+03  0.17358289727E+03 0.  0.
        -24    2    3    3    0    0  0.75316416673E+02 -0.67052712734E+02 -0.15320690444E+03  0.19957375142E+03  0.78668276854E+02 0.  0.
          6    2    1    2  501    0 -0.35714856378E+02  0.34133341279E+02 -0.10898681044E+03  0.22368307749E+03  0.18898507442E+03 0.  0.
         24    2    5    5    0    0  0.14766559897E+01 -0.38252123964E+02  0.25586251702E+01  0.85526143626E+02  0.76438008740E+02 0.  0.
          5    1    5    5  501    0 -0.37191512367E+02  0.72385465243E+02 -0.11154543561E+03  0.13815693387E+03  0.47000000000E+01 0. -1.
        -13    1    6    6    0    0  0.30702493755E+02 -0.45883633293E+02 -0.45977113203E-01  0.55208269678E+02  0.00000000000E+00 0.  1.
         14    1    6    6    0    0 -0.29225837765E+02  0.76315093290E+01  0.26046022834E+01  0.30317873948E+02  0.00000000000E+00 0. -1.
         -5    1    3    3    0  503 -0.39601560295E+02  0.32919371455E+02 -0.45754099018E+02  0.69047057662E+02  0.47000000000E+01 0.  1.
         11    1    4    4    0    0  0.17120033353E+02 -0.17663357940E+02 -0.10820581940E+03  0.11096661259E+03  0.00000000000E+00 0. -1.
        -12    1    4    4    0    0  0.58196383320E+02 -0.49389354794E+02 -0.45001085036E+02  0.88607138837E+02  0.00000000000E+00 0.  1.
</event>
<event>
12    1  0.1061634E+000  0.1769715E+03  0.7818608E-02  0.1171531E+00
         21   -1    0    0  503  502  0.00000000000E+00  0.00000000000E+00  0.71307411436E+03  0.71307411436E+03  0.00000000000E+00 0. -1.
         21   -1    0    0  501  503 -0.00000000000E+00 -0.00000000000E+00 -0.45050754948E+02  0.45050754948E+02  0.00000000000E+00 0. -1.
          6    2    1    2  501    0  0.28202692572E+02 -0.21676666656E+02  0.25924290468E+03  0.31388819794E+03  0.17335987839E+03 0.  0.
         24    2    3    3    0    0  0.69261833952E+02  0.30329876026E+02  0.17404707818E+03  0.20585601559E+03  0.79794803754E+02 0.  0.
         -6    2    1    2    0  502 -0.28202692572E+02  0.21676666656E+02  0.40878045474E+03  0.44423667137E+03  0.17023363437E+03 0.  0.
        -24    2    5    5    0    0 -0.81034695677E+02  0.14256289674E+02  0.21737131675E+03  0.24547593417E+03  0.78982790614E+02 0.  0.
          5    1    3    3  501    0 -0.41059141381E+02 -0.52006542682E+02  0.85195826496E+02  0.10803218236E+03  0.47000000000E+01 0. -1.
        -13    1    4    4    0    0  0.67764964162E+02 -0.97452298618E+01  0.12480926486E+03  0.14235312595E+03  0.00000000000E+00 0.  1.
         14    1    4    4    0    0  0.14968697906E+01  0.40075105888E+02  0.49237813323E+02  0.63502889634E+02  0.00000000000E+00 0. -1.
         -5    1    5    5    0  502  0.52832003105E+02  0.74203769823E+01  0.19140913799E+03  0.19876073720E+03  0.47000000000E+01 0.  1.
         11    1    6    6    0    0 -0.36036429908E+01  0.15287346266E+02  0.10838438037E+01  0.15743694486E+02  0.00000000000E+00 0. -1.
        -12    1    6    6    0    0 -0.77431052686E+02 -0.10310565925E+01  0.21628747294E+03  0.22973223968E+03  0.00000000000E+00 0.  1.
</event>
<event>
12    1  0.1061634E+000  0.1858111E+03  0.7818608E-02  0.1162497E+00
         21   -1    0    0  503  502  0.00000000000E+00  0.00000000000E+00  0.54519649083E+02  0.54519649083E+02  0.00000000000E+00 0.  1.
         21   -1    0    0  501  503 -0.00000000000E+00 -0.00000000000E+00 -0.66592850885E+03  0.66592850885E+03  0.00000000000E+00 0.  1.
          6    2    1    2  501    0  0.67436999586E+02  0.35119887570E+01 -0.38833050186E+03  0.43012124063E+03  0.17217322670E+03 0.  0.
         24    2    3    3    0    0 -0.14893932979E+02  0.40303767999E+02 -0.24004939335E+03  0.25650846858E+03  0.79540305854E+02 0.  0.
         -6    2    1    2    0  502 -0.67436999586E+02 -0.35119887570E+01 -0.22307835791E+03  0.29032691730E+03  0.17310598535E+03 0.  0.
        -24    2    5    5    0    0  0.15719279653E+02 -0.36487122603E+02 -0.14607710995E+03  0.17220152453E+03  0.82075801128E+02 0.  0.
          5    1    3    3  501    0  0.82330932565E+02 -0.36791779242E+02 -0.14828110851E+03  0.17361277205E+03  0.47000000000E+01 0. -1.
        -11    1    4    4    0    0  0.22938056983E+02 -0.76880906002E+01 -0.11254731751E+03  0.11511802584E+03  0.00000000000E+00 0.  1.
         12    1    4    4    0    0 -0.37831989962E+02  0.47991858600E+02 -0.12750207584E+03  0.14139044274E+03  0.00000000000E+00 0. -1.
         -5    1    5    5    0  502 -0.83156279239E+02  0.32975133846E+02 -0.77001247957E+02  0.11812539277E+03  0.47000000000E+01 0.  1.
         13    1    6    6    0    0 -0.27941565846E+02  0.63336425817E+01 -0.33451227728E+02  0.44043509928E+02  0.00000000000E+00 0. -1.
        -14    1    6    6    0    0  0.43660845499E+02 -0.42820765185E+02 -0.11262588222E+03  0.12815801460E+03  0.00000000000E+00 0.  1.
</event>
<event>
12    1  0.1063291E+000  0.2335898E+03  0.7818608E-02  0.1124218E+00
         21   -1    0    0  501  502  0.00000000000E+00  0.00000000000E+00  0.97515224662E+03  0.97515224662E+03  0.00000000000E+00 0. -1.
         21   -1    0    0  502  503 -0.00000000000E+00 -0.00000000000E+00 -0.22276018496E+03  0.22276018496E+03  0.00000000000E+00 0. -1.
         -6    2    1    2    0  503  0.44208357469E+02  0.15247290992E+03  0.89457522728E+03  0.92445266053E+03  0.17072058217E+03 0.  0.
        -24    2    3    3    0    0  0.15828342145E+02  0.58416491943E+02  0.69206815332E+03  0.69932327543E+03  0.80197828988E+02 0.  0.
          6    2    1    2  501    0 -0.44208357469E+02 -0.15247290992E+03 -0.14218316563E+03  0.27345977105E+03  0.17135293013E+03 0.  0.
         24    2    5    5    0    0  0.25095118333E+02 -0.92433942064E+02 -0.44450706155E+02  0.13936512890E+03  0.90955897362E+02 0.  0.
          5    1    5    5  501    0 -0.69303475802E+02 -0.60038967859E+02 -0.97732459470E+02  0.13409464215E+03  0.47000000000E+01 0. -1.
        -13    1    6    6    0    0  0.91670049166E+00 -0.82170021995E+02 -0.65993520983E+02  0.10539401153E+03  0.00000000000E+00 0.  1.
         14    1    6    6    0    0  0.24178417842E+02 -0.10263920069E+02  0.21542814828E+02  0.33971117368E+02  0.00000000000E+00 0. -1.
         -5    1    3    3    0  503  0.28380015324E+02  0.94056417980E+02  0.20250707396E+03  0.22512938511E+03  0.47000000000E+01 0.  1.
         11    1    4    4    0    0 -0.30211913526E+02  0.33510834921E+02  0.40659652652E+03  0.40909225262E+03  0.00000000000E+00 0. -1.
        -12    1    4    4    0    0  0.46040255671E+02  0.24905657022E+02  0.28547162679E+03  0.29023102280E+03  0.00000000000E+00 0.  1.
</event>
<event>
12    1  0.1220792E+000  0.3117296E+03  0.7818608E-02  0.1079552E+00
         21   -1    0    0  503  502  0.00000000000E+00  0.00000000000E+00  0.34176906680E+03  0.34176906680E+03  0.00000000000E+00 0.  1.
         21   -1    0    0  501  503 -0.00000000000E+00 -0.00000000000E+00 -0.70856628488E+03  0.70856628488E+03  0.00000000000E+00 0.  1.
          6    2    1    2  501    0 -0.98676502379E+02  0.24014059720E+03  0.22311096765E+03  0.38312697432E+03  0.17205585145E+03 0.  0.
         24    2    3    3    0    0 -0.75228657030E+02  0.19756269007E+03  0.91454594226E+02  0.24270557178E+03  0.76496303330E+02 0.  0.
         -6    2    1    2    0  502  0.98676502379E+02 -0.24014059720E+03 -0.58990818573E+03  0.66720837737E+03  0.17254214759E+03 0.  0.
        -24    2    5    5    0    0  0.10022699902E+02 -0.76419089948E+02 -0.31576368853E+03  0.33578489604E+03  0.84287944532E+02 0.  0.
          5    1    3    3  501    0 -0.23447845349E+02  0.42577907128E+02  0.13165637342E+03  0.14042140253E+03  0.47000000000E+01 0. -1.
        -11    1    4    4    0    0 -0.21600784719E+02  0.13264723897E+02 -0.79298080311E+01  0.26559906927E+02  0.00000000000E+00 0.  1.
         12    1    4    4    0    0 -0.53627872310E+02  0.18429796617E+03  0.99384402257E+02  0.21614566485E+03  0.00000000000E+00 0. -1.
         -5    1    5    5    0  502  0.88653802478E+02 -0.16372150725E+03 -0.27414449720E+03  0.33142348132E+03  0.47000000000E+01 0.  1.
         11    1    6    6    0    0 -0.93595741278E+01 -0.87378806206E+02 -0.20899509216E+03  0.22671922271E+03  0.00000000000E+00 0. -1.
        -12    1    6    6    0    0  0.19382274029E+02  0.10959716259E+02 -0.10676859637E+03  0.10906567333E+03  0.00000000000E+00 0.  1.
</event>
<event>
12    1  0.1061634E+000  0.1750433E+03  0.7818608E-02  0.1173324E+00
         21   -1    0    0  501  502  0.00000000000E+00  0.00000000000E+00  0.96221983383E+03  0.96221983383E+03  0.00000000000E+00 0.  1.
         21   -1    0    0  502  503 -0.00000000000E+00 -0.00000000000E+00 -0.33420584463E+02  0.33420584463E+02  0.00000000000E+00 0.  1.
         -6    2    1    2    0  503 -0.40637920873E+02 -0.14962944467E+01  0.33845598026E+03  0.37989263904E+03  0.16766719154E+03 0.  0.
        -24    2    3    3    0    0 -0.43732450443E+02  0.33593899764E+01  0.67669240945E+02  0.10900391286E+03  0.73341080758E+02 0.  0.
          6    2    1    2  501    0  0.40637920873E+02  0.14962944467E+01  0.59034326911E+03  0.61574777925E+03  0.17025414167E+03 0.  0.
         24    2    5    5    0    0  0.53143474522E+02 -0.37427395794E+02  0.54482373993E+03  0.55438361975E+03  0.79266962963E+02 0.  0.
          5    1    5    5  501    0 -0.12505553649E+02  0.38923690241E+02  0.45519529183E+02  0.61364159500E+02  0.47000000000E+01 0. -1.
        -11    1    6    6    0    0 -0.14449354900E+02 -0.35353107214E+01  0.23484999982E+03  0.23532064230E+03  0.00000000000E+00 0.  1.
         12    1    6    6    0    0  0.67592829423E+02 -0.33892085073E+02  0.30997374011E+03  0.31906297745E+03  0.00000000000E+00 0. -1.
         -5    1    3    3    0  503  0.30945295697E+01 -0.48556844231E+01  0.27078673931E+03  0.27088872618E+03  0.47000000000E+01 0.  1.
         11    1    4    4    0    0 -0.38632533990E+01 -0.73209212369E+01 -0.14700827620E+02  0.16871127624E+02  0.00000000000E+00 0. -1.
        -12    1    4    4    0    0 -0.39869197044E+02  0.10680311213E+02  0.82370068565E+02  0.92132785239E+02  0.00000000000E+00 0.  1.
</event>
<event>
12    1  0.1061634E+000  0.3560021E+03  0.7818608E-02  0.1060659E+00
         21   -1    0    0  501  502  0.00000000000E+00  0.00000000000E+00  0.11097000447E+03  0.11097000447E+03  0.00000000000E+00 0. -1.
         21   -1    0    0  502  503 -0.00000000000E+00 -0.00000000000E+00 -0.12683751582E+04  0.12683751582E+04  0.00000000000E+00 0. -1.
         -6    2    1    2    0  503 -0.18593417606E+03  0.24961430125E+03 -0.35182536377E+03  0.50051829740E+03  0.17279659205E+03 0.  0.
        -24    2    3    3    0    0 -0.20644363801E+02  0.12521585074E+03 -0.16027405965E+03  0.21854367330E+03  0.77255186945E+02 0.  0.
          6    2    1    2  501    0  0.18593417606E+03 -0.24961430125E+03 -0.80557978995E+03  0.87882686526E+03  0.16278526930E+03 0.  0.
         24    2    5    5    0    0  0.54368056799E+02 -0.18584409447E+03 -0.39189355105E+03  0.44003912925E+03  0.50596115147E+02 0.  0.
          5    1    5    5  501    0  0.13156611927E+03 -0.63770206778E+02 -0.41368623890E+03  0.43878773601E+03  0.47000000000E+01 0. -1.
        -13    1    6    6    0    0  0.51741585585E+02 -0.13985096941E+03 -0.33603549176E+03  0.36763478759E+03  0.00000000000E+00 0.  1.
         14    1    6    6    0    0  0.26264712141E+01 -0.45993125059E+02 -0.55858059290E+02  0.72404341661E+02  0.00000000000E+00 0. -1.
         -5    1    3    3    0  503 -0.16528981226E+03  0.12439845051E+03 -0.19155130412E+03  0.28197462410E+03  0.47000000000E+01 0.  1.
         11    1    4    4    0    0 -0.19009823302E+02 -0.12924053466E+01 -0.38426728622E+02  0.42891224815E+02  0.00000000000E+00 0. -1.
        -12    1    4    4    0    0 -0.16345404991E+01  0.12650825608E+03 -0.12184733103E+03  0.17565244849E+03  0.00000000000E+00 0.  1.
</event>
<event>
12    1  0.1061634E+000  0.1784423E+03  0.7818608E-02  0.1170461E+00
         21   -1    0    0  503  502  0.00000000000E+00  0.00000000000E+00  0.87199243202E+03  0.87199243202E+03  0.00000000000E+00 0. -1.
         21   -1    0    0  501  503 -0.00000000000E+00 -0.00000000000E+00 -0.40029398509E+02  0.40029398509E+02  0.00000000000E+00 0. -1.
          6    2    1    2  501    0  0.45988999758E+02  0.72593619342E+01  0.57281933051E+03  0.59996968873E+03  0.17226130021E+03 0.  0.
         24    2    3    3    0    0  0.16982154978E+02  0.55225374015E+02  0.49041396478E+03  0.50019559559E+03  0.79696558774E+02 0.  0.
         -6    2    1    2    0  502 -0.45988999758E+02 -0.72593619342E+01  0.25914370300E+03  0.31205214180E+03  0.16749147430E+03 0.  0.
        -24    2    5    5    0    0 -0.51698252014E+02 -0.39226868462E+02  0.74806039558E+02  0.12481704574E+03  0.75972987842E+02 0.  0.
          5    1    3    3  501    0  0.29006844779E+02 -0.47966012081E+02  0.82405365733E+02  0.99774093133E+02  0.47000000000E+01 0. -1.
        -11    1    4    4    0    0  0.40052677339E+02  0.20534380534E+01  0.17958572500E+03  0.18400941876E+03  0.00000000000E+00 0.  1.
         12    1    4    4    0    0 -0.23070522360E+02  0.53171935961E+02  0.31082823978E+03  0.31618617683E+03  0.00000000000E+00 0. -1.
         -5    1    5    5    0  502  0.57092522563E+01  0.31967506527E+02  0.18433766344E+03  0.18723509606E+03  0.47000000000E+01 0.  1.
         13    1    6    6    0    0 -0.43149190439E+02 -0.41126263784E+02  0.89605014207E+02  0.10762100529E+03  0.00000000000E+00 0. -1.
        -14    1    6    6    0    0 -0.85490615746E+01  0.18993953229E+01 -0.14798974649E+02  0.17196040448E+02  0.00000000000E+00 0.  1.
</event>
<event>
12    1  0.1061634E+000  0.4794994E+03  0.7818608E-02  0.1019362E+00
         21   -1    0    0  501  502  0.00000000000E+00  0.00000000000E+00  0.66763711444E+03  0.66763711444E+03  0.00000000000E+00 0.  1.
         21   -1    0    0  502  503 -0.00000000000E+00 -0.00000000000E+00 -0.36424872889E+03  0.36424872889E+03  0.00000000000E+00 0.  1.
         -6    2    1    2    0  503  0.37177251989E+03 -0.25013547960E+03  0.28200470163E+02  0.47903140161E+03  0.16701273158E+03 0.  0.
        -24    2    3    3    0    0  0.23170198316E+03 -0.91881154713E+02  0.50004314897E+02  0.26651861552E+03  0.80023654748E+02 0.  0.
          6    2    1    2  501    0 -0.37177251989E+03  0.25013547960E+03  0.27518791538E+03  0.55285444173E+03  0.17069587066E+03 0.  0.
         24    2    5    5    0    0 -0.16921540658E+03  0.10653914129E+03  0.57827975458E+02  0.22282910025E+03  0.79525409297E+02 0.  0.
          5    1    5    5  501    0 -0.20255711331E+03  0.14359633831E+03  0.21735993992E+03  0.33002534147E+03  0.47000000000E+01 0. -1.
        -11    1    6    6    0    0  0.41123090902E+00  0.21297879041E+02  0.20076551850E+02  0.29271773036E+02  0.00000000000E+00 0.  1.
         12    1    6    6    0    0 -0.16962663749E+03  0.85241262253E+02  0.37751423608E+02  0.19355732722E+03  0.00000000000E+00 0. -1.
         -5    1    3    3    0  503  0.14007053673E+03 -0.15825432489E+03 -0.21803844734E+02  0.21251278609E+03  0.47000000000E+01 0.  1.
         11    1    4    4    0    0  0.40042400583E+02 -0.42122523682E+02  0.35213393181E+02  0.67953542256E+02  0.00000000000E+00 0. -1.
        -12    1    4    4    0    0  0.19165958257E+03 -0.49758631031E+02  0.14790921716E+02  0.19856507326E+03  0.00000000000E+00 0.  1.
</event>
<event>
12    1  0.1061634E+000  0.2233002E+03  0.7818608E-02  0.1134132E+00
         21   -1    0    0  503  502  0.00000000000E+00  0.00000000000E+00  0.10358720740E+04  0.10358720740E+04  0.00000000000E+00 0.  1.
         21   -1    0    0  501  503 -0.00000000000E+00 -0.00000000000E+00 -0.45823093375E+02  0.45823093375E+02  0.00000000000E+00 0. -1.
          6    2    1    2  501    0  0.12461823551E+03 -0.16825594202E+02  0.54565308855E+03  0.58435153474E+03  0.16708266778E+03 0.  0.
         24    2    3    3    0    0  0.11882900615E+03 -0.65035796639E+02  0.45549455217E+03  0.48184109392E+03  0.79659055904E+02 0.  0.
         -6    2    1    2    0  502 -0.12461823551E+03  0.16825594202E+02  0.44439589204E+03  0.49734363260E+03  0.18452689447E+03 0.  0.
        -24    2    5    5    0    0  0.10836622134E+02  0.23704402154E+02  0.21291749145E+03  0.22901607829E+03  0.80219541838E+02 0.  0.
          5    1    3    3  501    0  0.57892293568E+01  0.48210202437E+02  0.90158536384E+02  0.10251044083E+03  0.47000000000E+01 0. -1.
        -13    1    4    4    0    0  0.11931436943E+03 -0.43016197525E+02  0.31408482980E+03  0.33872642695E+03  0.00000000000E+00 0.  1.
         14    1    4    4    0    0 -0.48536327735E+00 -0.22019599114E+02  0.14140972236E+03  0.14311466697E+03  0.00000000000E+00 0. -1.
         -5    1    5    5    0  502 -0.13545485764E+03 -0.68788079517E+01  0.23147840060E+03  0.26832755431E+03  0.47000000000E+01 0.  1.
         13    1    6    6    0    0  0.77820740685E+01  0.48261886457E+02  0.18657463278E+03  0.19287266254E+03  0.00000000000E+00 0. -1.
        -14    1    6    6    0    0  0.30545480659E+01 -0.24557484303E+02  0.26342858670E+02  0.36143415750E+02  0.00000000000E+00 0.  1.
</event>
<event>
12    1  0.1061634E+000  0.1910302E+03  0.7818608E-02  0.1159130E+00
         21   -1    0    0  503  502  0.00000000000E+00  0.00000000000E+00  0.25236837079E+03  0.25236837079E+03  0.00000000000E+00 0.  1.
         21   -1    0    0  501  503 -0.00000000000E+00 -0.00000000000E+00 -0.14414912513E+03  0.14414912513E+03  0.00000000000E+00 0.  1.
          6    2    1    2  501    0 -0.94307549676E+00 -0.60078634373E+02  0.89250558169E+02  0.20454779958E+03  0.17396496337E+03 0.  0.
         24    2    3    3    0    0 -0.46001996349E+02 -0.43150245545E+02 -0.35273420695E+00  0.10272581423E+03  0.81082310828E+02 0.  0.
         -6    2    1    2    0  502  0.94307549676E+00  0.60078634373E+02  0.18968687487E+02  0.19196969633E+03  0.18133455685E+03 0.  0.
        -24    2    5    5    0    0 -0.60072786442E+02  0.78983106703E+02  0.15035609235E+02  0.12779903648E+03  0.79116707235E+02 0.  0.
          5    1    3    3  501    0  0.45058920852E+02 -0.16928388828E+02  0.89603292376E+02  0.10182198535E+03  0.47000000000E+01 0. -1.
        -13    1    4    4    0    0 -0.46373683307E+02  0.11359381437E+02 -0.50599645244E+01  0.48012053602E+02  0.00000000000E+00 0.  1.
         14    1    4    4    0    0  0.37168695808E+00 -0.54509626982E+02  0.47072303174E+01  0.54713760629E+02  0.00000000000E+00 0. -1.
         -5    1    5    5    0  502  0.61015861939E+02 -0.18904472330E+02  0.39330782524E+01  0.64170659859E+02  0.47000000000E+01 0.  1.
         13    1    6    6    0    0 -0.48200631105E+02  0.12490376098E+02 -0.17563480255E+02  0.52799490269E+02  0.00000000000E+00 0. -1.
        -14    1    6    6    0    0 -0.11872155337E+02  0.66492730605E+02  0.32599089490E+02  0.74999546207E+02  0.00000000000E+00 0.  1.
</event>
<event>
12    1  0.1061634E+000  0.1810843E+03  0.7818608E-02  0.1167197E+00
         21   -1    0    0  501  502  0.00000000000E+00  0.00000000000E+00  0.16155864699E+03  0.16155864699E+03  0.00000000000E+00 0. -1.
         21   -1    0    0  502  503 -0.00000000000E+00 -0.00000000000E+00 -0.22373121969E+03  0.22373121969E+03  0.00000000000E+00 0. -1.
         -6    2    1    2    0  503  0.18001852395E+01 -0.53387376904E+02  0.30266720327E+02  0.18359633669E+03  0.17302626334E+03 0.  0.
        -24    2    3    3    0    0  0.64401279236E+02 -0.19557774985E+02  0.30548256249E+02  0.11228358749E+03  0.84524414996E+02 0.  0.
          6    2    1    2  501    0 -0.18001852395E+01  0.53387376904E+02 -0.92439293025E+02  0.20169353000E+03  0.17111926971E+03 0.  0.
         24    2    5    5    0    0  0.40981203735E+02 -0.22918218996E+02 -0.40451678294E+02  0.99823056876E+02  0.78253438172E+02 0.  0.
          5    1    5    5  501    0 -0.42781388975E+02  0.76305595900E+02 -0.51987614731E+02  0.10187047312E+03  0.47000000000E+01 0. -1.
        -11    1    6    6    0    0 -0.46211993509E+01  0.21144977573E+02 -0.27679392167E+02  0.35137078859E+02  0.00000000000E+00 0.  1.
         12    1    6    6    0    0  0.45602403086E+02 -0.44063196569E+02 -0.12772286126E+02  0.64685978017E+02  0.00000000000E+00 0. -1.
         -5    1    3    3    0  503 -0.62601093996E+02 -0.33829601919E+02 -0.28153592183E+00  0.71312749197E+02  0.47000000000E+01 0.  1.
         13    1    4    4    0    0  0.51206937435E+02  0.14446966839E+02 -0.13698355107E+02  0.54940970368E+02  0.00000000000E+00 0. -1.
        -14    1    4    4    0    0  0.13194341801E+02 -0.34004741824E+02  0.44246611356E+02  0.57342617123E+02  0.00000000000E+00 0.  1.
</event>
<event>
12    1  0.1061634E+000  0.2018279E+03  0.7818608E-02  0.1148492E+00
         21   -1    0    0  501  502  0.00000000000E+00  0.00000000000E+00  0.39564561870E+03  0.39564561870E+03  0.00000000000E+00 0.  1.
         21   -1    0    0  502  503 -0.00000000000E+00 -0.00000000000E+00 -0.11689492702E+03  0.11689492702E+03  0.00000000000E+00 0.  1.
         -6    2    1    2    0  503 -0.98093031091E+02  0.37028399836E+02  0.48288256104E+02  0.20619524261E+03  0.17085484264E+03 0.  0.
        -24    2    3    3    0    0 -0.13229197391E+03  0.10493288516E+02  0.30839869612E+02  0.15928878235E+03  0.82526015038E+02 0.  0.
          6    2    1    2  501    0  0.98093031091E+02 -0.37028399836E+02  0.23046243558E+03  0.30634530312E+03  0.17245627093E+03 0.  0.
         24    2    5    5    0    0  0.66835564538E+02  0.24917204458E+02  0.60607935619E+02  0.12280531220E+03  0.79498195454E+02 0.  0.
          5    1    5    5  501    0  0.31257466553E+02 -0.61945604294E+02  0.16985449996E+03  0.18353999091E+03  0.47000000000E+01 0. -1.
        -13    1    6    6    0    0  0.43179907361E+02  0.45777919795E+02  0.65564872667E+02  0.90878352034E+02  0.00000000000E+00 0.  1.
         14    1    6    6    0    0  0.23655657177E+02 -0.20860715338E+02 -0.49569370475E+01  0.31926960171E+02  0.00000000000E+00 0. -1.
         -5    1    3    3    0  503  0.34198942823E+02  0.26535111320E+02  0.17448386491E+02  0.46906460260E+02  0.47000000000E+01 0.  1.
         13    1    4    4    0    0 -0.43842866753E+02 -0.11884967188E+02  0.48400384882E+02  0.66378058625E+02  0.00000000000E+00 0. -1.
        -14    1    4    4    0    0 -0.88449107161E+02  0.22378255704E+02 -0.17560515270E+02  0.92910723722E+02  0.00000000000E+00 0.  1.
</event>
<event>
12    1  0.1061634E+000  0.2542368E+03  0.7818608E-02  0.1111072E+00
         21   -1    0    0  503  502  0.00000000000E+00  0.00000000000E+00  0.24079517377E+02  0.24079517377E+02  0.00000000000E+00 0.  1.
         21   -1    0    0  501  503 -0.00000000000E+00 -0.00000000000E+00 -0.28033197544E+04  0.28033197544E+04  0.00000000000E+00 0.  1.
          6    2    1    2  501    0  0.18644212449E+03 -0.51457453852E+01 -0.10587141094E+04  0.10881906794E+04  0.16880830791E+03 0.  0.
         24    2    3    3    0    0  0.35118968648E+02  0.11452072028E+02 -0.27859784701E+03  0.29334625570E+03  0.84087891315E+02 0.  0.
         -6    2    1    2    0  502 -0.18644212449E+03  0.51457453852E+01 -0.17205261276E+04  0.17392085924E+04  0.17276928972E+03 0.  0.
        -24    2    5    5    0    0 -0.23227023166E+02  0.65973049034E+01 -0.49975276710E+03  0.50756295986E+03  0.85348174910E+02 0.  0.
          5    1    3    3  501    0  0.15132315584E+03 -0.16597817413E+02 -0.78011626240E+03  0.79484442371E+03  0.47000000000E+01 0. -1.
        -11    1    4    4    0    0 -0.29324534979E+01  0.32965322692E+02 -0.20571452688E+03  0.20835973304E+03  0.00000000000E+00 0.  1.
         12    1    4    4    0    0  0.38051422145E+02 -0.21513250664E+02 -0.72883320126E+02  0.84986522661E+02  0.00000000000E+00 0. -1.
         -5    1    5    5    0  502 -0.16321510133E+03 -0.14515595181E+01 -0.12207733605E+04  0.12316456325E+04  0.47000000000E+01 0.  1.
         11    1    6    6    0    0 -0.23317896017E+02  0.32833662857E+02 -0.11372664558E+03  0.12064627473E+03  0.00000000000E+00 0. -1.
        -12    1    6    6    0    0  0.90872850599E-01 -0.26236357953E+02 -0.38602612152E+03  0.38691668513E+03  0.00000000000E+00 0.  1.
</event>
<event>
12    1  0.1061634E+000  0.3309806E+03  0.7818608E-02  0.1070926E+00
         21   -1    0    0  503  502  0.00000000000E+00  0.00000000000E+00  0.11504743749E+03  0.11504743749E+03  0.00000000000E+00 0. -1.
         21   -1    0    0  501  503 -0.00000000000E+00 -0.00000000000E+00 -0.10125149296E+04  0.10125149296E+04  0.00000000000E+00 0. -1.
          6    2    1    2  501    0 -0.20321594736E+03  0.19543187399E+03 -0.59149371181E+03  0.67682061406E+03  0.16950219433E+03 0.  0.
         24    2    3    3    0    0 -0.12767340022E+03  0.86105649902E+02 -0.20689114566E+03  0.26988066323E+03  0.79479218427E+02 0.  0.
         -6    2    1    2    0  502  0.20321594736E+03 -0.19543187399E+03 -0.30597378034E+03  0.45074175307E+03  0.17337195584E+03 0.  0.
        -24    2    5    5    0    0  0.14532052034E+03 -0.56716160790E+02 -0.12507861681E+03  0.21549915543E+03  0.80376918823E+02 0.  0.
          5    1    3    3  501    0 -0.75542547135E+02  0.10932622408E+03 -0.38460256614E+03  0.40693995083E+03  0.47000000000E+01 0. -1.
        -13    1    4    4    0    0 -0.50449285000E+02  0.59797448670E+02 -0.15376858932E+03  0.17252722766E+03  0.00000000000E+00 0.  1.
         14    1    4    4    0    0 -0.77224115222E+02  0.26308201232E+02 -0.53122556347E+02  0.97353435568E+02  0.00000000000E+00 0. -1.
         -5    1    5    5    0  502  0.57895427017E+02 -0.13871571320E+03 -0.18089516353E+03  0.23524259764E+03  0.47000000000E+01 0.  1.
         13    1    6    6    0    0  0.20549304300E+02  0.81894776825E+01  0.63399461721E+01  0.23011657250E+02  0.00000000000E+00 0. -1.
        -14    1    6    6    0    0  0.12477121604E+03 -0.64905638473E+02 -0.13141856298E+03  0.19248749818E+03  0.00000000000E+00 0.  1.
</event>
<event>
12    1  0.1061634E+000  0.1881549E+03  0.7818608E-02  0.1160234E+00
         21   -1    0    0  503  502  0.00000000000E+00  0.00000000000E+00  0.49483243256E+03  0.49483243256E+03  0.00000000000E+00 0. -1.
         21   -1    0    0  501  503 -0.00000000000E+00 -0.00000000000E+00 -0.78014018934E+02  0.78014018934E+02  0.00000000000E+00 0. -1.
          6    2    1    2  501    0  0.56641157625E+02 -0.49507539958E+02  0.29214554328E+03  0.34749285621E+03  0.17246173316E+03 0.  0.
         24    2    3    3    0    0 -0.17504717579E+02 -0.74741142695E+02  0.16894805072E+03  0.20143102790E+03  0.78347696884E+02 0.  0.
         -6    2    1    2    0  502 -0.56641157625E+02  0.49507539958E+02  0.12467287034E+03  0.22535359529E+03  0.17199331690E+03 0.  0.
        -24    2    5    5    0    0 -0.45604567650E+02  0.51378285101E+02  0.40810895456E+01  0.10415221905E+03  0.78176241090E+02 0.  0.
          5    1    3    3  501    0  0.74145875204E+02  0.25233602737E+02  0.12319749256E+03  0.14606182831E+03  0.47000000000E+01 0. -1.
        -13    1    4    4    0    0  0.39037666200E+01 -0.33106662178E+02  0.14512030718E+03  0.14889994637E+03  0.00000000000E+00 0.  1.
         14    1    4    4    0    0 -0.21408484199E+02 -0.41634480517E+02  0.23827743547E+02  0.52531081525E+02  0.00000000000E+00 0. -1.
         -5    1    5    5    0  502 -0.11036589975E+02 -0.18707451424E+01  0.12059178080E+03  0.12120137624E+03  0.47000000000E+01 0.  1.
         13    1    6    6    0    0 -0.30885900937E+02 -0.12375837490E+01  0.30534603404E+02  0.43449194414E+02  0.00000000000E+00 0. -1.
        -14    1    6    6    0    0 -0.14718666713E+02  0.52615868850E+02 -0.26453513858E+02  0.60703024637E+02  0.00000000000E+00 0.  1.
</event>
<event>
12    1  0.1061634E+000  0.1859378E+03  0.7818608E-02  0.1163382E+00
         21   -1    0    0  503  502  0.00000000000E+00  0.00000000000E+00  0.35735939108E+02  0.35735939108E+02  0.00000000000E+00 0.  1.
         21   -1    0    0  501  503 -0.00000000000E+00 -0.00000000000E+00 -0.10238185584E+04  0.10238185584E+04  0.00000000000E+00 0.  1.
          6    2    1    2  501    0  0.12034264383E+02 -0.52836896307E+02 -0.34971795320E+03  0.39607515802E+03  0.17786602509E+03 0.  0.
         24    2    3    3    0    0  0.55238916214E+02 -0.13583640078E+01 -0.11617120859E+03  0.15300551133E+03  0.82835703493E+02 0.  0.
         -6    2    1    2    0  502 -0.12034264383E+02  0.52836896307E+02 -0.63836466606E+03  0.66347933945E+03  0.17250746616E+03 0.  0.
        -24    2    5    5    0    0 -0.23541968451E+02  0.70647581882E+02 -0.63130443231E+03  0.64064111110E+03  0.79564074019E+02 0.  0.
          5    1    3    3  501    0 -0.43204651831E+02 -0.51478532299E+02 -0.23354674460E+03  0.24306964669E+03  0.47000000000E+01 0. -1.
        -13    1    4    4    0    0 -0.77545887803E+01  0.50793275392E+01 -0.79077669716E+02  0.79619162663E+02  0.00000000000E+00 0.  1.
         14    1    4    4    0    0  0.62993504994E+02 -0.64376915470E+01 -0.37093538878E+02  0.73386348665E+02  0.00000000000E+00 0. -1.
         -5    1    5    5    0  502  0.11507704069E+02 -0.17810685574E+02 -0.70602337435E+01  0.22838228348E+02  0.47000000000E+01 0.  1.
         11    1    6    6    0    0 -0.28479573986E+02  0.65566719219E+02 -0.27107995714E+03  0.28034697067E+03  0.00000000000E+00 0. -1.
        -12    1    6    6    0    0  0.49376055350E+01  0.50808626621E+01 -0.36022447518E+03  0.36029414043E+03  0.00000000000E+00 0.  1.
</event>
<event>
12    1  0.1061634E+000  0.2100861E+03  0.7818608E-02  0.1141795E+00
         21   -1    0    0  503  502  0.00000000000E+00  0.00000000000E+00  0.77318792672E+02  0.77318792672E+02  0.00000000000E+00 0.  1.
         21   -1    0    0  501  503 -0.00000000000E+00 -0.00000000000E+00 -0.56708642510E+03  0.56708642510E+03  0.00000000000E+00 0.  1.
          6    2    1    2  501    0  0.11173005973E+03 -0.33299041253E+02 -0.23648363736E+03  0.31533234784E+03  0.17296689412E+03 0.  0.
         24    2    3    3    0    0  0.45536005042E+01 -0.62137433068E+01 -0.15195146966E+03  0.17609088795E+03  0.88653289863E+02 0.  0.
         -6    2    1    2    0  502 -0.11173005973E+03  0.33299041253E+02 -0.25328399506E+03  0.32907286993E+03  0.17476767198E+03 0.  0.
        -24    2    5    5    0    0 -0.46247239987E+02 -0.44748483488E+02 -0.90877794613E+02  0.13729883690E+03  0.80317887663E+02 0.  0.
          5    1    3    3  501    0  0.10717645922E+03 -0.27085297947E+02 -0.84532167702E+02  0.13924145989E+03  0.47000000000E+01 0. -1.
        -11    1    4    4    0    0  0.16847144440E+02  0.19247287640E+00 -0.15944493505E+03  0.16033262498E+03  0.00000000000E+00 0.  1.
         12    1    4    4    0    0 -0.12293543936E+02 -0.64062161832E+01  0.74934653855E+01  0.15758262968E+02  0.00000000000E+00 0. -1.
         -5    1    5    5    0  502 -0.65482819741E+02  0.78047524742E+02 -0.16240620045E+03  0.19177403303E+03  0.47000000000E+01 0.  1.
         13    1    6    6    0    0 -0.55904271503E+02 -0.53242065889E+01 -0.75044998901E+02  0.93730393193E+02  0.00000000000E+00 0. -1.
        -14    1    6    6    0    0  0.96570315160E+01 -0.39424276900E+02 -0.15832795712E+02  0.43568443704E+02  0.00000000000E+00 0.  1.
</event>
<event>
12    1  0.1061634E+000  0.2037757E+03  0.7818608E-02  0.1146677E+00
         21   -1    0    0  501  502  0.00000000000E+00  0.00000000000E+00  0.51681211080E+03  0.51681211080E+03  0.00000000000E+00 0.  1.
         21   -1    0    0  502  503 -0.00000000000E+00 -0.00000000000E+00 -0.18615513867E+03  0.18615513867E+03  0.00000000000E+00 0.  1.
         -6    2    1    2    0  503 -0.78000833564E+02  0.76077706695E+02 -0.99790827577E+02  0.22689806280E+03  0.17219922805E+03 0.  0.
        -24    2    3    3    0    0 -0.70176199491E+02 -0.44100141968E+01 -0.11075759861E+02  0.10676500593E+03  0.79573530995E+02 0.  0.
          6    2    1    2  501    0  0.78000833564E+02 -0.76077706695E+02  0.43044779971E+03  0.47606918667E+03  0.17171084628E+03 0.  0.
         24    2    5    5    0    0  0.95330162950E+02 -0.10534559935E+03  0.39147120960E+03  0.42412518053E+03  0.80292749008E+02 0.  0.
          5    1    5    5  501    0 -0.17329329386E+02  0.29267892655E+02  0.38976590109E+02  0.51944006141E+02  0.47000000000E+01 0. -1.
        -11    1    6    6    0    0  0.52407528755E+02 -0.13834519790E+02  0.79751212236E+02  0.96427168688E+02  0.00000000000E+00 0.  1.
         12    1    6    6    0    0  0.42922634195E+02 -0.91511079561E+02  0.31171999736E+03  0.32769801184E+03  0.00000000000E+00 0. -1.
         -5    1    3    3    0  503 -0.78246340724E+01  0.80487720892E+02 -0.88715067716E+02  0.12013305687E+03  0.47000000000E+01 0.  1.
         11    1    4    4    0    0 -0.34320191554E+02 -0.96534741155E+01 -0.44805485335E+02  0.57259030963E+02  0.00000000000E+00 0. -1.
        -12    1    4    4    0    0 -0.35856007937E+02  0.52434599187E+01  0.33729725474E+02  0.49505974969E+02  0.00000000000E+00 0.  1.
</event>
<event>
12    1  0.1061634E+000  0.2576665E+03  0.7818608E-02  0.1108569E+00
         21   -1    0    0  503  502  0.00000000000E+00  0.00000000000E+00  0.54604030299E+02  0.54604030299E+02  0.00000000000E+00 0. -1.
         21   -1    0    0  501  503 -0.00000000000E+00 -0.00000000000E+00 -0.16668969067E+04  0.16668969067E+04  0.00000000000E+00 0. -1.
          6    2    1    2  501    0  0.16184664893E+03  0.10472218297E+03 -0.12540008131E+04  0.12801788138E+04  0.17081768881E+03 0.  0.
         24    2    3    3    0    0  0.65751800288E+02  0.14542680908E+02 -0.82330927660E+03  0.82975251340E+03  0.78206647719E+02 0.  0.
         -6    2    1    2    0  502 -0.16184664893E+03 -0.10472218297E+03 -0.35829206335E+03  0.44132212319E+03  0.17097058338E+03 0.  0.
        -24    2    5    5    0    0 -0.13731062395E+03 -0.76808662341E+02 -0.15427323349E+03  0.23389272775E+03  0.78433407825E+02 0.  0.
          5    1    3    3  501    0  0.96094848644E+02  0.90179502063E+02 -0.43069153647E+03  0.45042630042E+03  0.47000000000E+01 0. -1.
        -11    1    4    4    0    0  0.15787494106E+02  0.17070514221E+02 -0.53686561940E+02  0.58505507081E+02  0.00000000000E+00 0.  1.
         12    1    4    4    0    0  0.49964306182E+02 -0.25278333134E+01 -0.76962271466E+03  0.77124700632E+03  0.00000000000E+00 0. -1.
         -5    1    5    5    0  502 -0.24536024984E+02 -0.27913520630E+02 -0.20401882986E+03  0.20742939544E+03  0.47000000000E+01 0.  1.
         13    1    6    6    0    0  0.57551337653E+00 -0.25509113718E+02 -0.87881679262E+01  0.26986626203E+02  0.00000000000E+00 0. -1.
        -14    1    6    6    0    0 -0.13788613732E+03 -0.51299548623E+02 -0.14548506556E+03  0.20690610154E+03  0.00000000000E+00 0.  1.
</event>
<event>
12    1  0.1061634E+000  0.1750917E+03  0.7818608E-02  0.1172663E+00
         21   -1    0    0  501  502  0.00000000000E+00  0.00000000000E+00  0.14670193597E+03  0.14670193597E+03  0.00000000000E+00 0. -1.
         21   -1    0    0  502  503 -0.00000000000E+00 -0.00000000000E+00 -0.47684940840E+03  0.47684940840E+03  0.00000000000E+00 0. -1.
         -6    2    1    2    0  503  0.36979061918E+02  0.39127594551E+00 -0.39877982119E+03  0.43548881188E+03  0.17104840065E+03 0.  0.
        -24    2    3    3    0    0 -0.37674575908E+02 -0.25586254692E+02 -0.26071400421E+03  0.27632770621E+03  0.79442930020E+02 0.  0.
          6    2    1    2  501    0 -0.36979061918E+02 -0.39127594551E+00  0.68632348763E+02  0.18806253249E+03  0.17114179125E+03 0.  0.
         24    2    5    5    0    0  0.13777505375E+02 -0.37772543808E+02  0.84152666195E+02  0.12297368119E+03  0.80151545947E+02 0.  0.
          5    1    5    5  501    0 -0.50756567293E+02  0.37381267863E+02 -0.15520317432E+02  0.65088851300E+02  0.47000000000E+01 0. -1.
        -13    1    6    6    0    0 -0.44002439074E+01 -0.20852879001E+02 -0.11453593814E+02  0.24194824247E+02  0.00000000000E+00 0.  1.
         14    1    6    6    0    0  0.18177749282E+02 -0.16919664807E+02  0.95606260009E+02  0.98778856943E+02  0.00000000000E+00 0. -1.
         -5    1    3    3    0  503  0.74653637826E+02  0.25977530637E+02 -0.13806581697E+03  0.15916110566E+03  0.47000000000E+01 0.  1.
         13    1    4    4    0    0 -0.46234129416E+02 -0.31267488115E+02 -0.94176101588E+02  0.10947323256E+03  0.00000000000E+00 0. -1.
        -14    1    4    4    0    0  0.85595535073E+01  0.56812334229E+01 -0.16653790263E+03  0.16685447366E+03  0.00000000000E+00 0.  1.
</event>
<event>
12    1  0.1061634E+000  0.2647147E+03  0.7818608E-02  0.1104697E+00
         21   -1    0    0  503  502  0.00000000000E+00  0.00000000000E+00  0.29973726096E+03  0.29973726096E+03  0.00000000000E+00 0.  1.
         21   -1    0    0  501  503 -0.00000000000E+00 -0.00000000000E+00 -0.55098140420E+03  0.55098140420E+03  0.00000000000E+00 0. -1.
          6    2    1    2  501    0  0.58836220205E+02  0.19243056438E+03  0.19794819550E+03  0.33054104160E+03  0.17199613125E+03 0.  0.
         24    2    3    3    0    0 -0.13871092377E+02  0.11188663472E+03  0.16968342747E+03  0.21831508640E+03  0.78472830709E+02 0.  0.
         -6    2    1    2    0  502 -0.58836220205E+02 -0.19243056438E+03 -0.44919233873E+03  0.52017762356E+03  0.16828481798E+03 0.  0.
        -24    2    5    5    0    0  0.16276157288E+02 -0.95276799112E+02 -0.14406159286E+03  0.19122840949E+03  0.80448619100E+02 0.  0.
          5    1    3    3  501    0  0.72707312582E+02  0.80543929661E+02  0.28264768026E+02  0.11222595520E+03  0.47000000000E+01 0. -1.
        -13    1    4    4    0    0  0.15917324486E+02 -0.34743312158E+00  0.45939144578E+02  0.48619820374E+02  0.00000000000E+00 0.  1.
         14    1    4    4    0    0 -0.29788416863E+02  0.11223406784E+03  0.12374428289E+03  0.16969526603E+03  0.00000000000E+00 0. -1.
         -5    1    5    5    0  502 -0.75112377493E+02 -0.97153765271E+02 -0.30513074587E+03  0.32894921407E+03  0.47000000000E+01 0.  1.
         13    1    6    6    0    0 -0.65675947851E+01  0.12365277353E+02 -0.76113775040E+01  0.15936324946E+02  0.00000000000E+00 0. -1.
        -14    1    6    6    0    0  0.22843752073E+02 -0.10764207647E+03 -0.13645021535E+03  0.17529208455E+03  0.00000000000E+00 0.  1.
</event>
<event>
12    1  0.1061634E+000  0.1820542E+03  0.7818608E-02  0.1165955E+00
         21   -1    0    0  503  502  0.00000000000E+00  0.00000000000E+00  0.65253976549E+02  0.65253976549E+02  0.00000000000E+00 0.  1.
         21   -1    0    0  501  503 -0.00000000000E+00 -0.00000000000E+00 -0.50775009883E+03  0.50775009883E+03  0.00000000000E+00 0.  1.
          6    2    1    2  501    0 -0.38260460150E+02 -0.46931523780E+02 -0.23601778900E+03  0.29807402315E+03  0.17168953323E+03 0.  0.
         24    2    3    3    0    0 -0.31518311235E+02 -0.10005671972E+02 -0.24245229407E+03  0.25970127294E+03  0.86994935772E+02 0.  0.
         -6    2    1    2    0  502  0.38260460150E+02  0.46931523780E+02 -0.20647833328E+03  0.27493005223E+03  0.17113386797E+03 0.  0.
        -24    2    5    5    0    0  0.70837893768E+01  0.31284732164E+01 -0.23449622893E+02  0.84110003840E+02  0.80402988225E+02 0.  0.
          5    1    3    3  501    0 -0.67421489151E+01 -0.36925851808E+02  0.64345050719E+01  0.38372750217E+02  0.47000000000E+01 0. -1.
        -13    1    4    4    0    0 -0.16677571279E+02  0.35663624902E+02 -0.66181638719E+02  0.77006784302E+02  0.00000000000E+00 0.  1.
         14    1    4    4    0    0 -0.14840739956E+02 -0.45669296875E+02 -0.17627065535E+03  0.18269448863E+03  0.00000000000E+00 0. -1.
         -5    1    5    5    0  502  0.31176670774E+02  0.43803050564E+02 -0.18302871039E+03  0.19082004839E+03  0.47000000000E+01 0.  1.
         13    1    6    6    0    0 -0.18099691886E+02 -0.17179087433E+02 -0.40477175431E+02  0.47551252583E+02  0.00000000000E+00 0. -1.
        -14    1    6    6    0    0  0.25183481263E+02  0.20307560649E+02  0.17027552537E+02  0.36558751257E+02  0.00000000000E+00 0.  1.
</event>
<event>
12    1  0.1061634E+000  0.5178820E+03  0.7818608E-02  0.1009249E+00
         21   -1    0    0  503  502  0.00000000000E+00  0.00000000000E+00  0.14920567009E+03  0.14920567009E+03  0.00000000000E+00 0. -1.
         21   -1    0    0  501  503 -0.00000000000E+00 -0.00000000000E+00 -0.18447196759E+04  0.18447196759E+04  0.00000000000E+00 0. -1.
          6    2    1    2  501    0 -0.12455394363E+03  0.47237246445E+03 -0.10099850296E+04  0.11347677960E+04  0.17023149181E+03 0.  0.
         24    2    3    3    0    0 -0.72472886699E+02  0.13794826596E+03 -0.28109609823E+03  0.33111790625E+03  0.79636725298E+02 0.  0.
         -6    2    1    2    0  502  0.12455394363E+03 -0.47237246445E+03 -0.68552897614E+03  0.85915754992E+03  0.17190779042E+03 0.  0.
        -24    2    5    5    0    0  0.11548334054E+03 -0.25714811252E+03 -0.46528025161E+03  0.55104168184E+03  0.87747757070E+02 0.  0.
          5    1    3    3  501    0 -0.52081056933E+02  0.33442419849E+03 -0.72888893140E+03  0.80364988978E+03  0.47000000000E+01 0. -1.
        -13    1    4    4    0    0 -0.11259028968E+02  0.30186404208E+02 -0.11169206743E+02  0.34098913642E+02  0.00000000000E+00 0.  1.
         14    1    4    4    0    0 -0.61213857731E+02  0.10776186175E+03 -0.26992689148E+03  0.29701899261E+03  0.00000000000E+00 0. -1.
         -5    1    5    5    0  502  0.90706030894E+01 -0.21522435192E+03 -0.22024872453E+03  0.30811586807E+03  0.47000000000E+01 0.  1.
         11    1    6    6    0    0 -0.49299740942E+01 -0.10740784432E+02 -0.63444712596E+02  0.64536041490E+02  0.00000000000E+00 0. -1.
        -12    1    6    6    0    0  0.12041331464E+03 -0.24640732809E+03 -0.40183553902E+03  0.48650564035E+03  0.00000000000E+00 0.  1.
</event>
<event>
12    1  0.1061634E+000  0.2205560E+03  0.7818608E-02  0.1135015E+00
         21   -1    0    0  501  502  0.00000000000E+00  0.00000000000E+00  0.74878314267E+03  0.74878314267E+03  0.00000000000E+00 0. -1.
         21   -1    0    0  502  503 -0.00000000000E+00 -0.00000000000E+00 -0.69622164649E+02  0.69622164649E+02  0.00000000000E+00 0. -1.
         -6    2    1    2    0  503 -0.52920403329E+02 -0.12451561866E+03  0.46390271657E+03  0.51021534412E+03  0.16373533080E+03 0.  0.
        -24    2    3    3    0    0  0.20244429371E+02 -0.51716270043E+02  0.12962672458E+03  0.16033626969E+03  0.76290380419E+02 0.  0.
          6    2    1    2  501    0  0.52920403329E+02  0.12451561866E+03  0.21525826145E+03  0.30818996320E+03  0.17418445946E+03 0.  0.
         24    2    5    5    0    0  0.70572845973E+02  0.14193617001E+03  0.22149324520E+03  0.28218901392E+03  0.73790100709E+02 0.  0.
          5    1    5    5  501    0 -0.17652442643E+02 -0.17420551354E+02 -0.62349837546E+01  0.26000949274E+02  0.47000000000E+01 0. -1.
        -13    1    6    6    0    0 -0.19533213370E+01  0.11279930943E+02 -0.36061385205E+01  0.12002355658E+02  0.00000000000E+00 0.  1.
         14    1    6    6    0    0  0.72526167310E+02  0.13065623907E+03  0.22509938372E+03  0.27018665827E+03  0.00000000000E+00 0. -1.
         -5    1    3    3    0  503 -0.73164832700E+02 -0.72799348616E+02  0.33427599199E+03  0.34987907443E+03  0.47000000000E+01 0.  1.
         11    1    4    4    0    0 -0.29855544642E+00  0.17588782004E+02  0.91272512167E+01  0.19818201294E+02  0.00000000000E+00 0. -1.
        -12    1    4    4    0    0  0.20542984817E+02 -0.69305052047E+02  0.12049947336E+03  0.14051806839E+03  0.00000000000E+00 0.  1.
</event>
<event>
12    1  0.1061634E+000  0.2318391E+03  0.7818608E-02  0.1125750E+00
         21   -1    0    0  503  502  0.00000000000E+00  0.00000000000E+00  0.61286293158E+03  0.61286293158E+03  0.00000000000E+00 0. -1.
         21   -1    0    0  501  503 -0.00000000000E+00 -0.00000000000E+00 -0.90326776417E+02  0.90326776417E+02  0.00000000000E+00 0. -1.
          6    2    1    2  501    0 -0.10794367194E+03 -0.10968382450E+03  0.19099177870E+03  0.29862693496E+03  0.17034614490E+03 0.  0.
         24    2    3    3    0    0 -0.38702504555E+01 -0.80911336918E+01  0.45951650334E+02  0.93173580834E+02  0.80556295310E+02 0.  0.
         -6    2    1    2    0  502  0.10794367194E+03  0.10968382450E+03  0.33154437647E+03  0.40456277305E+03  0.17339834514E+03 0.  0.
        -24    2    5    5    0    0 -0.13561579010E+02  0.50544702755E+02  0.98313060646E+02  0.13497067671E+03  0.76242653910E+02 0.  0.
          5    1    3    3  501    0 -0.10407342148E+03 -0.10159269081E+03  0.14504012836E+03  0.20545335412E+03  0.47000000000E+01 0. -1.
        -11    1    4    4    0    0 -0.27636118461E+02 -0.46428031981E+01 -0.11968563418E+02  0.30472236141E+02  0.00000000000E+00 0.  1.
         12    1    4    4    0    0  0.23765868006E+02 -0.34483304937E+01  0.57920213752E+02  0.62701344693E+02  0.00000000000E+00 0. -1.
         -5    1    5    5    0  502  0.12150525095E+03  0.59139121742E+02  0.23323131582E+03  0.26959209634E+03  0.47000000000E+01 0.  1.
         11    1    6    6    0    0 -0.31692593320E+02  0.15778273068E+02  0.87357507760E+02  0.94258731873E+02  0.00000000000E+00 0. -1.
        -12    1    6    6    0    0  0.18131014310E+02  0.34766429687E+02  0.10955552886E+02  0.40711944833E+02  0.00000000000E+00 0.  1.
</event>
<event>
12    1  0.1061634E+000  0.2220812E+03  0.7818608E-02  0.1132467E+00
         21   -1    0    0  501  502  0.00000000000E+00  0.00000000000E+00  0.94565548800E+02  0.94565548800E+02  0.00000000000E+00 0.  1.
         21   -1    0    0  502  503 -0.00000000000E+00 -0.00000000000E+00 -0.62876178691E+03  0.62876178691E+03  0.00000000000E+00 0.  1.
         -6    2    1    2    0  503  0.14016656359E+03  0.15146536146E+02 -0.11697951407E+03  0.25100650311E+03  0.17159246717E+03 0.  0.
        -24    2    3    3    0    0  0.13551481873E+03  0.65902920123E+02 -0.81970355606E+02  0.18899375909E+03  0.79322385255E+02 0.  0.
          6    2    1    2  501    0 -0.14016656359E+03 -0.15146536146E+02 -0.41721672404E+03  0.47232083260E+03  0.17070761840E+03 0.  0.
         24    2    5    5    0    0 -0.50006937590E+02  0.15892030501E+02 -0.32876845730E+03  0.34217730925E+03  0.79014948008E+02 0.  0.
          5    1    5    5  501    0 -0.90159625999E+02 -0.31038566647E+02 -0.88448266742E+02  0.13014352335E+03  0.47000000000E+01 0. -1.
        -11    1    6    6    0    0  0.24374765414E+01 -0.25814838888E+02 -0.63805434132E+02  0.68872930993E+02  0.00000000000E+00 0.  1.
         12    1    6    6    0    0 -0.52444414132E+02  0.41706869389E+02 -0.26496302317E+03  0.27330437826E+03  0.00000000000E+00 0. -1.
         -5    1    3    3    0  503  0.46517448612E+01 -0.50756383977E+02 -0.35009158461E+02  0.62012744020E+02  0.47000000000E+01 0.  1.
         11    1    4    4    0    0  0.87405091978E+02  0.22304801932E+02 -0.79831107845E+01  0.90558734259E+02  0.00000000000E+00 0. -1.
        -12    1    4    4    0    0  0.48109726750E+02  0.43598118191E+02 -0.73987244822E+02  0.98435024834E+02  0.00000000000E+00 0.  1.
</event>
<event>
12    1  0.1061634E+000  0.1883704E+03  0.7818608E-02  0.1160515E+00
         21   -1    0    0  503  502  0.00000000000E+00  0.00000000000E+00  0.57212704163E+02  0.57212704163E+02  0.00000000000E+00 0. -1.
         21   -1    0    0  501  503 -0.00000000000E+00 -0.00000000000E+00 -0.61201955898E+03  0.61201955898E+03  0.00000000000E+00 0. -1.
          6    2    1    2  501    0 -0.13975270338E+00  0.67986832294E+02 -0.27672255290E+03  0.33475181057E+03  0.17567348833E+03 0.  0.
         24    2    3    3    0    0  0.30937478183E+02  0.11399424313E+02 -0.52473734634E+02  0.10134754430E+03  0.80192003826E+02 0.  0.
         -6    2    1    2    0  502  0.13975270338E+00 -0.67986832294E+02 -0.27808430192E+03  0.33448045257E+03  0.17298573722E+03 0.  0.
        -24    2    5    5    0    0  0.39455645107E+02  0.17503591165E+02 -0.13010600783E+03  0.15905520519E+03  0.80671317016E+02 0.  0.
          5    1    3    3  501    0 -0.31077230887E+02  0.56587407981E+02 -0.22424881826E+03  0.23340426627E+03  0.47000000000E+01 0. -1.
        -13    1    4    4    0    0  0.37701379087E+02  0.40639039803E+02 -0.25589576549E+02  0.61055318926E+02  0.00000000000E+00 0.  1.
         14    1    4    4    0    0 -0.67639009034E+01 -0.29239615490E+02 -0.26884158085E+02  0.40292225371E+02  0.00000000000E+00 0. -1.
         -5    1    5    5    0  502 -0.39315892403E+02 -0.85490423459E+02 -0.14797829409E+03  0.17542524738E+03  0.47000000000E+01 0.  1.
         11    1    6    6    0    0  0.43911601510E+02 -0.15276643447E+02 -0.34522123233E+02  0.57908389501E+02  0.00000000000E+00 0. -1.
        -12    1    6    6    0    0 -0.44559564029E+01  0.32780234611E+02 -0.95583884598E+02  0.10114681569E+03  0.00000000000E+00 0.  1.
</event>
<event>
12    1  0.1061634E+000  0.2071891E+03  0.7818608E-02  0.1143816E+00
         21   -1    0    0  503  502  0.00000000000E+00  0.00000000000E+00  0.48613070157E+03  0.48613070157E+03  0.00000000000E+00 0.  1.
         21   -1    0    0  501  503 -0.00000000000E+00 -0.00000000000E+00 -0.11139615972E+03  0.11139615972E+03  0.00000000000E+00 0.  1.
          6    2    1    2  501    0 -0.55402081051E+02  0.10027299585E+03  0.32343407184E+03  0.38410535712E+03  0.17263621364E+03 0.  0.
         24    2    3    3    0    0 -0.64431203543E+02  0.35037774622E+01  0.11839978190E+03  0.15715391577E+03  0.80716717231E+02 0.  0.
         -6    2    1    2    0  502  0.55402081051E+02 -0.10027299585E+03  0.51300470020E+02  0.21342150417E+03  0.17260630330E+03 0.  0.
        -24    2    5    5    0    0  0.73842413345E+02 -0.93234279670E+02  0.89824167414E+02  0.16988123957E+03  0.81522522002E+02 0.  0.
          5    1    3    3  501    0  0.90291224922E+01  0.96769218386E+02  0.20503428994E+03  0.22695144135E+03  0.47000000000E+01 0. -1.
        -13    1    4    4    0    0 -0.25508354179E+02  0.24609749303E+02  0.10511022841E+03  0.11092554264E+03  0.00000000000E+00 0.  1.
         14    1    4    4    0    0 -0.38922849364E+02 -0.21105971841E+02  0.13289553490E+02  0.46228373127E+02  0.00000000000E+00 0. -1.
         -5    1    5    5    0  502 -0.18440332294E+02 -0.70387161781E+01 -0.38523697394E+02  0.43540264600E+02  0.47000000000E+01 0.  1.
         11    1    6    6    0    0  0.66657555109E+01 -0.73749033802E+02  0.50620173969E+02  0.89698128720E+02  0.00000000000E+00 0. -1.
        -12    1    6    6    0    0  0.67176657834E+02 -0.19485245868E+02  0.39203993445E+02  0.80183110855E+02  0.00000000000E+00 0.  1.
</event>
<event>
12    1  0.1061634E+000  0.1955303E+03  0.7818608E-02  0.1153945E+00
         21   -1    0    0  501  502  0.00000000000E+00  0.00000000000E+00  0.14300547697E+04  0.14300547697E+04  0.00000000000E+00 0. -1.
         21   -1    0    0  502  503 -0.00000000000E+00 -0.00000000000E+00 -0.26652164932E+02  0.26652164932E+02  0.00000000000E+00 0. -1.
         -6    2    1    2    0  503 -0.40025295818E+02  0.81015420173E+02  0.64313237129E+03  0.67169550947E+03  0.17143537508E+03 0.  0.
        -24    2    3    3    0    0 -0.62483754715E+02  0.14016179154E+02  0.51675728425E+03  0.52682993972E+03  0.80068855891E+02 0.  0.
          6    2    1    2  501    0  0.40025295818E+02 -0.81015420173E+02  0.76027023346E+03  0.78501142514E+03  0.17339719464E+03 0.  0.
         24    2    5    5    0    0  0.70727145026E+02 -0.10897647804E+03  0.60863246817E+03  0.62772021063E+03  0.81981581531E+02 0.  0.
          5    1    5    5  501    0 -0.30701849208E+02  0.27961057868E+02  0.15163776529E+03  0.15729121451E+03  0.47000000000E+01 0. -1.
        -11    1    6    6    0    0 -0.13064171140E+02 -0.87852583790E+01  0.24196005216E+02  0.28866936117E+02  0.00000000000E+00 0.  1.
         12    1    6    6    0    0  0.83791316167E+02 -0.10019121966E+03  0.58443646295E+03  0.59885327451E+03  0.00000000000E+00 0. -1.
         -5    1    3    3    0  503  0.22458458897E+02  0.66999241018E+02  0.12637508704E+03  0.14486556974E+03  0.47000000000E+01 0.  1.
         11    1    4    4    0    0 -0.63423219878E+02  0.18161776940E+02  0.21166349600E+03  0.22170654140E+03  0.00000000000E+00 0. -1.
        -12    1    4    4    0    0  0.93946516227E+00 -0.41455977860E+01  0.30509378824E+03  0.30512339832E+03  0.00000000000E+00 0.  1.
</event>
<event>
12    1  0.1061634E+000  0.1779585E+03  0.7818608E-02  0.1169956E+00
         21   -1    0    0  501  502  0.00000000000E+00  0.00000000000E+00  0.12410900114E+03  0.12410900114E+03  0.00000000000E+00 0.  1.
         21   -1    0    0  502  503 -0.00000000000E+00 -0.00000000000E+00 -0.25770169209E+03  0.25770169209E+03  0.00000000000E+00 0.  1.
         -6    2    1    2    0  503 -0.44242075875E+02 -0.10518129655E+02 -0.44753496678E+02  0.18349961162E+03  0.17205010802E+03 0.  0.
        -24    2    3    3    0    0 -0.43243060264E+02  0.42050636149E+02  0.17015880020E+02  0.10224680202E+03  0.80787685256E+02 0.  0.
          6    2    1    2  501    0  0.44242075875E+02  0.10518129655E+02 -0.88839194267E+02  0.19831108161E+03  0.17136770501E+03 0.  0.
         24    2    5    5    0    0  0.73539058456E+02 -0.41614266048E+02 -0.47309414663E+02  0.12535278897E+03  0.79595230572E+02 0.  0.
          5    1    5    5  501    0 -0.29296982581E+02  0.52132395703E+02 -0.41529779604E+02  0.72958292634E+02  0.47000000000E+01 0. -1.
        -13    1    6    6    0    0  0.85699324184E+02 -0.26595665469E+02 -0.54207752153E+02  0.10483407834E+03  0.00000000000E+00 0.  1.
         14    1    6    6    0    0 -0.12160265728E+02 -0.15018600579E+02  0.68983374907E+01  0.20518710633E+02  0.00000000000E+00 0. -1.
         -5    1    3    3    0  503 -0.99901561187E+00 -0.52568765804E+02 -0.61769376698E+02  0.81252809601E+02  0.47000000000E+01 0.  1.
         11    1    4    4    0    0 -0.55980186136E+02  0.13018411133E+02 -0.12626174481E+02  0.58844545629E+02  0.00000000000E+00 0. -1.
        -12    1    4    4    0    0  0.12737125872E+02  0.29032225016E+02  0.29642054501E+02  0.43402256392E+02  0.00000000000E+00 0.  1.
</event>
<event>
12    1  0.1061634E+000  0.1903467E+03  0.7818608E-02  0.1158175E+00
         21   -1    0    0  503  502  0.00000000000E+00  0.00000000000E+00  0.81406054629E+03  0.81406054629E+03  0.00000000000E+00 0.  1.
         21   -1    0    0  501  503 -0.00000000000E+00 -0.00000000000E+00 -0.44480620682E+02  0.44480620682E+02  0.00000000000E+00 0.  1.
          6    2    1    2  501    0 -0.78204044492E+02 -0.26525966500E+02  0.38529998215E+03  0.42970210825E+03  0.17137189418E+03 0.  0.
         24    2    3    3    0    0 -0.46454030884E+02 -0.81916448543E+02  0.27957459514E+03  0.30610552123E+03  0.81672237335E+02 0.  0.
         -6    2    1    2    0  502  0.78204044492E+02  0.26525966500E+02  0.38427994346E+03  0.42883905872E+03  0.17150033198E+03 0.  0.
        -24    2    5    5    0    0  0.45759682508E+02 -0.51713270208E+02  0.19764657390E+03  0.22383145053E+03  0.79171580836E+02 0.  0.
          5    1    3    3  501    0 -0.31750013608E+02  0.55390482044E+02  0.10572538702E+03  0.12359658703E+03  0.47000000000E+01 0. -1.
        -11    1    4    4    0    0 -0.12043725602E+01  0.32416664857E+01  0.11722049083E+03  0.11727149008E+03  0.00000000000E+00 0.  1.
         12    1    4    4    0    0 -0.45249658324E+02 -0.85158115029E+02  0.16235410431E+03  0.18883403115E+03  0.00000000000E+00 0. -1.
         -5    1    5    5    0  502  0.32444361984E+02  0.78239236708E+02  0.18663336956E+03  0.20500760819E+03  0.47000000000E+01 0.  1.
         11    1    6    6    0    0  0.91258059666E+01  0.18322743382E+02  0.76424953787E+02  0.79118751386E+02  0.00000000000E+00 0. -1.
        -12    1    6    6    0    0  0.36633876542E+02 -0.70036013590E+02  0.12122162011E+03  0.14471269914E+03  0.00000000000E+00 0.  1.
</event>
<event>
12    1  0.1061634E+000  0.1968498E+03  0.7818608E-02  0.1152671E+00
         21   -1    0    0  503  502  0.00000000000E+00  0.00000000000E+00  0.87224286290E+02  0.87224286290E+02  0.00000000000E+00 0.  1.
         21   -1    0    0  501  503 -0.00000000000E+00 -0.00000000000E+00 -0.51233961670E+03  0.51233961670E+03  0.00000000000E+00 0.  1.
          6    2    1    2  501    0  0.94812949749E+02 -0.19047210070E+02 -0.10176444960E+03  0.22159841060E+03  0.17145716878E+03 0.  0.
         24    2    3    3    0    0  0.32772803097E+02 -0.68561660406E+02 -0.43588545775E+02  0.12307335605E+03  0.86442650035E+02 0.  0.
         -6    2    1    2    0  502 -0.94812949749E+02  0.19047210070E+02 -0.32335088081E+03  0.37796549239E+03  0.17014649472E+03 0.  0.
        -24    2    5    5    0    0 -0.84655878842E+02  0.54470136230E+01 -0.98129037523E+02  0.15205599696E+03  0.79343748501E+02 0.  0.
          5    1    3    3  501    0  0.62040146652E+02  0.49514450336E+02 -0.58175903824E+02  0.98525054552E+02  0.47000000000E+01 0. -1.
        -13    1    4    4    0    0  0.21238717887E+02 -0.55768298141E+02  0.15392218839E+02  0.61628780743E+02  0.00000000000E+00 0.  1.
         14    1    4    4    0    0  0.11534085210E+02 -0.12793362265E+02 -0.58980764614E+02  0.61444575303E+02  0.00000000000E+00 0. -1.
         -5    1    5    5    0  502 -0.10157070906E+02  0.13600196447E+02 -0.22522184328E+03  0.22590949543E+03  0.47000000000E+01 0.  1.
         13    1    6    6    0    0 -0.42138037623E+02 -0.36148434382E+02 -0.36720995129E+02  0.66563916699E+02  0.00000000000E+00 0. -1.
        -14    1    6    6    0    0 -0.42517841219E+02  0.41595448005E+02 -0.61408042393E+02  0.85492080260E+02  0.00000000000E+00 0.  1.
</event>
<event>
12    1  0.1061634E+000  0.7129497E+03  0.7818608E-02  0.9695364E-01
         21   -1    0    0  501  502  0.00000000000E+00  0.00000000000E+00  0.29706255708E+03  0.29706255708E+03  0.00000000000E+00 0. -1.
         21   -1    0    0  502  503 -0.00000000000E+00 -0.00000000000E+00 -0.19508101865E+04  0.19508101865E+04  0.00000000000E+00 0. -1.
         -6    2    1    2    0  503 -0.50638990553E+02  0.69016652835E+03 -0.43278768220E+03  0.83402784497E+03  0.17147339183E+03 0.  0.
        -24    2    3    3    0    0  0.50756595258E+01  0.45041939545E+03 -0.34423490149E+03  0.57240503454E+03  0.79034562346E+02 0.  0.
          6    2    1    2  501    0  0.50638990553E+02 -0.69016652835E+03 -0.12209599472E+04  0.14138448986E+04  0.17123101467E+03 0.  0.
         24    2    5    5    0    0  0.81687260005E+02 -0.50779337053E+03 -0.98372864279E+03  0.11129715938E+04  0.80354280636E+02 0.  0.
          5    1    5    5  501    0 -0.31048269452E+02 -0.18237315781E+03 -0.23723130443E+03  0.30087330478E+03  0.47000000000E+01 0. -1.
        -11    1    6    6    0    0  0.84359072404E+02 -0.49783655047E+03 -0.92971378224E+03  0.10579817583E+04  0.00000000000E+00 0.  1.
         12    1    6    6    0    0 -0.26718123996E+01 -0.99568200619E+01 -0.54014860552E+02  0.54989835495E+02  0.00000000000E+00 0. -1.
         -5    1    3    3    0  503 -0.55714650079E+02  0.23974713289E+03 -0.88552780706E+02  0.26162281042E+03  0.47000000000E+01 0.  1.
         11    1    4    4    0    0  0.40104238674E+02  0.20261134253E+03 -0.14215844382E+03  0.25073637397E+03  0.00000000000E+00 0. -1.
        -12    1    4    4    0    0 -0.35028579149E+02  0.24780805292E+03 -0.20207645767E+03  0.32166866058E+03  0.00000000000E+00 0.  1.
</event>
<event>
12    1  0.1061634E+000  0.1768188E+03  0.7818608E-02  0.1171131E+00
         21   -1    0    0  503  502  0.00000000000E+00  0.00000000000E+00  0.69746091455E+02  0.69746091455E+02  0.00000000000E+00 0.  1.
         21   -1    0    0  501  503 -0.00000000000E+00 -0.00000000000E+00 -0.49413842832E+03  0.49413842832E+03  0.00000000000E+00 0.  1.
          6    2    1    2  501    0  0.36154418128E+02 -0.15198865597E+02 -0.12474924974E+03  0.21639606907E+03  0.17241443075E+03 0.  0.
         24    2    3    3    0    0  0.88550910583E+02 -0.66067664472E+01 -0.62964522025E+02  0.13479546142E+03  0.79500768913E+02 0.  0.
         -6    2    1    2    0  502 -0.36154418128E+02  0.15198865597E+02 -0.29964308712E+03  0.34748845071E+03  0.17153453369E+03 0.  0.
        -24    2    5    5    0    0 -0.84582621436E+02  0.31866572884E+02 -0.16781125604E+03  0.20597935196E+03  0.78084425228E+02 0.  0.
          5    1    3    3  501    0 -0.52396492455E+02 -0.85920991497E+01 -0.61784727720E+02  0.81600607650E+02  0.47000000000E+01 0. -1.
        -13    1    4    4    0    0  0.11304015096E+02  0.30814076703E+02 -0.11853969047E+02  0.34897058078E+02  0.00000000000E+00 0.  1.
         14    1    4    4    0    0  0.77246895487E+02 -0.37420843151E+02 -0.51110552979E+02  0.99898403342E+02  0.00000000000E+00 0. -1.
         -5    1    5    5    0  502  0.48428203308E+02 -0.16667707287E+02 -0.13183183108E+03  0.14150909875E+03  0.47000000000E+01 0.  1.
         11    1    6    6    0    0 -0.98090673358E+01 -0.18983386267E+02 -0.89114313919E+01  0.23151681701E+02  0.00000000000E+00 0. -1.
        -12    1    6    6    0    0 -0.74773554100E+02  0.50849959151E+02 -0.15889982465E+03  0.18282767025E+03  0.00000000000E+00 0.  1.
</event>
<event>
12    1  0.1061634E+000  0.2393956E+03  0.7818608E-02  0.1120381E+00
         21   -1    0    0  503  502  0.00000000000E+00  0.00000000000E+00  0.68500922962E+03  0.68500922962E+03  0.00000000000E+00 0. -1.
         21   -1    0    0  501  503 -0.00000000000E+00 -0.00000000000E+00 -0.95331189348E+02  0.95331189348E+02  0.00000000000E+00 0. -1.
          6    2    1    2  501    0  0.11528084298E+03  0.11917171906E+03  0.43416695263E+03  0.49579352244E+03  0.17268092759E+03 0.  0.
         24    2    3    3    0    0  0.34218040984E+02  0.72399679437E+02  0.35647158536E+03  0.37406652603E+03  0.80257004791E+02 0.  0.
         -6    2    1    2    0  502 -0.11528084298E+03 -0.11917171906E+03  0.15551108764E+03  0.28454689653E+03  0.17114808372E+03 0.  0.
        -24    2    5    5    0    0 -0.11181519935E+03 -0.14700359431E+03  0.10586686296E+03  0.22733445899E+03  0.79752542437E+02 0.  0.
          5    1    3    3  501    0  0.81062801997E+02  0.46772039627E+02  0.77695367272E+02  0.12172699641E+03  0.47000000000E+01 0. -1.
        -13    1    4    4    0    0 -0.15578551994E+02  0.64610016749E+01  0.14461654277E+02  0.22216553948E+02  0.00000000000E+00 0.  1.
         14    1    4    4    0    0  0.49796592978E+02  0.65938677763E+02  0.34200993108E+03  0.35184997208E+03  0.00000000000E+00 0. -1.
         -5    1    5    5    0  502 -0.34656436315E+01  0.27831875242E+02  0.49644224682E+02  0.57212437542E+02  0.47000000000E+01 0.  1.
         11    1    6    6    0    0  0.46675941057E+01 -0.44097430374E+02  0.35100303560E+02  0.56554408408E+02  0.00000000000E+00 0. -1.
        -12    1    6    6    0    0 -0.11648279346E+03 -0.10290616393E+03  0.70766559398E+02  0.17078005058E+03  0.00000000000E+00 0.  1.
</event>
<event>
12    1  0.1061634E+000  0.3895610E+03  0.7818608E-02  0.1047461E+00
         21   -1    0    0  503  502  0.00000000000E+00  0.00000000000E+00  0.20240453461E+03  0.20240453461E+03  0.00000000000E+00 0.  1.
         21   -1    0    0  501  503 -0.00000000000E+00 -0.00000000000E+00 -0.94594193562E+03  0.94594193562E+03  0.00000000000E+00 0. -1.
          6    2    1    2  501    0  0.16338035968E+03 -0.30879246750E+03 -0.11024340485E+03  0.40485973078E+03  0.17237129513E+03 0.  0.
         24    2    3    3    0    0  0.12481793964E+03 -0.21894121799E+03 -0.96608509028E+01  0.26450572323E+03  0.79719323831E+02 0.  0.
         -6    2    1    2    0  502 -0.16338035968E+03  0.30879246750E+03 -0.63329399616E+03  0.74348673945E+03  0.17223622225E+03 0.  0.
        -24    2    5    5    0    0 -0.15557210441E+03  0.17217847168E+03 -0.33515596743E+03  0.41541246908E+03  0.79936794927E+02 0.  0.
          5    1    3    3  501    0  0.38562420040E+02 -0.89851249511E+02 -0.10058255395E+03  0.14035400755E+03  0.47000000000E+01 0. -1.
        -11    1    4    4    0    0  0.13895635331E+02 -0.65440077365E+02 -0.31356010925E+02  0.73882960335E+02  0.00000000000E+00 0.  1.
         12    1    4    4    0    0  0.11092230431E+03 -0.15350114062E+03  0.21695160022E+02  0.19062276289E+03  0.00000000000E+00 0. -1.
         -5    1    5    5    0  502 -0.78082552704E+01  0.13661399581E+03 -0.29813802874E+03  0.32807427037E+03  0.47000000000E+01 0.  1.
         13    1    6    6    0    0 -0.39035634618E+02  0.33042052290E+02 -0.27128183753E+02  0.57892109508E+02  0.00000000000E+00 0. -1.
        -14    1    6    6    0    0 -0.11653646979E+03  0.13913641939E+03 -0.30802778367E+03  0.35752035957E+03  0.00000000000E+00 0.  1.
</event>
<event>
12    1  0.1061634E+000  0.2916861E+03  0.7818608E-02  0.1089669E+00
         21   -1    0    0  501  502  0.00000000000E+00  0.00000000000E+00  0.16184956197E+03  0.16184956197E+03  0.00000000000E+00 0. -1.
         21   -1    0    0  502  503 -0.00000000000E+00 -0.00000000000E+00 -0.61114695629E+03  0.61114695629E+03  0.00000000000E+00 0.  1.
         -6    2    1    2    0  503 -0.13509831001E+03  0.19112545842E+03 -0.77318261327E+02  0.30029232197E+03  0.17151347141E+03 0.  0.
        -24    2    3    3    0    0 -0.11147151405E+03  0.59611297555E+02 -0.35878079596E+01  0.14760810619E+03  0.76130646949E+02 0.  0.
          6    2    1    2  501    0  0.13509831001E+03 -0.19112545842E+03 -0.37197913299E+03  0.47270419629E+03  0.17406977790E+03 0.  0.
         24    2    5    5    0    0  0.53542357099E+02 -0.90971856621E+02 -0.29485951234E+03  0.32219956746E+03  0.75682009428E+02 0.  0.
          5    1    5    5  501    0  0.81555952913E+02 -0.10015360180E+03 -0.77119620650E+02  0.15050462883E+03  0.47000000000E+01 0. -1.
        -11    1    6    6    0    0  0.36022919673E+02 -0.26131692558E+02 -0.44297531446E+02  0.62791618787E+02  0.00000000000E+00 0.  1.
         12    1    6    6    0    0  0.17519437426E+02 -0.64840164063E+02 -0.25056198089E+03  0.25940794867E+03  0.00000000000E+00 0. -1.
         -5    1    3    3    0  503 -0.23626795959E+02  0.13151416087E+03 -0.73730453367E+02  0.15268421578E+03  0.47000000000E+01 0.  1.
         13    1    4    4    0    0 -0.98383012448E+02  0.55403564619E+02  0.25215582420E+02  0.11569182213E+03  0.00000000000E+00 0. -1.
        -14    1    4    4    0    0 -0.13088501605E+02  0.42077329362E+01 -0.28803390379E+02  0.31916284058E+02  0.00000000000E+00 0.  1.
</event>
<event>
12    1  0.1573055E+000  0.3595215E+03  0.7818608E-02  0.1058815E+00
         21   -1    0    0  503  502  0.00000000000E+00  0.00000000000E+00  0.96315063303E+03  0.96315063303E+03  0.00000000000E+00 0.  1.
         21   -1    0    0  501  503 -0.00000000000E+00 -0.00000000000E+00 -0.35895363020E+03  0.35895363020E+03  0.00000000000E+00 0.  1.
          6    2    1    2  501    0 -0.19057155499E+03 -0.25120668755E+03  0.82542473439E+03  0.90032312658E+03  0.17272354406E+03 0.  0.
         24    2    3    3    0    0 -0.15952356289E+03 -0.16541304816E+03  0.72415485948E+03  0.76393322983E+03  0.79902912975E+02 0.  0.
         -6    2    1    2    0  502  0.19057155499E+03  0.25120668755E+03 -0.22122773156E+03  0.42178113664E+03  0.17185837359E+03 0.  0.
        -24    2    5    5    0    0  0.16637546776E+03  0.14029761570E+03 -0.19973855663E+03  0.30615178269E+03  0.80431373198E+02 0.  0.
          5    1    3    3  501    0 -0.31047992095E+02 -0.85793639389E+02  0.10126987491E+03  0.13638989675E+03  0.47000000000E+01 0. -1.
        -13    1    4    4    0    0 -0.32843642624E+02  0.19633687967E+01  0.82650661926E+02  0.88958932068E+02  0.00000000000E+00 0.  1.
         14    1    4    4    0    0 -0.12667992027E+03 -0.16737641696E+03  0.64150419756E+03  0.67497429776E+03  0.00000000000E+00 0. -1.
         -5    1    5    5    0  502  0.24196087223E+02  0.11090907185E+03 -0.21489174930E+02  0.11562935395E+03  0.47000000000E+01 0.  1.
         11    1    6    6    0    0  0.39504977454E+02  0.70043593837E+02 -0.38081282399E+02  0.88977145102E+02  0.00000000000E+00 0. -1.
        -12    1    6    6    0    0  0.12687049031E+03  0.70254021860E+02 -0.16165727423E+03  0.21717463759E+03  0.00000000000E+00 0.  1.
</event>
<event>
12    1  0.1061634E+000  0.4270799E+03  0.7818608E-02  0.1034796E+00
         21   -1    0    0  503  502  0.00000000000E+00  0.00000000000E+00  0.25076217049E+03  0.25076217049E+03  0.00000000000E+00 0.  1.
         21   -1    0    0  501  503 -0.00000000000E+00 -0.00000000000E+00 -0.12583076594E+04  0.12583076594E+04  0.00000000000E+00 0. -1.
          6    2    1    2  501    0  0.36096778543E+03  0.15022876923E+03 -0.13594046878E+02  0.42729623781E+03  0.17184542913E+03 0.  0.
         24    2    3    3    0    0  0.13311978627E+03  0.86367690133E+02  0.45317532316E+02  0.18339951313E+03  0.80009045029E+02 0.  0.
         -6    2    1    2    0  502 -0.36096778543E+03 -0.15022876923E+03 -0.99395144207E+03  0.10817735921E+04  0.17154652490E+03 0.  0.
        -24    2    5    5    0    0 -0.32294580747E+03 -0.16082920737E+03 -0.76477394709E+03  0.84917424926E+03  0.77831143857E+02 0.  0.
          5    1    3    3  501    0  0.22784799916E+03  0.63861079102E+02 -0.58911579194E+02  0.24389672468E+03  0.47000000000E+01 0. -1.
        -13    1    4    4    0    0  0.12303889775E+03  0.91904003984E+02  0.19083254629E+02  0.15475492533E+03  0.00000000000E+00 0.  1.
         14    1    4    4    0    0  0.10080888520E+02 -0.55363138509E+01  0.26234277687E+02  0.28644587799E+02  0.00000000000E+00 0. -1.
         -5    1    5    5    0  502 -0.38021977962E+02  0.10600438135E+02 -0.22917749498E+03  0.23259934287E+03  0.47000000000E+01 0.  1.
         11    1    6    6    0    0 -0.85335851143E+02 -0.82775568421E+02 -0.25516884601E+03  0.28150513707E+03  0.00000000000E+00 0. -1.
        -12    1    6    6    0    0 -0.23760995632E+03 -0.78053638949E+02 -0.50960510107E+03  0.56766911219E+03  0.00000000000E+00 0.  1.
</event>
<event>
12    1  0.1061634E+000  0.2930803E+03  0.7818608E-02  0.1088808E+00
         21   -1    0    0  503  502  0.00000000000E+00  0.00000000000E+00  0.39174241955E+03  0.39174241955E+03  0.00000000000E+00 0. -1.
         21   -1    0    0  501  503 -0.00000000000E+00 -0.00000000000E+00 -0.23263096826E+03  0.23263096826E+03  0.00000000000E+00 0. -1.
          6    2    1    2  501    0  0.20032053253E+03 -0.12617981218E+03  0.38822677321E+01  0.29310600655E+03  0.17276110187E+03 0.  0.
         24    2    3    3    0    0  0.14828657346E+03 -0.40144387705E+02  0.53001548394E+02  0.18110412758E+03  0.79931603012E+02 0.  0.
         -6    2    1    2    0  502 -0.20032053253E+03  0.12617981218E+03  0.15522918357E+03  0.33126738126E+03  0.17202417766E+03 0.  0.
        -24    2    5    5    0    0 -0.15349753701E+03  0.15881092664E+03  0.11786195320E+03  0.26288915048E+03  0.80230051338E+02 0.  0.
          5    1    3    3  501    0  0.52033959067E+02 -0.86035424478E+02 -0.49119280662E+02  0.11200187898E+03  0.47000000000E+01 0. -1.
        -11    1    4    4    0    0  0.56875145558E+02  0.23701461833E+02  0.16617931081E+02  0.63817686488E+02  0.00000000000E+00 0.  1.
         12    1    4    4    0    0  0.91411427905E+02 -0.63845849538E+02  0.36383617313E+02  0.11728644109E+03  0.00000000000E+00 0. -1.
         -5    1    5    5    0  502 -0.46822995517E+02 -0.32631114453E+02  0.37367230362E+02  0.68378230780E+02  0.47000000000E+01 0.  1.
         13    1    6    6    0    0  0.48111998228E+01 -0.47296180194E+01  0.40759325633E+00  0.67589246636E+01  0.00000000000E+00 0. -1.
        -14    1    6    6    0    0 -0.15830873683E+03  0.16354054466E+03  0.11745435995E+03  0.25613022581E+03  0.00000000000E+00 0.  1.
</event>
<event>
12    1  0.1061634E+000  0.2525492E+03  0.7818608E-02  0.1112280E+00
         21   -1    0    0  501  502  0.00000000000E+00  0.00000000000E+00  0.35894684121E+03  0.35894684121E+03  0.00000000000E+00 0. -1.
         21   -1    0    0  502  503 -0.00000000000E+00 -0.00000000000E+00 -0.17625573495E+03  0.17625573495E+03  0.00000000000E+00 0. -1.
         -6    2    1    2    0  503 -0.17482356348E+03  0.65001430688E+02  0.70560262514E+02  0.26222097862E+03  0.17027221336E+03 0.  0.
        -24    2    3    3    0    0 -0.15892768295E+03  0.10470085216E+03  0.72909583423E+02  0.21913580261E+03  0.80525870238E+02 0.  0.
          6    2    1    2  501    0  0.17482356348E+03 -0.65001430688E+02  0.11213084374E+03  0.27298159754E+03  0.16479430250E+03 0.  0.
         24    2    5    5    0    0  0.21068575908E+02 -0.60797815404E+01  0.50115495675E+02  0.96969239055E+02  0.80066358614E+02 0.  0.
          5    1    5    5  501    0  0.15375498758E+03 -0.58921649147E+02  0.62015348066E+02  0.17601235848E+03  0.47000000000E+01 0. -1.
        -13    1    6    6    0    0  0.43753550974E+02 -0.24880715543E+02  0.18172825540E+02  0.53513314389E+02  0.00000000000E+00 0.  1.
         14    1    6    6    0    0 -0.22684975067E+02  0.18800934003E+02  0.31942670135E+02  0.43455924665E+02  0.00000000000E+00 0. -1.
         -5    1    3    3    0  503 -0.15895880534E+02 -0.39699421474E+02 -0.23493209090E+01  0.43085176013E+02  0.47000000000E+01 0.  1.
         11    1    4    4    0    0 -0.12880098110E+03  0.65873331153E+02  0.18547628589E+02  0.14585267573E+03  0.00000000000E+00 0. -1.
        -12    1    4    4    0    0 -0.30126701848E+02  0.38827521009E+02  0.54361954835E+02  0.73283126881E+02  0.00000000000E+00 0.  1.
</event>
<event>
12    1  0.1061634E+000  0.1903206E+03  0.7818608E-02  0.1158305E+00
         21   -1    0    0  503  502  0.00000000000E+00  0.00000000000E+00  0.18669989854E+04  0.18669989854E+04  0.00000000000E+00 0. -1.
         21   -1    0    0  501  503 -0.00000000000E+00 -0.00000000000E+00 -0.41901266950E+02  0.41901266950E+02  0.00000000000E+00 0. -1.
          6    2    1    2  501    0 -0.53008515071E+02 -0.59901051653E+02  0.21286082369E+03  0.28553750392E+03  0.17269596761E+03 0.  0.
         24    2    3    3    0    0 -0.52589362417E+02 -0.56245507690E+02  0.48790248355E+02  0.12135838716E+03  0.80113492158E+02 0.  0.
         -6    2    1    2    0  502  0.53008515071E+02  0.59901051653E+02  0.16122368948E+04  0.16233627484E+04  0.17204874157E+03 0.  0.
        -24    2    5    5    0    0  0.83553780713E+02  0.72186350194E+02  0.89111280052E+03  0.90147218115E+03  0.79862173282E+02 0.  0.
          5    1    3    3  501    0 -0.41915265381E+00 -0.36555439633E+01  0.16407057533E+03  0.16417911676E+03  0.47000000000E+01 0. -1.
        -13    1    4    4    0    0 -0.14368149097E+02  0.30249140199E+01  0.48665994277E+02  0.50832792686E+02  0.00000000000E+00 0.  1.
         14    1    4    4    0    0 -0.38221213320E+02 -0.59270421710E+02  0.12425407754E+00  0.70525594478E+02  0.00000000000E+00 0. -1.
         -5    1    5    5    0  502 -0.30545265642E+02 -0.12285298541E+02  0.72112409425E+03  0.72189056727E+03  0.47000000000E+01 0.  1.
         13    1    6    6    0    0  0.41052013866E+02  0.32023017149E+02  0.16525441554E+03  0.17326212317E+03  0.00000000000E+00 0. -1.
        -14    1    6    6    0    0  0.42501766847E+02  0.40163333045E+02  0.72585838498E+03  0.72821005798E+03  0.00000000000E+00 0.  1.
</event>
<event>
12    1  0.1061634E+000  0.3906806E+03  0.7818608E-02  0.1047088E+00
         21   -1    0    0  501  502  0.00000000000E+00  0.00000000000E+00  0.16388508895E+03  0.16388508895E+03  0.00000000000E+00 0.  1.
         21   -1    0    0  502  503 -0.00000000000E+00 -0.00000000000E+00 -0.93054318964E+03  0.93054318964E+03  0.00000000000E+00 0.  1.
         -6    2    1    2    0  503 -0.32659880024E+03  0.12623388212E+03 -0.37845680996E+03  0.54393095459E+03  0.17329038357E+03 0.  0.
        -24    2    3    3    0    0 -0.12273124383E+03  0.10841934627E+03 -0.21468064254E+03  0.28177821044E+03  0.80582062167E+02 0.  0.
          6    2    1    2  501    0  0.32659880024E+03 -0.12623388212E+03 -0.38820129073E+03  0.55049732400E+03  0.17246823560E+03 0.  0.
         24    2    5    5    0    0  0.25857207315E+03 -0.97437205354E+02 -0.38183504989E+03  0.47620396485E+03  0.67960906485E+02 0.  0.
          5    1    5    5  501    0  0.68026727091E+02 -0.28796676762E+02 -0.63662408385E+01  0.74293359149E+02  0.47000000000E+01 0. -1.
        -11    1    6    6    0    0  0.11988673037E+03 -0.77452329078E+02 -0.16660513775E+03  0.21938314275E+03  0.00000000000E+00 0.  1.
         12    1    6    6    0    0  0.13868534278E+03 -0.19984876276E+02 -0.21522991215E+03  0.25682082210E+03  0.00000000000E+00 0. -1.
         -5    1    3    3    0  503 -0.20386755641E+03  0.17814535843E+02 -0.16377616743E+03  0.26215274414E+03  0.47000000000E+01 0.  1.
         13    1    4    4    0    0 -0.10226382025E+03  0.12049773833E+03 -0.19438548714E+03  0.25052606947E+03  0.00000000000E+00 0. -1.
        -14    1    4    4    0    0 -0.20467423579E+02 -0.12078392058E+02 -0.20295155396E+02  0.31252140970E+02  0.00000000000E+00 0.  1.
</event>
<event>
12    1  0.1061634E+000  0.2638622E+03  0.7818608E-02  0.1105667E+00
         21   -1    0    0  503  502  0.00000000000E+00  0.00000000000E+00  0.56362369362E+02  0.56362369362E+02  0.00000000000E+00 0. -1.
         21   -1    0    0  501  503 -0.00000000000E+00 -0.00000000000E+00 -0.12303704807E+04  0.12303704807E+04  0.00000000000E+00 0. -1.
          6    2    1    2  501    0  0.15752256095E+03 -0.11172250838E+03 -0.66452861044E+03  0.71297975041E+03  0.17160004172E+03 0.  0.
         24    2    3    3    0    0  0.64218190232E+02 -0.81374379787E+02 -0.19920698167E+03  0.23740323427E+03  0.77013690038E+02 0.  0.
         -6    2    1    2    0  502 -0.15752256095E+03  0.11172250838E+03 -0.50947950094E+03  0.57375309969E+03  0.17979983716E+03 0.  0.
        -24    2    5    5    0    0 -0.58012834245E+02 -0.19685279036E+02 -0.17710947174E+03  0.20272463905E+03  0.77307924222E+02 0.  0.
          5    1    3    3  501    0  0.93304370718E+02 -0.30348128589E+02 -0.46532162877E+03  0.47557651615E+03  0.47000000000E+01 0. -1.
        -11    1    4    4    0    0  0.49401034614E+02 -0.43568396891E+02 -0.18154037897E+03  0.19312062714E+03  0.00000000000E+00 0.  1.
         12    1    4    4    0    0  0.14817155618E+02 -0.37805982896E+02 -0.17666602693E+02  0.44282607128E+02  0.00000000000E+00 0. -1.
         -5    1    5    5    0  502 -0.99509726705E+02  0.13140778741E+03 -0.33237002919E+03  0.37102846064E+03  0.47000000000E+01 0.  1.
         11    1    6    6    0    0  0.19246048176E+02 -0.52177672257E+01 -0.39530280766E+02  0.44275033175E+02  0.00000000000E+00 0. -1.
        -12    1    6    6    0    0 -0.77258882420E+02 -0.14467511810E+02 -0.13757919098E+03  0.15844960587E+03  0.00000000000E+00 0.  1.
</event>
<event>
12    1  0.1061634E+000  0.2210205E+03  0.7818608E-02  0.1133815E+00
         21   -1    0    0  501  502  0.00000000000E+00  0.00000000000E+00  0.24235962447E+04  0.24235962447E+04  0.00000000000E+00 0. -1.
         21   -1    0    0  502  503 -0.00000000000E+00 -0.00000000000E+00 -0.29455080863E+02  0.29455080863E+02  0.00000000000E+00 0. -1.
         -6    2    1    2    0  503 -0.10745573204E+03 -0.88088405550E+02  0.48883074747E+03  0.53496430236E+03  0.16710776041E+03 0.  0.
        -24    2    3    3    0    0 -0.32117222269E+01  0.37472231141E+01  0.16407225225E+03  0.18170693656E+03  0.77931700838E+02 0.  0.
          6    2    1    2  501    0  0.10745573204E+03  0.88088405550E+02  0.19053104164E+04  0.19180870232E+04  0.17188293783E+03 0.  0.
         24    2    5    5    0    0  0.11664730701E+02  0.92908375064E+01  0.11195326847E+04  0.11225659950E+04  0.81108541466E+02 0.  0.
          5    1    5    5  501    0  0.95791001343E+02  0.78797568044E+02  0.78577773170E+03  0.79552102820E+03  0.47000000000E+01 0. -1.
        -11    1    6    6    0    0  0.20140457883E+02  0.58493547219E+01  0.11061887218E+04  0.11063875186E+04  0.00000000000E+00 0.  1.
         12    1    6    6    0    0 -0.84757271822E+01  0.34414827845E+01  0.13343962876E+02  0.16178476451E+02  0.00000000000E+00 0. -1.
         -5    1    3    3    0  503 -0.10424400982E+03 -0.91835628664E+02  0.32475849522E+03  0.35325736580E+03  0.47000000000E+01 0.  1.
         11    1    4    4    0    0 -0.36985213264E+02  0.18041391232E+02  0.94162383231E+02  0.10276162812E+03  0.00000000000E+00 0. -1.
        -12    1    4    4    0    0  0.33773491037E+02 -0.14294168118E+02  0.69909869022E+02  0.78945308446E+02  0.00000000000E+00 0.  1.
</event>
<event>
12    1  0.1061634E+000  0.2114030E+03  0.7818608E-02  0.1140497E+00
         21   -1    0    0  501  502  0.00000000000E+00  0.00000000000E+00  0.13227544756E+03  0.13227544756E+03  0.00000000000E+00 0. -1.
         21   -1    0    0  502  503 -0.00000000000E+00 -0.00000000000E+00 -0.75722739155E+03  0.75722739155E+03  0.00000000000E+00 0.  1.
         -6    2    1    2    0  503  0.12226583278E+03 -0.24968201682E+01 -0.64351037725E+03  0.67728677149E+03  0.17221090916E+03 0.  0.
        -24    2    3    3    0    0  0.11859375675E+03 -0.22759120225E+02 -0.63963055421E+03  0.65581148400E+03  0.79868642015E+02 0.  0.
          6    2    1    2  501    0 -0.12226583278E+03  0.24968201682E+01  0.18558433251E+02  0.21221606762E+03  0.17244151454E+03 0.  0.
         24    2    5    5    0    0 -0.48549258436E+02  0.54821042372E+02  0.46967104448E+02  0.11734193963E+03  0.78745442506E+02 0.  0.
          5    1    5    5  501    0 -0.73716574339E+02 -0.52324222204E+02 -0.28408671196E+02  0.94874127984E+02  0.47000000000E+01 0. -1.
        -11    1    6    6    0    0 -0.62667153163E+02  0.20627049404E+02  0.45829697965E+02  0.80330619742E+02  0.00000000000E+00 0.  1.
         12    1    6    6    0    0  0.14117894727E+02  0.34193992969E+02  0.11374064823E+01  0.37011319892E+02  0.00000000000E+00 0. -1.
         -5    1    3    3    0  503  0.36720760279E+01  0.20262300057E+02 -0.38798230408E+01  0.21475287490E+02  0.47000000000E+01 0.  1.
         13    1    4    4    0    0  0.23960943152E+01 -0.10740540669E+02 -0.83511178108E+01  0.13814544890E+02  0.00000000000E+00 0. -1.
        -14    1    4    4    0    0  0.11619766243E+03 -0.12018579556E+02 -0.63127943640E+03  0.64199693911E+03  0.00000000000E+00 0.  1.
</event>
<event>
12    1  0.1061634E+000  0.3896308E+03  0.7818608E-02  0.1047799E+00
         21   -1    0    0  501  502  0.00000000000E+00  0.00000000000E+00  0.55840103034E+03  0.55840103034E+03  0.00000000000E+00 0.  1.
         21   -1    0    0  502  503 -0.00000000000E+00 -0.00000000000E+00 -0.26909756599E+03  0.26909756599E+03  0.00000000000E+00 0. -1.
         -6    2    1    2    0  503 -0.33212261231E+03  0.99753265165E+02  0.13855822738E+03  0.41353425623E+03  0.17764024089E+03 0.  0.
        -24    2    3    3    0    0 -0.27472013865E+03  0.67556420674E+02  0.17075573579E+03  0.34011457000E+03  0.80531825194E+02 0.  0.
          6    2    1    2  501    0  0.33212261231E+03 -0.99753265165E+02  0.15074523697E+03  0.41396434010E+03  0.16848206101E+03 0.  0.
         24    2    5    5    0    0  0.10640531654E+03 -0.45732984476E+02  0.54341166068E+01  0.14009594098E+03  0.78636796710E+02 0.  0.
          5    1    5    5  501    0  0.22571729577E+03 -0.54020280690E+02  0.14531112037E+03  0.27386839912E+03  0.47000000000E+01 0. -1.
        -11    1    6    6    0    0  0.13416224379E+02 -0.12304894034E+02  0.32842297027E+02  0.37550259224E+02  0.00000000000E+00 0.  1.
         12    1    6    6    0    0  0.92989092163E+02 -0.33428090442E+02 -0.27408180420E+02  0.10254568175E+03  0.00000000000E+00 0. -1.
         -5    1    3    3    0  503 -0.57402473663E+02  0.32196844492E+02 -0.32197508415E+02  0.73419686229E+02  0.47000000000E+01 0.  1.
         13    1    4    4    0    0 -0.11297175669E+03  0.46842032345E+02  0.33064176664E+02  0.12668872713E+03  0.00000000000E+00 0. -1.
        -14    1    4    4    0    0 -0.16174838196E+03  0.20714388329E+02  0.13769155913E+03  0.21342584287E+03  0.00000000000E+00 0.  1.
</event>
<event>
12    1  0.1061634E+000  0.3237546E+03  0.7818608E-02  0.1073937E+00
         21   -1    0    0  503  502  0.00000000000E+00  0.00000000000E+00  0.16537795959E+04  0.16537795959E+04  0.00000000000E+00 0. -1.
         21   -1    0    0  501  503 -0.00000000000E+00 -0.00000000000E+00 -0.63974411570E+02  0.63974411570E+02  0.00000000000E+00 0. -1.
          6    2    1    2  501    0 -0.10481840928E+03  0.25401365819E+03  0.71182666531E+03  0.78198516017E+03  0.17115417554E+03 0.  0.
         24    2    3    3    0    0 -0.40919066476E+02  0.70003084300E+02  0.15175244980E+03  0.18898580587E+03  0.78179453747E+02 0.  0.
         -6    2    1    2    0  502  0.10481840928E+03 -0.25401365819E+03  0.87797851899E+03  0.93576884727E+03  0.17119351111E+03 0.  0.
        -24    2    5    5    0    0  0.12484292296E+03 -0.19079318205E+03  0.78554438591E+03  0.82190942205E+03  0.80419662399E+02 0.  0.
          5    1    3    3  501    0 -0.63899342804E+02  0.18401057389E+03  0.56007421551E+03  0.59299935430E+03  0.47000000000E+01 0. -1.
        -13    1    4    4    0    0  0.16872918815E+02  0.47695106957E+02  0.64349993016E+02  0.81856216734E+02  0.00000000000E+00 0.  1.
         14    1    4    4    0    0 -0.57791985290E+02  0.22307977343E+02  0.87402456783E+02  0.10712958914E+03  0.00000000000E+00 0. -1.
         -5    1    5    5    0  502 -0.20024513683E+02 -0.63220476146E+02  0.92434133080E+02  0.11385942522E+03  0.47000000000E+01 0.  1.
         11    1    6    6    0    0  0.71539537957E+02 -0.40713118820E+02  0.28358406370E+03  0.29528864645E+03  0.00000000000E+00 0. -1.
        -12    1    6    6    0    0  0.53303385006E+02 -0.15008006323E+03  0.50196032221E+03  0.52662077561E+03  0.00000000000E+00 0.  1.
</event>
<event>
12    1  0.1061634E+000  0.1798373E+03  0.7818608E-02  0.1168725E+00
         21   -1    0    0  501  502  0.00000000000E+00  0.00000000000E+00  0.41898580829E+03  0.41898580829E+03  0.00000000000E+00 0.  1.
         21   -1    0    0  502  503 -0.00000000000E+00 -0.00000000000E+00 -0.12672597764E+03  0.12672597764E+03  0.00000000000E+00 0.  1.
         -6    2    1    2    0  503  0.21241597358E+02 -0.34450929237E+02  0.31977281192E+03  0.36687343325E+03  0.17522383628E+03 0.  0.
        -24    2    3    3    0    0 -0.29195089751E+02 -0.42992948328E+02  0.17134803340E+03  0.20981029189E+03  0.10935933047E+03 0.  0.
          6    2    1    2  501    0 -0.21241597358E+02  0.34450929237E+02 -0.27512981271E+02  0.17883835268E+03  0.17201197711E+03 0.  0.
         24    2    5    5    0    0  0.38262072910E+02  0.23599686371E+02  0.29210102933E+02  0.95783945643E+02  0.79375076122E+02 0.  0.
          5    1    5    5  501    0 -0.59503670267E+02  0.10851242866E+02 -0.56723084204E+02  0.83054407040E+02  0.47000000000E+01 0. -1.
        -11    1    6    6    0    0  0.42046276134E+02 -0.59015064492E+01 -0.12768194213E+02  0.44336710507E+02  0.00000000000E+00 0.  1.
         12    1    6    6    0    0 -0.37842032245E+01  0.29501192820E+02  0.41978297146E+02  0.51447235136E+02  0.00000000000E+00 0. -1.
         -5    1    3    3    0  503  0.50436687109E+02  0.85420190909E+01  0.14842477852E+03  0.15706314136E+03  0.47000000000E+01 0.  1.
         11    1    4    4    0    0  0.37459464375E+02  0.65508736777E+01  0.54145948471E+02  0.66165770251E+02  0.00000000000E+00 0. -1.
        -12    1    4    4    0    0 -0.66654554126E+02 -0.49543822006E+02  0.11720208493E+03  0.14364452164E+03  0.00000000000E+00 0.  1.
</event>
<event>
12    1  0.1061634E+000  0.2017009E+03  0.7818608E-02  0.1148434E+00
         21   -1    0    0  501  502  0.00000000000E+00  0.00000000000E+00  0.33747008227E+03  0.33747008227E+03  0.00000000000E+00 0.  1.
         21   -1    0    0  502  503 -0.00000000000E+00 -0.00000000000E+00 -0.12751210580E+03  0.12751210580E+03  0.00000000000E+00 0.  1.
         -6    2    1    2    0  503  0.53375585777E+02  0.90857823300E+02  0.16078011888E+03  0.25794091221E+03  0.17198595976E+03 0.  0.
        -24    2    3    3    0    0 -0.11046951524E+01  0.67587441495E+02  0.21408084277E+02  0.10642765963E+03  0.79367865428E+02 0.  0.
          6    2    1    2  501    0 -0.53375585777E+02 -0.90857823300E+02  0.49177857593E+02  0.20704127586E+03  0.17129953596E+03 0.  0.
         24    2    5    5    0    0 -0.16835701859E+02  0.14778616489E+02  0.21958585337E+01  0.85700356280E+02  0.82691480271E+02 0.  0.
          5    1    5    5  501    0 -0.36539883917E+02 -0.10563643979E+03  0.46981999059E+02  0.12134091958E+03  0.47000000000E+01 0. -1.
        -13    1    6    6    0    0  0.99151639422E+01 -0.30378205686E+02  0.78660344506E+01  0.32909274599E+02  0.00000000000E+00 0.  1.
         14    1    6    6    0    0 -0.26750865802E+02  0.45156822175E+02 -0.56701759169E+01  0.52791081681E+02  0.00000000000E+00 0. -1.
         -5    1    3    3    0  503  0.54480280929E+02  0.23270381804E+02  0.13937203460E+03  0.15151325258E+03  0.47000000000E+01 0.  1.
         13    1    4    4    0    0  0.12685072510E+02  0.88732181257E+01  0.40344792466E+02  0.43212814576E+02  0.00000000000E+00 0. -1.
        -14    1    4    4    0    0 -0.13789767662E+02  0.58714223370E+02 -0.18936708189E+02  0.63214845053E+02  0.00000000000E+00 0.  1.
</event>
<event>
12    1  0.1061634E+000  0.3952561E+03  0.7818608E-02  0.1045722E+00
         21   -1    0    0  503  502  0.00000000000E+00  0.00000000000E+00  0.29119723441E+03  0.29119723441E+03  0.00000000000E+00 0.  1.
         21   -1    0    0  501  503 -0.00000000000E+00 -0.00000000000E+00 -0.69949409856E+03  0.69949409856E+03  0.00000000000E+00 0.  1.
          6    2    1    2  501    0  0.16897229193E+03 -0.31223726778E+03  0.37535607883E+02  0.39703440463E+03  0.17373442309E+03 0.  0.
         24    2    3    3    0    0  0.12650610749E+03 -0.19980033692E+03  0.89188118204E+02  0.26613172297E+03  0.83352286575E+02 0.  0.
         -6    2    1    2    0  502 -0.16897229193E+03  0.31223726778E+03 -0.44583247204E+03  0.59365692834E+03  0.16618726972E+03 0.  0.
        -24    2    5    5    0    0 -0.71542254673E+02  0.22246812086E+03 -0.35746079597E+03  0.43433726531E+03  0.79121933602E+02 0.  0.
          5    1    3    3  501    0  0.42466184444E+02 -0.11243693085E+03 -0.51652510321E+02  0.13090268165E+03  0.47000000000E+01 0. -1.
        -13    1    4    4    0    0  0.46705584843E+02 -0.18634361868E+02  0.34624558355E+01  0.50404758686E+02  0.00000000000E+00 0.  1.
         14    1    4    4    0    0  0.79800522648E+02 -0.18116597506E+03  0.85725662368E+02  0.21572696429E+03  0.00000000000E+00 0. -1.
         -5    1    5    5    0  502 -0.97430037261E+02  0.89769146914E+02 -0.88371676073E+02  0.15931966304E+03  0.47000000000E+01 0.  1.
         11    1    6    6    0    0 -0.40341846779E+02  0.17942380885E+03 -0.21872195468E+03  0.28576154612E+03  0.00000000000E+00 0. -1.
        -12    1    6    6    0    0 -0.31200407895E+02  0.43044312016E+02 -0.13873884129E+03  0.14857571919E+03  0.00000000000E+00 0.  1.
</event>
<event>
12    1  0.1061634E+000  0.1795427E+03  0.7818608E-02  0.1168771E+00
         21   -1    0    0  501  502  0.00000000000E+00  0.00000000000E+00  0.15119029752E+03  0.15119029752E+03  0.00000000000E+00 0. -1.
         21   -1    0    0  502  503 -0.00000000000E+00 -0.00000000000E+00 -0.22405301471E+03  0.22405301471E+03  0.00000000000E+00 0. -1.
         -6    2    1    2    0  503  0.25622763325E+02 -0.41826291627E+02 -0.82494635145E+02  0.19758781044E+03  0.17271251644E+03 0.  0.
        -24    2    3    3    0    0 -0.92085611607E+01  0.39556653032E+02 -0.18849900996E+02  0.88458771996E+02  0.76289640042E+02 0.  0.
          6    2    1    2  501    0 -0.25622763325E+02  0.41826291627E+02  0.96319179591E+01  0.17765550179E+03  0.17047797160E+03 0.  0.
         24    2    5    5    0    0 -0.63500948945E+02  0.66081608958E+02 -0.20565791757E+02  0.12327656252E+03  0.79843656705E+02 0.  0.
          5    1    5    5  501    0  0.37878185620E+02 -0.24255317331E+02  0.30197709716E+02  0.54378939276E+02  0.47000000000E+01 0. -1.
        -13    1    6    6    0    0 -0.32256507855E+02  0.35115660029E+02 -0.50974393797E+02  0.69799575223E+02  0.00000000000E+00 0.  1.
         14    1    6    6    0    0 -0.31244441089E+02  0.30965948928E+02  0.30408602040E+02  0.53476987294E+02  0.00000000000E+00 0. -1.
         -5    1    3    3    0  503  0.34831324486E+02 -0.81382944658E+02 -0.63644734149E+02  0.10912903844E+03  0.47000000000E+01 0.  1.
         11    1    4    4    0    0  0.23439725957E+02  0.35249861989E+02  0.11296197448E+02  0.43812984376E+02  0.00000000000E+00 0. -1.
        -12    1    4    4    0    0 -0.32648287117E+02  0.43067910430E+01 -0.30146098444E+02  0.44645787620E+02  0.00000000000E+00 0.  1.
</event>
<event>
12    1  0.1061634E+000  0.2129487E+03  0.7818608E-02  0.1139361E+00
         21   -1    0    0  501  502  0.00000000000E+00  0.00000000000E+00  0.15928146461E+03  0.15928146461E+03  0.00000000000E+00 0.  1.
         21   -1    0    0  502  503 -0.00000000000E+00 -0.00000000000E+00 -0.38936079353E+03  0.38936079353E+03  0.00000000000E+00 0.  1.
         -6    2    1    2    0  503 -0.11541601357E+03 -0.47854769397E+02  0.27583094425E+02  0.21472770117E+03  0.17244194214E+03 0.  0.
        -24    2    3    3    0    0 -0.10764422035E+03 -0.47703772245E+02 -0.39161876112E+02  0.14736744091E+03  0.79502088264E+02 0.  0.
          6    2    1    2  501    0  0.11541601357E+03  0.47854769397E+02 -0.25766242335E+03  0.33391455697E+03  0.17175002709E+03 0.  0.
         24    2    5    5    0    0  0.80889781589E+02  0.39297264930E+02 -0.63079770615E+02  0.13605149745E+03  0.80271543529E+02 0.  0.
          5    1    5    5  501    0  0.34526231978E+02  0.85575044671E+01 -0.19458265273E+03  0.19786305952E+03  0.47000000000E+01 0. -1.
        -11    1    6    6    0    0  0.61087130267E+01  0.45076470014E+02 -0.25754711330E+02  0.52273412740E+02  0.00000000000E+00 0.  1.
         12    1    6    6    0    0  0.74781068562E+02 -0.57792050843E+01 -0.37325059285E+02  0.83778084708E+02  0.00000000000E+00 0. -1.
         -5    1    3    3    0  503 -0.77717932137E+01 -0.15099715203E+00  0.66744970537E+02  0.67360260257E+02  0.47000000000E+01 0.  1.
         11    1    4    4    0    0 -0.77584191488E+02 -0.11588758219E+02 -0.57148327496E+02  0.97054301406E+02  0.00000000000E+00 0. -1.
        -12    1    4    4    0    0 -0.30060028865E+02 -0.36115014026E+02  0.17986451384E+02  0.50313139505E+02  0.00000000000E+00 0.  1.
</event>
<event>
12    1  0.1061634E+000  0.1775652E+03  0.7818608E-02  0.1170515E+00
         21   -1    0    0  501  502  0.00000000000E+00  0.00000000000E+00  0.89797188536E+02  0.89797188536E+02  0.00000000000E+00 0. -1.
         21   -1    0    0  502  503 -0.00000000000E+00 -0.00000000000E+00 -0.46138726678E+03  0.46138726678E+03  0.00000000000E+00 0. -1.
         -6    2    1    2    0  503 -0.10855444771E+02  0.43128521599E+02 -0.49980524542E+02  0.18446531893E+03  0.17190547111E+03 0.  0.
        -24    2    3    3    0    0  0.43945852026E+01  0.61216205047E+02  0.26581492277E+02  0.10419352982E+03  0.79893552843E+02 0.  0.
          6    2    1    2  501    0  0.10855444771E+02 -0.43128521599E+02 -0.32160955370E+03  0.36671913638E+03  0.17050604067E+03 0.  0.
         24    2    5    5    0    0 -0.33529711622E+02  0.80785913164E+01 -0.79674378735E+02  0.11542860850E+03  0.76067416374E+02 0.  0.
          5    1    5    5  501    0  0.44385156393E+02 -0.51207112915E+02 -0.24193517496E+03  0.25129052789E+03  0.47000000000E+01 0. -1.
        -13    1    6    6    0    0 -0.37124606545E+01  0.49887603078E+01 -0.84790515137E+02  0.85018242459E+02  0.00000000000E+00 0.  1.
         14    1    6    6    0    0 -0.29817250968E+02  0.30898310086E+01  0.51161364021E+01  0.30410366039E+02  0.00000000000E+00 0. -1.
         -5    1    3    3    0  503 -0.15250029973E+02 -0.18087683448E+02 -0.76562016819E+02  0.80271789105E+02  0.47000000000E+01 0.  1.
         13    1    4    4    0    0  0.83241427450E+01  0.56060305460E+02 -0.17750830861E+02  0.59389739829E+02  0.00000000000E+00 0. -1.
        -14    1    4    4    0    0 -0.39295575424E+01  0.51558995872E+01  0.44332323138E+02  0.44803789994E+02  0.00000000000E+00 0.  1.
</event>
<event>
12    1  0.1061634E+000  0.1863502E+03  0.7818608E-02  0.1162190E+00
         21   -1    0    0  501  502  0.00000000000E+00  0.00000000000E+00  0.17147852585E+04  0.17147852585E+04  0.00000000000E+00 0. -1.
         21   -1    0    0  502  503 -0.00000000000E+00 -0.00000000000E+00 -0.24031499925E+02  0.24031499925E+02  0.00000000000E+00 0. -1.
         -6    2    1    2    0  503  0.90678555584E+01  0.67622346351E+02  0.12017440638E+04  0.12161065721E+04  0.17341104932E+03 0.  0.
        -24    2    3    3    0    0  0.69175733137E+02  0.43492264648E+02  0.64570154650E+03  0.65628464607E+03  0.84274494197E+02 0.  0.
          6    2    1    2  501    0 -0.90678555584E+01 -0.67622346351E+02  0.48900969473E+03  0.52271018631E+03  0.17158219488E+03 0.  0.
         24    2    5    5    0    0  0.80251132766E+01 -0.69074803952E+02  0.18936851941E+03  0.22254156176E+03  0.93960521405E+02 0.  0.
          5    1    5    5  501    0 -0.17092968835E+02  0.14524576006E+01  0.29964117532E+03  0.30016862455E+03  0.47000000000E+01 0. -1.
        -13    1    6    6    0    0 -0.22805054451E+02  0.95092303966E+01  0.83832956151E+02  0.87398286644E+02  0.00000000000E+00 0.  1.
         14    1    6    6    0    0  0.30830167727E+02 -0.78584034349E+02  0.10553556326E+03  0.13514327511E+03  0.00000000000E+00 0. -1.
         -5    1    3    3    0  503 -0.60107877579E+02  0.24130081704E+02  0.55604251732E+03  0.55982192603E+03  0.47000000000E+01 0.  1.
         13    1    4    4    0    0  0.78335938669E+02  0.25957448958E+02  0.60922265150E+03  0.61478658699E+03  0.00000000000E+00 0. -1.
        -14    1    4    4    0    0 -0.91602055320E+01  0.17534815690E+02  0.36478895000E+02  0.41498059076E+02  0.00000000000E+00 0.  1.
</event>
<event>
12    1  0.1061634E+000  0.1977148E+03  0.7818608E-02  0.1152054E+00
         21   -1    0    0  503  502  0.00000000000E+00  0.00000000000E+00  0.16214028390E+04  0.16214028390E+04  0.00000000000E+00 0.  1.
         21   -1    0    0  501  503 -0.00000000000E+00 -0.00000000000E+00 -0.27650436919E+02  0.27650436919E+02  0.00000000000E+00 0.  1.
          6    2    1    2  501    0 -0.96044471978E+02  0.19118920603E+02  0.10975636479E+04  0.11149236743E+04  0.16976090389E+03 0.  0.
         24    2    3    3    0    0 -0.10284170312E+03  0.54516436607E+02  0.61286589465E+03  0.62886484191E+03  0.79485387356E+02 0.  0.
         -6    2    1    2    0  502  0.96044471978E+02 -0.19118920603E+02  0.49618875421E+03  0.53412960169E+03  0.17175877818E+03 0.  0.
        -24    2    5    5    0    0  0.10303063540E+03  0.17515848514E+02  0.22631024023E+03  0.26164581302E+03  0.79498992789E+02 0.  0.
          5    1    3    3  501    0  0.67972311424E+01 -0.35397516004E+02  0.48469775327E+03  0.48605883236E+03  0.47000000000E+01 0. -1.
        -11    1    4    4    0    0 -0.49428118252E+01 -0.18000176206E+02  0.99975592473E+02  0.10170327833E+03  0.00000000000E+00 0.  1.
         12    1    4    4    0    0 -0.97898891296E+02  0.72516612813E+02  0.51289030218E+03  0.52716156358E+03  0.00000000000E+00 0. -1.
         -5    1    5    5    0  502 -0.69861634253E+01 -0.36634769117E+02  0.26987851397E+03  0.27248378867E+03  0.47000000000E+01 0.  1.
         13    1    6    6    0    0  0.19833984943E+02 -0.26042215647E+02  0.31730062304E+02  0.45589261984E+02  0.00000000000E+00 0. -1.
        -14    1    6    6    0    0  0.83196650461E+02  0.43558064161E+02  0.19458017793E+03  0.21605655103E+03  0.00000000000E+00 0.  1.
</event>
<event>
12    1  0.1061634E+000  0.1906047E+03  0.7818608E-02  0.1158394E+00
         21   -1    0    0  501  502  0.00000000000E+00  0.00000000000E+00  0.26076890362E+03  0.26076890362E+03  0.00000000000E+00 0. -1.
         21   -1    0    0  502  503 -0.00000000000E+00 -0.00000000000E+00 -0.13862350032E+03  0.13862350032E+03  0.00000000000E+00 0. -1.
         -6    2    1    2    0  503  0.48881777112E+02 -0.62671017936E+02  0.76302120725E+02  0.20335219532E+03  0.17091815904E+03 0.  0.
        -24    2    3    3    0    0  0.48150227901E+02  0.17490065221E+02  0.79722550710E+02  0.12297730024E+03  0.78379745181E+02 0.  0.
          6    2    1    2  501    0 -0.48881777112E+02  0.62671017936E+02  0.45843282584E+02  0.19604020862E+03  0.17324281288E+03 0.  0.
         24    2    5    5    0    0 -0.68642458635E+02  0.69253637611E+02  0.84547440279E+02  0.15183707255E+03  0.79989833680E+02 0.  0.
          5    1    5    5  501    0  0.19760681523E+02 -0.65826196744E+01 -0.38704157695E+02  0.44203136076E+02  0.47000000000E+01 0. -1.
        -13    1    6    6    0    0  0.14178384987E+02  0.21351639182E+02  0.36966778449E+02  0.44982905703E+02  0.00000000000E+00 0.  1.
         14    1    6    6    0    0 -0.82820843622E+02  0.47901998429E+02  0.47580661830E+02  0.10685416684E+03  0.00000000000E+00 0. -1.
         -5    1    3    3    0  503  0.73154921108E+00 -0.80161083158E+02 -0.34204299858E+01  0.80374895076E+02  0.47000000000E+01 0.  1.
         13    1    4    4    0    0  0.39898347829E+02 -0.27053476484E+02  0.37867900147E+02  0.61300461751E+02  0.00000000000E+00 0. -1.
        -14    1    4    4    0    0  0.82518800720E+01  0.44543541705E+02  0.41854650563E+02  0.61676838490E+02  0.00000000000E+00 0.  1.
</event>
<event>
12    1  0.1061634E+000  0.2473621E+03  0.7818608E-02  0.1115084E+00
         21   -1    0    0  501  502  0.00000000000E+00  0.00000000000E+00  0.29707272225E+03  0.29707272225E+03  0.00000000000E+00 0. -1.
         21   -1    0    0  502  503 -0.00000000000E+00 -0.00000000000E+00 -0.34197421104E+03  0.34197421104E+03  0.00000000000E+00 0. -1.
         -6    2    1    2    0  503 -0.74443082251E+02 -0.16032329437E+03  0.17945782691E+03  0.30509316850E+03  0.17213773152E+03 0.  0.
        -24    2    3    3    0    0  0.10744676417E+01 -0.17380251025E+02  0.55559566978E+02  0.10135686148E+03  0.82964572440E+02 0.  0.
          6    2    1    2  501    0  0.74443082251E+02  0.16032329437E+03 -0.22435931571E+03  0.33395376480E+03  0.17303954248E+03 0.  0.
         24    2    5    5    0    0 -0.27135125524E+02  0.63164334976E+02 -0.11275278431E+03  0.15440960996E+03  0.80019304093E+02 0.  0.
          5    1    5    5  501    0  0.10157820777E+03  0.97158959394E+02 -0.11160653140E+03  0.17954415484E+03  0.47000000000E+01 0. -1.
        -13    1    6    6    0    0  0.11370893212E+02  0.55505612295E+02 -0.33129629199E+02  0.65633395002E+02  0.00000000000E+00 0.  1.
         14    1    6    6    0    0 -0.38506018736E+02  0.76587226812E+01 -0.79623155114E+02  0.88776214958E+02  0.00000000000E+00 0. -1.
         -5    1    3    3    0  503 -0.75517549893E+02 -0.14294304335E+03  0.12389825994E+03  0.20373630702E+03  0.47000000000E+01 0.  1.
         13    1    4    4    0    0  0.29563275288E+02 -0.10522613424E+02 -0.71096320250E+01  0.32175448817E+02  0.00000000000E+00 0. -1.
        -14    1    4    4    0    0 -0.28488807646E+02 -0.68576376001E+01  0.62669199003E+02  0.69181412665E+02  0.00000000000E+00 0.  1.
</event>
<event>
12    1  0.1061634E+000  0.3901389E+03  0.7818608E-02  0.1047335E+00
         21   -1    0    0  503  502  0.00000000000E+00  0.00000000000E+00  0.86343648561E+02  0.86343648561E+02  0.00000000000E+00 0.  1.
         21   -1    0    0  501  503 -0.00000000000E+00 -0.00000000000E+00 -0.21567583211E+04  0.21567583211E+04  0.00000000000E+00 0.  1.
          6    2    1    2  501    0  0.33265347510E+03 -0.10894458173E+03 -0.15161231243E+04  0.15652764063E+04  0.17009892300E+03 0.  0.
         24    2    3    3    0    0  0.23070878990E+03 -0.69220158244E+02 -0.12804995822E+04  0.13054470541E+04  0.80590663030E+02 0.  0.
         -6    2    1    2    0  502 -0.33265347510E+03  0.10894458173E+03 -0.55429154823E+03  0.67782556339E+03  0.17228208714E+03 0.  0.
        -24    2    5    5    0    0 -0.91637614486E+02  0.87650869706E+01 -0.11439502886E+03  0.16630272519E+03  0.78077491247E+02 0.  0.
          5    1    3    3  501    0  0.10194468521E+03 -0.39724423484E+02 -0.23562354206E+03  0.25982935215E+03  0.47000000000E+01 0. -1.
        -13    1    4    4    0    0  0.75983231067E+01  0.32865022438E+00 -0.19163210928E+03  0.19178297065E+03  0.00000000000E+00 0.  1.
         14    1    4    4    0    0  0.22311046679E+03 -0.69548808468E+02 -0.10888674730E+04  0.11136640835E+04  0.00000000000E+00 0. -1.
         -5    1    5    5    0  502 -0.24101586062E+03  0.10017949476E+03 -0.43989651938E+03  0.51152283820E+03  0.47000000000E+01 0.  1.
         13    1    6    6    0    0 -0.61740638459E+01  0.29151284198E+02 -0.46659076129E+02  0.55362314077E+02  0.00000000000E+00 0. -1.
        -14    1    6    6    0    0 -0.85463550640E+02 -0.20386197228E+02 -0.67735952729E+02  0.11094041111E+03  0.00000000000E+00 0.  1.
</event>
<event>
12    1  0.1061634E+000  0.2020690E+03  0.7818608E-02  0.1148494E+00
         21   -1    0    0  501  502  0.00000000000E+00  0.00000000000E+00  0.22092875253E+03  0.22092875253E+03  0.00000000000E+00 0.  1.
         21   -1    0    0  502  503 -0.00000000000E+00 -0.00000000000E+00 -0.21171230412E+03  0.21171230412E+03  0.00000000000E+00 0.  1.
         -6    2    1    2    0  503 -0.91844333872E+02  0.39395527442E+02 -0.75457585237E+02  0.21569821047E+03  0.17562597070E+03 0.  0.
        -24    2    3    3    0    0 -0.97798049013E+02  0.64341205928E+02 -0.10492247888E+03  0.17635353413E+03  0.79922420239E+02 0.  0.
          6    2    1    2  501    0  0.91844333872E+02 -0.39395527442E+02  0.84674033645E+02  0.21694284618E+03  0.17293674360E+03 0.  0.
         24    2    5    5    0    0  0.11498938517E+03 -0.73115193641E+02  0.65019366380E+02  0.17132371386E+03  0.80968553675E+02 0.  0.
          5    1    5    5  501    0 -0.23145051297E+02  0.33719666199E+02  0.19654667265E+02  0.45619132318E+02  0.47000000000E+01 0. -1.
        -11    1    6    6    0    0  0.22068687379E+01 -0.24918700494E+02  0.38382998842E+02  0.45815570541E+02  0.00000000000E+00 0.  1.
         12    1    6    6    0    0  0.11278251643E+03 -0.48196493147E+02  0.26636367538E+02  0.12550814332E+03  0.00000000000E+00 0. -1.
         -5    1    3    3    0  503  0.59537151413E+01 -0.24945678487E+02  0.29464893639E+02  0.39344676340E+02  0.47000000000E+01 0.  1.
         11    1    4    4    0    0 -0.30679593465E+02  0.56320949630E+02 -0.18724842770E+02  0.66812473081E+02  0.00000000000E+00 0. -1.
        -12    1    4    4    0    0 -0.67118455548E+02  0.80202562979E+01 -0.86197636106E+02  0.10954106105E+03  0.00000000000E+00 0.  1.
</event>
<event>
12    1  0.1061634E+000  0.5586377E+03  0.7818608E-02  0.9996561E-01
         21   -1    0    0  503  502  0.00000000000E+00  0.00000000000E+00  0.40096638041E+03  0.40096638041E+03  0.00000000000E+00 0.  1.
         21   -1    0    0  501  503 -0.00000000000E+00 -0.00000000000E+00 -0.94837384845E+03  0.94837384845E+03  0.00000000000E+00 0.  1.
          6    2    1    2  501    0 -0.26799147706E+03 -0.45600711163E+03  0.15396580420E+02  0.55635568553E+03  0.17185073903E+03 0.  0.
         24    2    3    3    0    0 -0.12930089572E+03 -0.14785764048E+03  0.43774592483E+02  0.21721179942E+03  0.81756635065E+02 0.  0.
         -6    2    1    2    0  502  0.26799147706E+03  0.45600711163E+03 -0.56280404846E+03  0.79298454332E+03  0.17976142900E+03 0.  0.
        -24    2    5    5    0    0  0.15090734882E+03  0.18356022823E+03 -0.17760687055E+03  0.30684160835E+03  0.78359344246E+02 0.  0.
          5    1    3    3  501    0 -0.13869058133E+03 -0.30814947114E+03 -0.28378012063E+02  0.33914388611E+03  0.47000000000E+01 0. -1.
        -11    1    4    4    0    0 -0.13942888887E+03 -0.12833510221E+03  0.31736011041E+02  0.19213924094E+03  0.00000000000E+00 0.  1.
         12    1    4    4    0    0  0.10127993148E+02 -0.19522538274E+02  0.12038581442E+02  0.25072558486E+02  0.00000000000E+00 0. -1.
         -5    1    5    5    0  502  0.11708412824E+03  0.27244688339E+03 -0.38519717791E+03  0.48614293498E+03  0.47000000000E+01 0.  1.
         13    1    6    6    0    0  0.15665204189E+03  0.15595620543E+03 -0.16558878090E+03  0.27619168090E+03  0.00000000000E+00 0. -1.
        -14    1    6    6    0    0 -0.57446930716E+01  0.27604022807E+02 -0.12018089648E+02  0.30649927446E+02  0.00000000000E+00 0.  1.
</event>
<event>
12    1  0.1064708E+000  0.2305434E+03  0.7818608E-02  0.1127277E+00
         21   -1    0    0  501  502  0.00000000000E+00  0.00000000000E+00  0.39337169367E+03  0.39337169367E+03  0.00000000000E+00 0. -1.
         21   -1    0    0  502  503 -0.00000000000E+00 -0.00000000000E+00 -0.56781906774E+03  0.56781906774E+03  0.00000000000E+00 0. -1.
         -6    2    1    2    0  503 -0.10215111537E+03  0.11239930514E+03  0.33417587271E+03  0.40275735101E+03  0.16574533397E+03 0.  0.
        -24    2    3    3    0    0 -0.66520071540E+02  0.11497957527E+03  0.15356265610E+03  0.21858500486E+03  0.80948701973E+02 0.  0.
          6    2    1    2  501    0  0.10215111537E+03 -0.11239930514E+03 -0.50862324678E+03  0.55843341039E+03  0.17344109234E+03 0.  0.
         24    2    5    5    0    0 -0.71008559341E+01 -0.22533407280E+02 -0.25171245989E+03  0.26511257027E+03  0.79795587921E+02 0.  0.
          5    1    5    5  501    0  0.10925197130E+03 -0.89865897856E+02 -0.25691078689E+03  0.29332084013E+03  0.47000000000E+01 0. -1.
        -11    1    6    6    0    0  0.12332913010E+02 -0.39615629993E+02 -0.68528160545E+02  0.80109972355E+02  0.00000000000E+00 0.  1.
         12    1    6    6    0    0 -0.19433768944E+02  0.17082222713E+02 -0.18318429934E+03  0.18500259791E+03  0.00000000000E+00 0. -1.
         -5    1    3    3    0  503 -0.35631043827E+02 -0.25802701347E+01  0.18061321660E+03  0.18417234616E+03  0.47000000000E+01 0.  1.
         13    1    4    4    0    0  0.55808322027E+01  0.45317394922E+02  0.86970592121E+02  0.98227775423E+02  0.00000000000E+00 0. -1.
        -14    1    4    4    0    0 -0.72100903742E+02  0.69662180349E+02  0.66592063984E+02  0.12035722943E+03  0.00000000000E+00 0.  1.
</event>
<event>
12    1  0.1061634E+000  0.2364250E+03  0.7818608E-02  0.1122338E+00
         21   -1    0    0  503  502  0.00000000000E+00  0.00000000000E+00  0.19650718695E+03  0.19650718695E+03  0.00000000000E+00 0. -1.
         21   -1    0    0  501  503 -0.00000000000E+00 -0.00000000000E+00 -0.31905546548E+03  0.31905546548E+03  0.00000000000E+00 0. -1.
          6    2    1    2  501    0  0.11484495696E+03  0.11469682569E+03  0.24924334944E+02  0.23691421608E+03  0.17077001302E+03 0.  0.
         24    2    3    3    0    0  0.42490626328E+01  0.81555759354E+02  0.37269067454E+02  0.12070636548E+03  0.80694775925E+02 0.  0.
         -6    2    1    2    0  502 -0.11484495696E+03 -0.11469682569E+03 -0.14747261347E+03  0.27864843635E+03  0.17190710687E+03 0.  0.
        -24    2    5    5    0    0 -0.25315964644E+02  0.74426372960E+01 -0.29493862736E+02  0.86620926578E+02  0.77051969906E+02 0.  0.
          5    1    3    3  501    0  0.11059589433E+03  0.33141066332E+02 -0.12344732510E+02  0.11620785060E+03  0.47000000000E+01 0. -1.
        -11    1    4    4    0    0  0.34906953051E+02  0.51284767360E+02 -0.24802806577E+01  0.62086830541E+02  0.00000000000E+00 0.  1.
         12    1    4    4    0    0 -0.30657890419E+02  0.30270991994E+02  0.39749348112E+02  0.58619534940E+02  0.00000000000E+00 0. -1.
         -5    1    5    5    0  502 -0.89528992318E+02 -0.12213946298E+03 -0.11797875073E+03  0.19202750977E+03  0.47000000000E+01 0.  1.
         13    1    6    6    0    0  0.89268774052E+01  0.17110388434E+02 -0.44115650359E+02  0.48152311878E+02  0.00000000000E+00 0. -1.
        -14    1    6    6    0    0 -0.34242842049E+02 -0.96677511376E+01  0.14621787623E+02  0.38468614700E+02  0.00000000000E+00 0.  1.
</event>
<event>
12    1  0.1061634E+000  0.1802030E+03  0.7818608E-02  0.1167631E+00
         21   -1    0    0  503  502  0.00000000000E+00  0.00000000000E+00  0.10076748636E+03  0.10076748636E+03  0.00000000000E+00 0. -1.
         21   -1    0    0  501  503 -0.00000000000E+00 -0.00000000000E+00 -0.61254158232E+03  0.61254158232E+03  0.00000000000E+00 0. -1.
          6    2    1    2  501    0 -0.42297218771E+02 -0.33430484882E+02 -0.10252614238E+02  0.18039547188E+03  0.17184515745E+03 0.  0.
         24    2    3    3    0    0 -0.44808349687E+02 -0.40092013683E+02 -0.69000173469E+02  0.12103178382E+03  0.79199185553E+02 0.  0.
         -6    2    1    2    0  502  0.42297218771E+02  0.33430484882E+02 -0.50152148173E+03  0.53291359681E+03  0.17194898370E+03 0.  0.
        -24    2    5    5    0    0  0.17295595210E+02  0.18547344745E+02 -0.10313720990E+03  0.13344056007E+03  0.80783398019E+02 0.  0.
          5    1    3    3  501    0  0.25111309164E+01  0.66615288012E+01  0.58747559231E+02  0.59363688060E+02  0.47000000000E+01 0. -1.
        -11    1    4    4    0    0 -0.30385437428E+02 -0.55298317997E+02 -0.17573082851E+02  0.65498030672E+02  0.00000000000E+00 0.  1.
         12    1    4    4    0    0 -0.14422912259E+02  0.15206304314E+02 -0.51427090618E+02  0.55533753145E+02  0.00000000000E+00 0. -1.
         -5    1    5    5    0  502  0.25001623561E+02  0.14883140136E+02 -0.39838427182E+03  0.39947303673E+03  0.47000000000E+01 0.  1.
         11    1    6    6    0    0 -0.27394135500E+02  0.10116023356E+02 -0.11971285633E+02  0.31560802716E+02  0.00000000000E+00 0. -1.
        -12    1    6    6    0    0  0.44689730710E+02  0.84313213893E+01 -0.91165924270E+02  0.10187975736E+03  0.00000000000E+00 0.  1.
</event>
<event>
12    1  0.1461327E+000  0.6879820E+03  0.7818608E-02  0.9738279E-01
         21   -1    0    0  501  502  0.00000000000E+00  0.00000000000E+00  0.62455381681E+03  0.62455381681E+03  0.00000000000E+00 0. -1.
         21   -1    0    0  502  503 -0.00000000000E+00 -0.00000000000E+00 -0.10971995191E+04  0.10971995191E+04  0.00000000000E+00 0. -1.
         -6    2    1    2    0  503  0.53854619925E+03 -0.39134692791E+03  0.24299522842E+03  0.72904934858E+03  0.17111938792E+03 0.  0.
        -24    2    3    3    0    0  0.40584276188E+03 -0.22838849537E+03  0.12805441433E+03  0.48946818536E+03  0.79445070758E+02 0.  0.
          6    2    1    2  501    0 -0.53854619925E+03  0.39134692791E+03 -0.71564093073E+03  0.99270398734E+03  0.17359388825E+03 0.  0.
         24    2    5    5    0    0 -0.50775411445E+03  0.38489179538E+03 -0.62271399813E+03  0.89448318494E+03  0.79821737553E+02 0.  0.
          5    1    5    5  501    0 -0.30792084803E+02  0.64551325318E+01 -0.92926932594E+02  0.98220802399E+02  0.47000000000E+01 0. -1.
        -11    1    6    6    0    0 -0.39356407228E+03  0.30385685718E+03 -0.52902300167E+03  0.72600757912E+03  0.00000000000E+00 0.  1.
         12    1    6    6    0    0 -0.11419004216E+03  0.81034938194E+02 -0.93690996465E+02  0.16847560582E+03  0.00000000000E+00 0. -1.
         -5    1    3    3    0  503  0.13270343737E+03 -0.16295843253E+03  0.11494081409E+03  0.23958116322E+03  0.47000000000E+01 0.  1.
         13    1    4    4    0    0  0.28750029515E+02 -0.11618336967E+01  0.23023348783E+02  0.36850897463E+02  0.00000000000E+00 0. -1.
        -14    1    4    4    0    0  0.37709273236E+03 -0.22722666168E+03  0.10503106554E+03  0.45261728790E+03  0.00000000000E+00 0.  1.
</event>
<event>
12    1  0.1061634E+000  0.3274068E+03  0.7818608E-02  0.1072294E+00
         21   -1    0    0  501  502  0.00000000000E+00  0.00000000000E+00  0.17601035393E+04  0.17601035393E+04  0.00000000000E+00 0.  1.
         21   -1    0    0  502  503 -0.00000000000E+00 -0.00000000000E+00 -0.63447405279E+02  0.63447405279E+02  0.00000000000E+00 0.  1.
         -6    2    1    2    0  503 -0.18837828034E+03 -0.20489359445E+03  0.10311090996E+04  0.10818312742E+04  0.17235187524E+03 0.  0.
        -24    2    3    3    0    0 -0.19458720304E+03 -0.12958754716E+03  0.70612701627E+03  0.74814729796E+03  0.80323747246E+02 0.  0.
          6    2    1    2  501    0  0.18837828034E+03  0.20489359445E+03  0.66554703441E+03  0.74171967042E+03  0.17241651002E+03 0.  0.
         24    2    5    5    0    0  0.25836765860E+02  0.31228614056E+02  0.23161203794E+03  0.24684499891E+03  0.75136892139E+02 0.  0.
          5    1    5    5  501    0  0.16254151448E+03  0.17366498040E+03  0.43393499647E+03  0.49487467151E+03  0.47000000000E+01 0. -1.
        -13    1    6    6    0    0  0.47416312725E+02  0.22956412411E+02  0.20470618097E+03  0.21137626194E+03  0.00000000000E+00 0.  1.
         14    1    6    6    0    0 -0.21579546865E+02  0.82722016457E+01  0.26905856974E+02  0.35468736973E+02  0.00000000000E+00 0. -1.
         -5    1    3    3    0  503  0.62089226994E+01 -0.75306047297E+02  0.32498208336E+03  0.33368397622E+03  0.47000000000E+01 0.  1.
         11    1    4    4    0    0 -0.97649241602E+02 -0.86287856954E+02  0.49450387189E+03  0.51138542016E+03  0.00000000000E+00 0. -1.
        -12    1    4    4    0    0 -0.96937961435E+02 -0.43299690203E+02  0.21162314438E+03  0.23676187779E+03  0.00000000000E+00 0.  1.
</event>
<event>
12    1  0.1061634E+000  0.2218678E+03  0.7818608E-02  0.1132530E+00
         21   -1    0    0  501  502  0.00000000000E+00  0.00000000000E+00  0.46450780658E+03  0.46450780658E+03  0.00000000000E+00 0.  1.
         21   -1    0    0  502  503 -0.00000000000E+00 -0.00000000000E+00 -0.12976629942E+03  0.12976629942E+03  0.00000000000E+00 0.  1.
         -6    2    1    2    0  503  0.68515187754E+02 -0.12442122363E+03  0.39859803444E+02  0.22524763992E+03  0.17021375830E+03 0.  0.
        -24    2    3    3    0    0  0.24774200441E+01  0.12224095528E+02  0.41939543751E+02  0.73394601320E+02  0.58926021852E+02 0.  0.
          6    2    1    2  501    0 -0.68515187754E+02  0.12442122363E+03  0.29488170372E+03  0.36902646609E+03  0.17044160772E+03 0.  0.
         24    2    5    5    0    0 -0.36239494485E+02  0.94318616516E+02  0.29928905723E+03  0.32442375209E+03  0.73942739730E+02 0.  0.
          5    1    5    5  501    0 -0.32275693269E+02  0.30102607112E+02 -0.44073535154E+01  0.44602713998E+02  0.47000000000E+01 0. -1.
        -13    1    6    6    0    0 -0.31921961516E+02  0.61809846306E+02  0.96278031180E+02  0.11878100865E+03  0.00000000000E+00 0.  1.
         14    1    6    6    0    0 -0.43175329697E+01  0.32508770210E+02  0.20301102605E+03  0.20564274344E+03  0.00000000000E+00 0. -1.
         -5    1    3    3    0  503  0.66037767710E+02 -0.13664531916E+03 -0.20797403067E+01  0.15185303860E+03  0.47000000000E+01 0.  1.
         13    1    4    4    0    0 -0.20906477290E+02 -0.12351569132E+02  0.27042565293E+02  0.36344771155E+02  0.00000000000E+00 0. -1.
        -14    1    4    4    0    0  0.23383897334E+02  0.24575664660E+02  0.14896978458E+02  0.37049830164E+02  0.00000000000E+00 0.  1.
</event>
<event>
12    1  0.1061634E+000  0.1801694E+03  0.7818608E-02  0.1167823E+00
         21   -1    0    0  503  502  0.00000000000E+00  0.00000000000E+00  0.15615346635E+03  0.15615346635E+03  0.00000000000E+00 0.  1.
         21   -1    0    0  501  503 -0.00000000000E+00 -0.00000000000E+00 -0.38912289573E+03  0.38912289573E+03  0.00000000000E+00 0.  1.
          6    2    1    2  501    0 -0.87526711795E+01  0.50588060807E+02  0.70163655696E+02  0.19264243047E+03  0.17190813328E+03 0.  0.
         24    2    3    3    0    0  0.27694980717E+02  0.79808590692E+02  0.11642759078E+02  0.11761539510E+03  0.81002495150E+02 0.  0.
         -6    2    1    2    0  502  0.87526711795E+01 -0.50588060807E+02 -0.30313308508E+03  0.35263393160E+03  0.17269991690E+03 0.  0.
        -24    2    5    5    0    0 -0.39752128868E+02 -0.73087337441E+02 -0.25505635947E+03  0.28057565920E+03  0.82139901289E+02 0.  0.
          5    1    3    3  501    0 -0.36447651896E+02 -0.29220529884E+02  0.58520896619E+02  0.75027035371E+02  0.47000000000E+01 0. -1.
        -13    1    4    4    0    0 -0.26421237681E+02  0.16484964005E+02 -0.77465062213E+01  0.32091185666E+02  0.00000000000E+00 0.  1.
         14    1    4    4    0    0  0.54116218398E+02  0.63323626687E+02  0.19389265299E+02  0.85524209434E+02  0.00000000000E+00 0. -1.
         -5    1    5    5    0  502  0.48504800047E+02  0.22499276634E+02 -0.48076725605E+02  0.72058272402E+02  0.47000000000E+01 0.  1.
         13    1    6    6    0    0  0.21387710786E+02 -0.40377277952E+02 -0.77594463470E+02  0.90048095530E+02  0.00000000000E+00 0. -1.
        -14    1    6    6    0    0 -0.61139839654E+02 -0.32710059489E+02 -0.17746189600E+03  0.19052756367E+03  0.00000000000E+00 0.  1.
</event>
<event>
12    1  0.1061634E+000  0.2204230E+03  0.7818608E-02  0.1133911E+00
         21   -1    0    0  501  502  0.00000000000E+00  0.00000000000E+00  0.37177001516E+03  0.37177001516E+03  0.00000000000E+00 0.  1.
         21   -1    0    0  502  503 -0.00000000000E+00 -0.00000000000E+00 -0.12967342545E+03  0.12967342545E+03  0.00000000000E+00 0.  1.
         -6    2    1    2    0  503 -0.80079534687E+02 -0.11012243083E+03  0.12643674688E+03  0.25251871459E+03  0.17099639940E+03 0.  0.
        -24    2    3    3    0    0 -0.76991765806E+02 -0.75645321366E+02  0.15621483130E+03  0.20661632135E+03  0.81469528553E+02 0.  0.
          6    2    1    2  501    0  0.80079534687E+02  0.11012243083E+03  0.11565984283E+03  0.24892472602E+03  0.17333966174E+03 0.  0.
         24    2    5    5    0    0  0.52360553506E+02 -0.10612263211E+02  0.37606323688E+02  0.10243359962E+03  0.78893339745E+02 0.  0.
          5    1    5    5  501    0  0.27718981181E+02  0.12073469404E+03  0.78053519144E+02  0.14649112640E+03  0.47000000000E+01 0. -1.
        -13    1    6    6    0    0  0.77174474844E+01  0.27100203764E+02  0.33607257119E+02  0.43856901062E+02  0.00000000000E+00 0.  1.
         14    1    6    6    0    0  0.44643106021E+02 -0.37712466976E+02  0.39990665695E+01  0.58576698559E+02  0.00000000000E+00 0. -1.
         -5    1    3    3    0  503 -0.30877688813E+01 -0.34477109465E+02 -0.29778084420E+02  0.45902393243E+02  0.47000000000E+01 0.  1.
         13    1    4    4    0    0 -0.26526172566E+01 -0.57288633198E+02  0.52922786702E+02  0.78037460391E+02  0.00000000000E+00 0. -1.
        -14    1    4    4    0    0 -0.74339148549E+02 -0.18356688168E+02  0.10329204460E+03  0.12857886096E+03  0.00000000000E+00 0.  1.
</event>
<event>
12    1  0.1061634E+000  0.2464253E+03  0.7818608E-02  0.1116397E+00
         21   -1    0    0  503  502  0.00000000000E+00  0.00000000000E+00  0.35536045717E+02  0.35536045717E+02  0.00000000000E+00 0. -1.
         21   -1    0    0  501  503 -0.00000000000E+00 -0.00000000000E+00 -0.20127056912E+04  0.20127056912E+04  0.00000000000E+00 0. -1.
          6    2    1    2  501    0 -0.14579241059E+03 -0.97791407797E+02 -0.14168586033E+04  0.14381285531E+04  0.17293596210E+03 0.  0.
         24    2    3    3    0    0 -0.91817164609E+02  0.11278144178E+02 -0.60895281421E+03  0.62109529280E+03  0.79863912678E+02 0.  0.
         -6    2    1    2    0  502  0.14579241059E+03  0.97791407797E+02 -0.56031104216E+03  0.61011318382E+03  0.16574391900E+03 0.  0.
        -24    2    5    5    0    0  0.51382473548E+02 -0.11459550981E+02 -0.16652571266E+03  0.19066356356E+03  0.76487264283E+02 0.  0.
          5    1    3    3  501    0 -0.53975245978E+02 -0.10906955198E+03 -0.80790578909E+03  0.81703326027E+03  0.47000000000E+01 0. -1.
        -13    1    4    4    0    0 -0.19208738950E+02 -0.15746025854E+02 -0.41400740323E+02  0.48279750222E+02  0.00000000000E+00 0.  1.
         14    1    4    4    0    0 -0.72608425660E+02  0.27024170032E+02 -0.56755207389E+03  0.57281554257E+03  0.00000000000E+00 0. -1.
         -5    1    5    5    0  502  0.94409937040E+02  0.10925095878E+03 -0.39378532950E+03  0.41944962026E+03  0.47000000000E+01 0.  1.
         11    1    6    6    0    0  0.95405202664E+01  0.30075492866E+02 -0.38971417954E+02  0.50143077443E+02  0.00000000000E+00 0. -1.
        -12    1    6    6    0    0  0.41841953282E+02 -0.41535043847E+02 -0.12755429471E+03  0.14052048612E+03  0.00000000000E+00 0.  1.
</event>
<event>
12    1  0.1061634E+000  0.1927071E+03  0.7818608E-02  0.1156238E+00
         21   -1    0    0  501  502  0.00000000000E+00  0.00000000000E+00  0.31070489928E+02  0.31070489928E+02  0.00000000000E+00 0.  1.
         21   -1    0    0  502  503 -0.00000000000E+00 -0.00000000000E+00 -0.12135307114E+04  0.12135307114E+04  0.00000000000E+00 0.  1.
         -6    2    1    2    0  503 -0.84078135125E+02 -0.15827522671E+02 -0.50543700468E+03  0.54092751778E+03  0.17267417441E+03 0.  0.
        -24    2    3    3    0    0  0.39266755541E+01  0.34062467975E+02 -0.17370188176E+03  0.19407864629E+03  0.79489035185E+02 0.  0.
          6    2    1    2  501    0  0.84078135125E+02  0.15827522671E+02 -0.67702321680E+03  0.70367368356E+03  0.17168742985E+03 0.  0.
         24    2    5    5    0    0  0.98250565103E+02  0.56968489912E+02 -0.41114002306E+03  0.43421236970E+03  0.81275340960E+02 0.  0.
          5    1    5    5  501    0 -0.14172429979E+02 -0.41140967241E+02 -0.26588319374E+03  0.26946131386E+03  0.47000000000E+01 0. -1.
        -13    1    6    6    0    0 -0.10975663409E+02 -0.46555239477E+01 -0.18310801388E+02  0.21850046635E+02  0.00000000000E+00 0.  1.
         14    1    6    6    0    0  0.10922622851E+03  0.61624013859E+02 -0.39282922168E+03  0.41236232306E+03  0.00000000000E+00 0. -1.
         -5    1    3    3    0  503 -0.88004810679E+02 -0.49889990646E+02 -0.33173512292E+03  0.34684887148E+03  0.47000000000E+01 0.  1.
         13    1    4    4    0    0 -0.14993743103E+02  0.55349438994E+02 -0.12753239300E+03  0.13983162730E+03  0.00000000000E+00 0. -1.
        -14    1    4    4    0    0  0.18920418657E+02 -0.21286971019E+02 -0.46169488762E+02  0.54247018995E+02  0.00000000000E+00 0.  1.
</event>
<event>
12    1  0.1061634E+000  0.1934414E+03  0.7818608E-02  0.1155842E+00
         21   -1    0    0  501  502  0.00000000000E+00  0.00000000000E+00  0.42074409152E+03  0.42074409152E+03  0.00000000000E+00 0.  1.
         21   -1    0    0  502  503 -0.00000000000E+00 -0.00000000000E+00 -0.11197073102E+03  0.11197073102E+03  0.00000000000E+00 0.  1.
         -6    2    1    2    0  503  0.34136786950E+02 -0.79511311576E+02  0.27696707843E+03  0.33667599605E+03  0.17074130984E+03 0.  0.
        -24    2    3    3    0    0 -0.35678541032E+02 -0.20955216616E+02  0.19389149446E+03  0.21327972815E+03  0.78627294389E+02 0.  0.
          6    2    1    2  501    0 -0.34136786950E+02  0.79511311576E+02  0.31806282073E+02  0.19603882650E+03  0.17300928595E+03 0.  0.
         24    2    5    5    0    0 -0.24928549873E+02  0.78923990197E+02  0.84756716651E+02  0.14208537343E+03  0.78448221763E+02 0.  0.
          5    1    5    5  501    0 -0.92082370770E+01  0.58732137922E+00 -0.52950434578E+02  0.53953453073E+02  0.47000000000E+01 0. -1.
        -11    1    6    6    0    0  0.89762940063E+00 -0.10473917007E+02  0.35040367422E+02  0.36583275209E+02  0.00000000000E+00 0.  1.
         12    1    6    6    0    0 -0.25826179273E+02  0.89397907203E+02  0.49716349230E+02  0.10550209822E+03  0.00000000000E+00 0. -1.
         -5    1    3    3    0  503  0.69815327982E+02 -0.58556094960E+02  0.83075583970E+02  0.12339626789E+03  0.47000000000E+01 0.  1.
         13    1    4    4    0    0 -0.28637370873E+02 -0.24406674522E+02  0.19989397319E+03  0.20340448690E+03  0.00000000000E+00 0. -1.
        -14    1    4    4    0    0 -0.70411701594E+01  0.34514579067E+01 -0.60024787319E+01  0.98752412539E+01  0.00000000000E+00 0.  1.
</event>
<event>
12    1  0.1061634E+000  0.2405348E+03  0.7818608E-02  0.1119648E+00
         21   -1    0    0  503  502  0.00000000000E+00  0.00000000000E+00  0.24007268127E+03  0.24007268127E+03  0.00000000000E+00 0. -1.
         21   -1    0    0  501  503 -0.00000000000E+00 -0.00000000000E+00 -0.28582871186E+03  0.28582871186E+03  0.00000000000E+00 0. -1.
          6    2    1    2  501    0  0.83539873031E+02 -0.14447408583E+03  0.82667797553E+02  0.25434418717E+03  0.17322046338E+03 0.  0.
         24    2    3    3    0    0  0.99800387122E+02 -0.16106816592E+03  0.96460278831E+02  0.22691992142E+03  0.79277954073E+02 0.  0.
         -6    2    1    2    0  502 -0.83539873031E+02  0.14447408583E+03 -0.12842382814E+03  0.27155720596E+03  0.17146126270E+03 0.  0.
        -24    2    5    5    0    0 -0.20011729627E-01  0.20068045264E+02 -0.14135207840E+02  0.83046174733E+02  0.79335592239E+02 0.  0.
          5    1    3    3  501    0 -0.16260514090E+02  0.16594080086E+02 -0.13792481278E+02  0.27424265755E+02  0.47000000000E+01 0. -1.
        -13    1    4    4    0    0  0.45878253537E+02 -0.10472075447E+03  0.95427869703E+02  0.14892188852E+03  0.00000000000E+00 0.  1.
         14    1    4    4    0    0  0.53922133584E+02 -0.56347411453E+02  0.10324091277E+01  0.77998032900E+02  0.00000000000E+00 0. -1.
         -5    1    5    5    0  502 -0.83519861302E+02  0.12440604057E+03 -0.11428862030E+03  0.18851103122E+03  0.47000000000E+01 0.  1.
         11    1    6    6    0    0 -0.18653303128E+02 -0.23597488453E+02 -0.18593151409E+02  0.35362302784E+02  0.00000000000E+00 0. -1.
        -12    1    6    6    0    0  0.18633291399E+02  0.43665533717E+02  0.44579435694E+01  0.47683871949E+02  0.00000000000E+00 0.  1.
</event>
<event>
12    1  0.1061634E+000  0.1742623E+03  0.7818608E-02  0.1173813E+00
         21   -1    0    0  503  502  0.00000000000E+00  0.00000000000E+00  0.70269781903E+02  0.70269781903E+02  0.00000000000E+00 0.  1.
         21   -1    0    0  501  503 -0.00000000000E+00 -0.00000000000E+00 -0.43468036978E+03  0.43468036978E+03  0.00000000000E+00 0.  1.
          6    2    1    2  501    0 -0.16861137303E+00 -0.18904112007E+02 -0.21215125120E+03  0.27454596623E+03  0.17323377357E+03 0.  0.
         24    2    3    3    0    0  0.48599572363E+02  0.35156903290E+02 -0.14531451773E+03  0.17560068811E+03  0.78239161046E+02 0.  0.
         -6    2    1    2    0  502  0.16861137303E+00  0.18904112007E+02 -0.15225933668E+03  0.23040418546E+03  0.17188888617E+03 0.  0.
        -24    2    5    5    0    0 -0.24586671653E+02  0.26312328120E+02 -0.17516935759E+03  0.19555214446E+03  0.79116966147E+02 0.  0.
          5    1    3    3  501    0 -0.48768183736E+02 -0.54061015297E+02 -0.66836733472E+02  0.98945278114E+02  0.47000000000E+01 0. -1.
        -11    1    4    4    0    0  0.43535339435E+00  0.47577735084E+02 -0.85111834832E+02  0.97508229585E+02  0.00000000000E+00 0.  1.
         12    1    4    4    0    0  0.48164218969E+02 -0.12420831795E+02 -0.60202682894E+02  0.78092458528E+02  0.00000000000E+00 0. -1.
         -5    1    5    5    0  502  0.24755283026E+02 -0.74082161125E+01  0.22910020906E+02  0.34852040996E+02  0.47000000000E+01 0.  1.
         13    1    6    6    0    0 -0.48336105922E+02  0.10438479543E+02 -0.64610565457E+02  0.81362559937E+02  0.00000000000E+00 0. -1.
        -14    1    6    6    0    0  0.23749434268E+02  0.15873848577E+02 -0.11055879213E+03  0.11418958453E+03  0.00000000000E+00 0.  1.
</event>
<event>
12    1  0.1061634E+000  0.3241397E+03  0.7818608E-02  0.1073772E+00
         21   -1    0    0  501  502  0.00000000000E+00  0.00000000000E+00  0.23086762828E+03  0.23086762828E+03  0.00000000000E+00 0. -1.
         21   -1    0    0  502  503 -0.00000000000E+00 -0.00000000000E+00 -0.51511964660E+03  0.51511964660E+03  0.00000000000E+00 0.  1.
         -6    2    1    2    0  503 -0.15662889137E+03 -0.22603177190E+03 -0.26962823112E+03  0.42162296448E+03  0.17159128662E+03 0.  0.
        -24    2    3    3    0    0 -0.18256107296E+03 -0.18671859165E+03 -0.21590705367E+03  0.35002646254E+03  0.87808261716E+02 0.  0.
          6    2    1    2  501    0  0.15662889137E+03  0.22603177190E+03 -0.14623787200E+02  0.32436431039E+03  0.17139247121E+03 0.  0.
         24    2    5    5    0    0  0.14585441640E+03  0.11532279789E+03 -0.47085441787E+02  0.20839700787E+03  0.81482608965E+02 0.  0.
          5    1    5    5  501    0  0.10774474966E+02  0.11070897400E+03  0.32461654587E+02  0.11596730252E+03  0.47000000000E+01 0. -1.
        -13    1    6    6    0    0  0.10153949530E+03  0.12085505323E+03 -0.42706821443E+02  0.16352396031E+03  0.00000000000E+00 0.  1.
         14    1    6    6    0    0  0.44314921103E+02 -0.55322553387E+01 -0.43786203441E+01  0.44873047563E+02  0.00000000000E+00 0. -1.
         -5    1    3    3    0  503  0.25932181595E+02 -0.39313180248E+02 -0.53721177449E+02  0.71596501940E+02  0.47000000000E+01 0.  1.
         11    1    4    4    0    0  0.17989444848E+01  0.33835054917E+01  0.41959913096E+01  0.56824865809E+01  0.00000000000E+00 0. -1.
        -12    1    4    4    0    0 -0.18436001745E+03 -0.19010209714E+03 -0.22010304498E+03  0.34434397596E+03  0.00000000000E+00 0.  1.
</event>
<event>
12    1  0.1061634E+000  0.3914784E+03  0.7818608E-02  0.1046866E+00
         21   -1    0    0  501  502  0.00000000000E+00  0.00000000000E+00  0.15911027508E+04  0.15911027508E+04  0.00000000000E+00 0. -1.
         21   -1    0    0  502  503 -0.00000000000E+00 -0.00000000000E+00 -0.13230428270E+03  0.13230428270E+03  0.00000000000E+00 0. -1.
         -6    2    1    2    0  503  0.69811546473E+02  0.34385570157E+03  0.11811581952E+04  0.12443432112E+04  0.17362301065E+03 0.  0.
        -24    2    3    3    0    0  0.82798302991E+02  0.11808172034E+03  0.46004754871E+03  0.48858848855E+03  0.79221918728E+02 0.  0.
          6    2    1    2  501    0 -0.69811546473E+02 -0.34385570157E+03  0.27764027296E+03  0.47906382228E+03  0.17119471115E+03 0.  0.
         24    2    5    5    0    0  0.61650939401E+01 -0.17922331202E+03  0.79075538182E+02  0.21012829566E+03  0.75775694957E+02 0.  0.
          5    1    5    5  501    0 -0.75976640413E+02 -0.16463238955E+03  0.19856473478E+03  0.26893552661E+03  0.47000000000E+01 0. -1.
        -11    1    6    6    0    0 -0.23353649965E+02 -0.28801490704E+02  0.34099652809E+02  0.50375640494E+02  0.00000000000E+00 0.  1.
         12    1    6    6    0    0  0.29518743905E+02 -0.15042182131E+03  0.44975885373E+02  0.15975265517E+03  0.00000000000E+00 0. -1.
         -5    1    3    3    0  503 -0.12986756518E+02  0.22577398123E+03  0.72111064644E+03  0.75575472268E+03  0.47000000000E+01 0.  1.
         11    1    4    4    0    0 -0.13041956603E+02  0.99340821699E+00  0.31234272338E+02  0.33862357574E+02  0.00000000000E+00 0. -1.
        -12    1    4    4    0    0  0.95840259594E+02  0.11708831212E+03  0.42881327637E+03  0.45472613097E+03  0.00000000000E+00 0.  1.
</event>
<event>
12    1  0.1061634E+000  0.2073781E+03  0.7818608E-02  0.1144222E+00
         21   -1    0    0  501  502  0.00000000000E+00  0.00000000000E+00  0.59441556904E+03  0.59441556904E+03  0.00000000000E+00 0.  1.
         21   -1    0    0  502  503 -0.00000000000E+00 -0.00000000000E+00 -0.11101066955E+03  0.11101066955E+03  0.00000000000E+00 0. -1.
         -6    2    1    2    0  503  0.11091761276E+03 -0.27804924026E+02  0.45138398205E+03  0.49559056955E+03  0.16966638664E+03 0.  0.
        -24    2    3    3    0    0 -0.80193405452E+01  0.44159481789E+01  0.21158685289E+03  0.22594462276E+03  0.78728430806E+02 0.  0.
          6    2    1    2  501    0 -0.11091761276E+03  0.27804924026E+02  0.32020917440E+02  0.20983566903E+03  0.17300242260E+03 0.  0.
         24    2    5    5    0    0 -0.86194798007E+01 -0.58003425105E+01  0.57911251942E+02  0.98990635915E+02  0.79608375766E+02 0.  0.
          5    1    5    5  501    0 -0.10229813296E+03  0.33605266536E+02 -0.25890334502E+02  0.11084503312E+03  0.47000000000E+01 0. -1.
        -13    1    6    6    0    0 -0.33688239933E+02 -0.77208188581E+01  0.64343815854E+02  0.73038587009E+02  0.00000000000E+00 0.  1.
         14    1    6    6    0    0  0.25068760132E+02  0.19204763476E+01 -0.64325639117E+01  0.25952048906E+02  0.00000000000E+00 0. -1.
         -5    1    3    3    0  503  0.11893695331E+03 -0.32220872204E+02  0.23979712915E+03  0.26964594679E+03  0.47000000000E+01 0.  1.
         11    1    4    4    0    0  0.24633398352E+02 -0.54797688955E+01  0.22516820265E+02  0.33820694499E+02  0.00000000000E+00 0. -1.
        -12    1    4    4    0    0 -0.32652738897E+02  0.98957170744E+01  0.18907003263E+03  0.19212392827E+03  0.00000000000E+00 0.  1.
</event>
<event>
12    1  0.1061634E+000  0.2667701E+03  0.7818608E-02  0.1103150E+00
         21   -1    0    0  501  502  0.00000000000E+00  0.00000000000E+00  0.83594352879E+03  0.83594352879E+03  0.00000000000E+00 0. -1.
         21   -1    0    0  502  503 -0.00000000000E+00 -0.00000000000E+00 -0.87720693472E+02  0.87720693472E+02  0.00000000000E+00 0. -1.
         -6    2    1    2    0  503  0.20365659495E+03  0.52760451564E+01  0.45371517951E+03  0.52633043390E+03  0.17222780326E+03 0.  0.
        -24    2    3    3    0    0  0.54246698324E+02  0.47540646217E+02  0.23058928347E+03  0.25445386412E+03  0.79828152884E+02 0.  0.
          6    2    1    2  501    0 -0.20365659495E+03 -0.52760451564E+01  0.29450765581E+03  0.39733378836E+03  0.17214974507E+03 0.  0.
         24    2    5    5    0    0 -0.15508573156E+03 -0.89784970135E+01  0.30093163041E+03  0.34797596863E+03  0.79970188326E+02 0.  0.
          5    1    5    5  501    0 -0.48570863382E+02  0.37024518571E+01 -0.64239745952E+01  0.49357819735E+02  0.47000000000E+01 0. -1.
        -13    1    6    6    0    0 -0.16252054293E+03  0.66831738583E+00  0.28125394330E+03  0.32483404093E+03  0.00000000000E+00 0.  1.
         14    1    6    6    0    0  0.74348113624E+01 -0.96468143994E+01  0.19677687104E+02  0.23141927703E+02  0.00000000000E+00 0. -1.
         -5    1    3    3    0  503  0.14940989662E+03 -0.42264601061E+02  0.22312589604E+03  0.27187656978E+03  0.47000000000E+01 0.  1.
         11    1    4    4    0    0  0.38199064125E+02  0.44910982739E+02  0.63790352834E+02  0.86864112182E+02  0.00000000000E+00 0. -1.
        -12    1    4    4    0    0  0.16047634199E+02  0.26296634786E+01  0.16679893063E+03  0.16758975194E+03  0.00000000000E+00 0.  1.
</event>
<event>
12    1  0.1061634E+000  0.1860038E+03  0.7818608E-02  0.1162279E+00
         21   -1    0    0  503  502  0.00000000000E+00  0.00000000000E+00  0.62235904019E+02  0.62235904019E+02  0.00000000000E+00 0. -1.
         21   -1    0    0  501  503 -0.00000000000E+00 -0.00000000000E+00 -0.78072706882E+03  0.78072706882E+03  0.00000000000E+00 0. -1.
          6    2    1    2  501    0  0.26644435995E+02  0.63598874750E+02 -0.13250092307E+03  0.22837229705E+03  0.17275030711E+03 0.  0.
         24    2    3    3    0    0 -0.32259765036E+02  0.56449911909E+02 -0.13447688027E+03  0.16881722190E+03  0.78663448235E+02 0.  0.
         -6    2    1    2    0  502 -0.26644435995E+02 -0.63598874750E+02 -0.58599024173E+03  0.61459067579E+03  0.17199532706E+03 0.  0.
        -24    2    5    5    0    0  0.47120079690E+02 -0.57418202669E+02 -0.35925519822E+03  0.37603193159E+03  0.82574597889E+02 0.  0.
          5    1    3    3  501    0  0.58904201031E+02  0.71489628415E+01  0.19759572000E+01  0.59555075146E+02  0.47000000000E+01 0. -1.
        -13    1    4    4    0    0  0.49532343517E+01  0.61394958352E+02 -0.10211651912E+03  0.11925459706E+03  0.00000000000E+00 0.  1.
         14    1    4    4    0    0 -0.37212999388E+02 -0.49450464431E+01 -0.32360361150E+02  0.49562624845E+02  0.00000000000E+00 0. -1.
         -5    1    5    5    0  502 -0.73764515685E+02 -0.61806720816E+01 -0.22673504350E+03  0.23855874420E+03  0.47000000000E+01 0.  1.
         11    1    6    6    0    0 -0.54792366365E+01 -0.38058394610E+02 -0.25295114651E+03  0.25585688569E+03  0.00000000000E+00 0. -1.
        -12    1    6    6    0    0  0.52599316327E+02 -0.19359808059E+02 -0.10630405171E+03  0.12017504590E+03  0.00000000000E+00 0.  1.
</event>
<event>
12    1  0.1061634E+000  0.3576584E+03  0.7818608E-02  0.1059567E+00
         21   -1    0    0  503  502  0.00000000000E+00  0.00000000000E+00  0.74845343112E+02  0.74845343112E+02  0.00000000000E+00 0.  1.
         21   -1    0    0  501  503 -0.00000000000E+00 -0.00000000000E+00 -0.19337683813E+04  0.19337683813E+04  0.00000000000E+00 0.  1.
          6    2    1    2  501    0 -0.16080958462E+03 -0.26914831043E+03 -0.12742455508E+04  0.13234882797E+04  0.17210161941E+03 0.  0.
         24    2    3    3    0    0 -0.11350948954E+03 -0.10237763507E+03 -0.46172378734E+03  0.49266732236E+03  0.78528022680E+02 0.  0.
         -6    2    1    2    0  502  0.16080958462E+03  0.26914831043E+03 -0.58467748741E+03  0.68512544468E+03  0.17102214811E+03 0.  0.
        -24    2    5    5    0    0  0.53683118474E+02  0.21695560384E+03 -0.40778383081E+03  0.47178624501E+03  0.79642934775E+02 0.  0.
          5    1    3    3  501    0 -0.47300095082E+02 -0.16677067536E+03 -0.81252176345E+03  0.83082095739E+03  0.47000000000E+01 0. -1.
        -13    1    4    4    0    0 -0.88083628702E+00 -0.12539211480E+00 -0.10322856945E+03  0.10323240357E+03  0.00000000000E+00 0.  1.
         14    1    4    4    0    0 -0.11262865326E+03 -0.10225224296E+03 -0.35849521789E+03  0.38943491879E+03  0.00000000000E+00 0. -1.
         -5    1    5    5    0  502  0.10712646615E+03  0.52192706592E+02 -0.17689365660E+03  0.21333919967E+03  0.47000000000E+01 0.  1.
         13    1    6    6    0    0  0.60038643066E+02  0.18470617911E+03 -0.38670742792E+03  0.43273969782E+03  0.00000000000E+00 0. -1.
        -14    1    6    6    0    0 -0.63555245921E+01  0.32249424730E+02 -0.21076402894E+02  0.39046547186E+02  0.00000000000E+00 0.  1.
</event>
<event>
12    1  0.1061634E+000  0.1771551E+03  0.7818608E-02  0.1171216E+00
         21   -1    0    0  501  502  0.00000000000E+00  0.00000000000E+00  0.38449392345E+03  0.38449392345E+03  0.00000000000E+00 0. -1.
         21   -1    0    0  502  503 -0.00000000000E+00 -0.00000000000E+00 -0.13684273307E+03  0.13684273307E+03  0.00000000000E+00 0. -1.
         -6    2    1    2    0  503  0.24575536519E+02  0.20613402232E+02  0.29166727718E+03  0.34125315060E+03  0.17422698662E+03 0.  0.
        -24    2    3    3    0    0  0.67860154348E+01 -0.16315590290E+02  0.28842487923E+03  0.29986691262E+03  0.80118698397E+02 0.  0.
          6    2    1    2  501    0 -0.24575536519E+02 -0.20613402232E+02 -0.44016086803E+02  0.18008350592E+03  0.17165017874E+03 0.  0.
         24    2    5    5    0    0 -0.78296806251E+01 -0.33793213205E+01  0.41766452346E+02  0.90874923055E+02  0.80256410257E+02 0.  0.
          5    1    5    5  501    0 -0.16745855894E+02 -0.17234080911E+02 -0.85782539149E+02  0.89208582868E+02  0.47000000000E+01 0. -1.
        -13    1    6    6    0    0 -0.25615439425E+02  0.20512812455E+02 -0.71662278288E+01  0.33589894805E+02  0.00000000000E+00 0.  1.
         14    1    6    6    0    0  0.17785758800E+02 -0.23892133776E+02  0.48932680175E+02  0.57285028249E+02  0.00000000000E+00 0. -1.
         -5    1    3    3    0  503  0.17789521084E+02  0.36928992522E+02  0.32423979437E+01  0.41386237972E+02  0.47000000000E+01 0.  1.
         11    1    4    4    0    0 -0.30296422477E+02 -0.23801852220E+02  0.90511784279E+02  0.98370648454E+02  0.00000000000E+00 0. -1.
        -12    1    4    4    0    0  0.37082437912E+02  0.74862619300E+01  0.19791309496E+03  0.20149626417E+03  0.00000000000E+00 0.  1.
</event>
<event>
12    1  0.1061634E+000  0.1952194E+03  0.7818608E-02  0.1153839E+00
         21   -1    0    0  503  502  0.00000000000E+00  0.00000000000E+00  0.31025898622E+04  0.31025898622E+04  0.00000000000E+00 0.  1.
         21   -1    0    0  501  503 -0.00000000000E+00 -0.00000000000E+00 -0.12317955180E+02  0.12317955180E+02  0.00000000000E+00 0.  1.
          6    2    1    2  501    0  0.48798063788E+02 -0.78424393470E+02  0.16286870389E+04  0.16403451107E+04  0.17198539245E+03 0.  0.
         24    2    3    3    0    0  0.11557017289E+02 -0.11627387365E+02  0.36105322727E+03  0.37039774730E+03  0.81032694040E+02 0.  0.
         -6    2    1    2    0  502 -0.48798063788E+02  0.78424393470E+02  0.14615848681E+04  0.14745627066E+04  0.17196863812E+03 0.  0.
        -24    2    5    5    0    0 -0.63443502233E+02  0.48011910735E+02  0.49273349754E+03  0.50511210124E+03  0.77599701535E+02 0.  0.
          5    1    3    3  501    0  0.37241046499E+02 -0.66797006105E+02  0.12676338116E+04  0.12699473634E+04  0.47000000000E+01 0. -1.
        -11    1    4    4    0    0  0.39983571745E+02 -0.23909219190E+02  0.14950970876E+03  0.15659977582E+03  0.00000000000E+00 0.  1.
         12    1    4    4    0    0 -0.28426554455E+02  0.12281831826E+02  0.21154351850E+03  0.21379797149E+03  0.00000000000E+00 0. -1.
         -5    1    5    5    0  502  0.14645438444E+02  0.30412482735E+02  0.96885137060E+03  0.96945060539E+03  0.47000000000E+01 0.  1.
         13    1    6    6    0    0 -0.66750864289E+02  0.65199667274E+02  0.39976721112E+03  0.41051248164E+03  0.00000000000E+00 0. -1.
        -14    1    6    6    0    0  0.33073620566E+01 -0.17187756539E+02  0.92966286422E+02  0.94599619607E+02  0.00000000000E+00 0.  1.
</event>
<event>
12    1  0.1061634E+000  0.1784833E+03  0.7818608E-02  0.1169327E+00
         21   -1    0    0  503  502  0.00000000000E+00  0.00000000000E+00  0.59382826838E+02  0.59382826838E+02  0.00000000000E+00 0. -1.
         21   -1    0    0  501  503 -0.00000000000E+00 -0.00000000000E+00 -0.73081367435E+03  0.73081367435E+03  0.00000000000E+00 0. -1.
          6    2    1    2  501    0  0.18332088094E+02 -0.44035785637E+02 -0.13178894153E+03  0.22186618670E+03  0.17199146438E+03 0.  0.
         24    2    3    3    0    0  0.59002141668E+02 -0.76811527053E+02 -0.10600340248E+03  0.16342573404E+03  0.78038361070E+02 0.  0.
         -6    2    1    2    0  502 -0.18332088094E+02  0.44035785637E+02 -0.53964190598E+03  0.56833031448E+03  0.17178691396E+03 0.  0.
        -24    2    5    5    0    0  0.95855883787E+01 -0.42596318735E+02 -0.23536877221E+03  0.25070042279E+03  0.74470888141E+02 0.  0.
          5    1    3    3  501    0 -0.40670053574E+02  0.32775741417E+02 -0.25785539053E+02  0.58440452662E+02  0.47000000000E+01 0. -1.
        -13    1    4    4    0    0 -0.41809554187E+00 -0.97789625073E+01  0.11865207173E+02  0.15381354065E+02  0.00000000000E+00 0.  1.
         14    1    4    4    0    0  0.59420237210E+02 -0.67032564546E+02 -0.11786860965E+03  0.14804437997E+03  0.00000000000E+00 0. -1.
         -5    1    5    5    0  502 -0.27917676473E+02  0.86632104372E+02 -0.30427313377E+03  0.31762989170E+03  0.47000000000E+01 0.  1.
         11    1    6    6    0    0 -0.27800686626E+02 -0.39897367107E+02 -0.12407485387E+03  0.13326382646E+03  0.00000000000E+00 0. -1.
        -12    1    6    6    0    0  0.37386275005E+02 -0.26989516280E+01 -0.11129391834E+03  0.11743659633E+03  0.00000000000E+00 0.  1.
</event>
<event>
12    1  0.1061634E+000  0.2349230E+03  0.7818608E-02  0.1123377E+00
         21   -1    0    0  501  502  0.00000000000E+00  0.00000000000E+00  0.24149450440E+03  0.24149450440E+03  0.00000000000E+00 0. -1.
         21   -1    0    0  502  503 -0.00000000000E+00 -0.00000000000E+00 -0.28540593690E+03  0.28540593690E+03  0.00000000000E+00 0. -1.
         -6    2    1    2    0  503  0.15753491096E+03 -0.23859413123E+02  0.96587984113E+02  0.25316896929E+03  0.17140235870E+03 0.  0.
        -24    2    3    3    0    0  0.31138537935E+02 -0.52905566272E+02  0.21346752315E+02  0.10315878600E+03  0.80108949606E+02 0.  0.
          6    2    1    2  501    0 -0.15753491096E+03  0.23859413123E+02 -0.14049941662E+03  0.27373147202E+03  0.17263346413E+03 0.  0.
         24    2    5    5    0    0 -0.17158726871E+03  0.57404823662E+02 -0.11561181163E+03  0.22941165468E+03  0.80784353387E+02 0.  0.
          5    1    5    5  501    0  0.14052357749E+02 -0.33545410539E+02 -0.24887604991E+02  0.44319817337E+02  0.47000000000E+01 0. -1.
        -11    1    6    6    0    0 -0.33284613727E+01  0.26552458748E+02 -0.11269042333E+02  0.29036236598E+02  0.00000000000E+00 0.  1.
         12    1    6    6    0    0 -0.16825880734E+03  0.30852364914E+02 -0.10434276929E+03  0.20037541808E+03  0.00000000000E+00 0. -1.
         -5    1    3    3    0  503  0.12639637303E+03  0.29046153149E+02  0.75241231799E+02  0.15001018329E+03  0.47000000000E+01 0.  1.
         11    1    4    4    0    0  0.75494015901E+01 -0.10136729383E+02 -0.29840863961E+02  0.32407158297E+02  0.00000000000E+00 0. -1.
        -12    1    4    4    0    0  0.23589136345E+02 -0.42768836889E+02  0.51187616276E+02  0.70751627701E+02  0.00000000000E+00 0.  1.
</event>
<event>
12    1  0.1061634E+000  0.4003672E+03  0.7818608E-02  0.1043706E+00
         21   -1    0    0  503  502  0.00000000000E+00  0.00000000000E+00  0.13287163877E+03  0.13287163877E+03  0.00000000000E+00 0.  1.
         21   -1    0    0  501  503 -0.00000000000E+00 -0.00000000000E+00 -0.26691512276E+04  0.26691512276E+04  0.00000000000E+00 0. -1.
          6    2    1    2  501    0 -0.36051198719E+03 -0.22266780750E+02 -0.23077100695E+03  0.46211374683E+03  0.17271118936E+03 0.  0.
         24    2    3    3    0    0 -0.33871581977E+03  0.24001171170E+02 -0.20207971071E+03  0.40328283005E+03  0.80600054314E+02 0.  0.
         -6    2    1    2    0  502  0.36051198719E+03  0.22266780750E+02 -0.23055085819E+04  0.23399091195E+04  0.17128970811E+03 0.  0.
        -24    2    5    5    0    0  0.28172155138E+03  0.39742054089E+02 -0.20712943142E+04  0.20921355714E+04  0.76319393589E+02 0.  0.
          5    1    3    3  501    0 -0.21796167419E+02 -0.46267951920E+02 -0.28691296243E+02  0.58830916780E+02  0.47000000000E+01 0. -1.
        -13    1    4    4    0    0 -0.45722028666E+02 -0.22438902025E+02 -0.43079847672E+02  0.66707432156E+02  0.00000000000E+00 0.  1.
         14    1    4    4    0    0 -0.29299379110E+03  0.46440073195E+02 -0.15899986304E+03  0.33657539790E+03  0.00000000000E+00 0. -1.
         -5    1    5    5    0  502  0.78790435809E+02 -0.17475273339E+02 -0.23421426772E+03  0.24777354814E+03  0.47000000000E+01 0.  1.
         13    1    6    6    0    0  0.23327934848E+03  0.60502980759E+01 -0.15410720543E+04  0.15586400922E+04  0.00000000000E+00 0. -1.
        -14    1    6    6    0    0  0.48442202902E+02  0.33691756013E+02 -0.53022225989E+03  0.53349547920E+03  0.00000000000E+00 0.  1.
</event>
<event>
12    1  0.1061634E+000  0.2199716E+03  0.7818608E-02  0.1133982E+00
         21   -1    0    0  503  502  0.00000000000E+00  0.00000000000E+00  0.10112375077E+03  0.10112375077E+03  0.00000000000E+00 0.  1.
         21   -1    0    0  501  503 -0.00000000000E+00 -0.00000000000E+00 -0.48234097820E+03  0.48234097820E+03  0.00000000000E+00 0.  1.
          6    2    1    2  501    0  0.11080672881E+03 -0.79830983885E+02 -0.21972644640E+03  0.31091352432E+03  0.17244242871E+03 0.  0.
         24    2    3    3    0    0  0.12702895131E+03 -0.98780056573E+02 -0.22248750452E+03  0.28538038310E+03  0.77765155066E+02 0.  0.
         -6    2    1    2    0  502 -0.11080672881E+03  0.79830983885E+02 -0.16149078103E+03  0.27255120465E+03  0.17191209864E+03 0.  0.
        -24    2    5    5    0    0 -0.35428772100E+02  0.10793907922E+03 -0.10898487384E+03  0.17636980483E+03  0.79514543426E+02 0.  0.
          5    1    3    3  501    0 -0.16222222504E+02  0.18949072688E+02  0.27610581180E+01  0.25533141221E+02  0.47000000000E+01 0. -1.
        -11    1    4    4    0    0  0.57424704110E+02 -0.38223979077E+02 -0.15919287621E+03  0.17349651597E+03  0.00000000000E+00 0.  1.
         12    1    4    4    0    0  0.69604247201E+02 -0.60556077496E+02 -0.63294628308E+02  0.11188386712E+03  0.00000000000E+00 0. -1.
         -5    1    5    5    0  502 -0.75377956707E+02 -0.28108095331E+02 -0.52505907198E+02  0.96181399819E+02  0.47000000000E+01 0.  1.
         13    1    6    6    0    0 -0.11097818515E+02  0.78258321221E+01 -0.61400856503E+02  0.62884580014E+02  0.00000000000E+00 0. -1.
        -14    1    6    6    0    0 -0.24330953585E+02  0.10011324709E+03 -0.47584017332E+02  0.11348522482E+03  0.00000000000E+00 0.  1.
</event>
<event>
12    1  0.1061634E+000  0.2026408E+03  0.7818608E-02  0.1147905E+00
         21   -1    0    0  503  502  0.00000000000E+00  0.00000000000E+00  0.36065169238E+02  0.36065169238E+02  0.00000000000E+00 0. -1.
         21   -1    0    0  501  503 -0.00000000000E+00 -0.00000000000E+00 -0.20747442126E+04  0.20747442126E+04  0.00000000000E+00 0. -1.
          6    2    1    2  501    0 -0.26579590431E+02  0.10434782388E+03 -0.30411086680E+03  0.36444456591E+03  0.16953312167E+03 0.  0.
         24    2    3    3    0    0 -0.37119007159E+02  0.64907971491E+01 -0.75414231540E+02  0.11542384797E+03  0.78837853991E+02 0.  0.
         -6    2    1    2    0  502  0.26579590431E+02 -0.10434782388E+03 -0.17345681765E+04  0.17463648159E+04  0.17166353187E+03 0.  0.
        -24    2    5    5    0    0 -0.39221580118E+02 -0.17029615822E+02 -0.61593749228E+03  0.62239374809E+03  0.78527976578E+02 0.  0.
          5    1    3    3  501    0  0.10539416729E+02  0.97857026732E+02 -0.22869663526E+03  0.24902071794E+03  0.47000000000E+01 0. -1.
        -11    1    4    4    0    0 -0.38680675950E+02  0.27857258085E+02 -0.80362498086E+02  0.93436355979E+02  0.00000000000E+00 0.  1.
         12    1    4    4    0    0  0.15616687906E+01 -0.21366460936E+02  0.49482665465E+01  0.21987491993E+02  0.00000000000E+00 0. -1.
         -5    1    5    5    0  502  0.65801170548E+02 -0.87318208059E+02 -0.11186306843E+04  0.11239710678E+04  0.47000000000E+01 0.  1.
         11    1    6    6    0    0  0.56413938539E+01 -0.49187408098E+01 -0.36174179101E+01  0.83129446110E+01  0.00000000000E+00 0. -1.
        -12    1    6    6    0    0 -0.44862973971E+02 -0.12110875012E+02 -0.61232007437E+03  0.61408080348E+03  0.00000000000E+00 0.  1.
</event>
<event>
12    1  0.1061634E+000  0.2073912E+03  0.7818608E-02  0.1143918E+00
         21   -1    0    0  503  502  0.00000000000E+00  0.00000000000E+00  0.99171910493E+03  0.99171910493E+03  0.00000000000E+00 0.  1.
         21   -1    0    0  501  503 -0.00000000000E+00 -0.00000000000E+00 -0.59202874240E+02  0.59202874240E+02  0.00000000000E+00 0.  1.
          6    2    1    2  501    0 -0.46671261747E+02  0.10385752123E+03  0.19105126348E+03  0.28099899425E+03  0.17174183562E+03 0.  0.
         24    2    3    3    0    0 -0.21177379192E+02  0.82066247528E+02  0.35964151875E+02  0.12225738079E+03  0.80436910464E+02 0.  0.
         -6    2    1    2    0  502  0.46671261747E+02 -0.10385752123E+03  0.74146496721E+03  0.76992298492E+03  0.17333930230E+03 0.  0.
        -24    2    5    5    0    0  0.16900939813E+02 -0.54213207444E+02  0.17077259542E+03  0.19628311255E+03  0.78352200328E+02 0.  0.
          5    1    3    3  501    0 -0.25493882555E+02  0.21791273700E+02  0.15508711160E+03  0.15874161346E+03  0.47000000000E+01 0. -1.
        -13    1    4    4    0    0 -0.19138831566E+02 -0.17967812897E+01  0.33152506601E+02  0.38322473702E+02  0.00000000000E+00 0.  1.
         14    1    4    4    0    0 -0.20385476261E+01  0.83863028818E+02  0.28116452742E+01  0.83934907090E+02  0.00000000000E+00 0. -1.
         -5    1    5    5    0  502  0.29770321934E+02 -0.49644313785E+02  0.57069237179E+03  0.57363987238E+03  0.47000000000E+01 0.  1.
         11    1    6    6    0    0  0.25406052268E+02 -0.70186137479E+02  0.15594362975E+03  0.17288718011E+03  0.00000000000E+00 0. -1.
        -12    1    6    6    0    0 -0.85051124556E+01  0.15972930035E+02  0.14828965669E+02  0.23395932437E+02  0.00000000000E+00 0.  1.
</event>
<event>
12    1  0.1061634E+000  0.1752664E+03  0.7818608E-02  0.1172511E+00
         21   -1    0    0  501  502  0.00000000000E+00  0.00000000000E+00  0.63347518988E+03  0.63347518988E+03  0.00000000000E+00 0.  1.
         21   -1    0    0  502  503 -0.00000000000E+00 -0.00000000000E+00 -0.62020205777E+02  0.62020205777E+02  0.00000000000E+00 0.  1.
         -6    2    1    2    0  503  0.10807286999E+02 -0.30275044497E+02  0.12312549868E+03  0.21419193259E+03  0.17229312171E+03 0.  0.
        -24    2    3    3    0    0 -0.31590021698E+02 -0.71043546732E+02  0.70168676875E+02  0.13490689280E+03  0.85035942437E+02 0.  0.
          6    2    1    2  501    0 -0.10807286999E+02  0.30275044497E+02  0.44832948542E+03  0.48130346306E+03  0.17210554986E+03 0.  0.
         24    2    5    5    0    0  0.50425039885E+02  0.54593210293E+02  0.30618021949E+03  0.32455757046E+03  0.77898565333E+02 0.  0.
          5    1    5    5  501    0 -0.61232326884E+02 -0.24318165796E+02  0.14214926593E+03  0.15674589261E+03  0.47000000000E+01 0. -1.
        -11    1    6    6    0    0  0.26573137941E+02  0.22866307323E+01  0.21864093440E+02  0.34487663332E+02  0.00000000000E+00 0.  1.
         12    1    6    6    0    0  0.23851901944E+02  0.52306579561E+02  0.28431612604E+03  0.29006990713E+03  0.00000000000E+00 0. -1.
         -5    1    3    3    0  503  0.42397308697E+02  0.40768502235E+02  0.52956821806E+02  0.79285039793E+02  0.47000000000E+01 0.  1.
         11    1    4    4    0    0 -0.43880189434E+02 -0.38892188978E+02  0.21493816970E+01  0.58674468297E+02  0.00000000000E+00 0. -1.
        -12    1    4    4    0    0  0.12290167736E+02 -0.32151357754E+02  0.68019295178E+02  0.76232424498E+02  0.00000000000E+00 0.  1.
</event>
<event>
12    1  0.1061634E+000  0.2494457E+03  0.7818608E-02  0.1113975E+00
         21   -1    0    0  501  502  0.00000000000E+00  0.00000000000E+00  0.43494668615E+02  0.43494668615E+02  0.00000000000E+00 0. -1.
         21   -1    0    0  502  503 -0.00000000000E+00 -0.00000000000E+00 -0.14196290514E+04  0.14196290514E+04  0.00000000000E+00 0. -1.
         -6    2    1    2    0  503  0.75613043006E+02 -0.16378926203E+03 -0.67119608556E+03  0.71535292641E+03  0.16935574811E+03 0.  0.
        -24    2    3    3    0    0  0.34385100375E+02 -0.64041884564E+02 -0.52298812250E+03  0.53194907454E+03  0.64572002624E+02 0.  0.
          6    2    1    2  501    0 -0.75613043006E+02  0.16378926203E+03 -0.70493829726E+03  0.74777079364E+03  0.17227565775E+03 0.  0.
         24    2    5    5    0    0 -0.90968548459E+02  0.11993034142E+03 -0.36768476704E+03  0.40729843043E+03  0.89673629995E+02 0.  0.
          5    1    5    5  501    0  0.15355505453E+02  0.43858920610E+02 -0.33725353022E+03  0.34047236321E+03  0.47000000000E+01 0. -1.
        -13    1    6    6    0    0 -0.46005094722E+02  0.58468562633E+02 -0.28643642887E+03  0.29594065172E+03  0.00000000000E+00 0.  1.
         14    1    6    6    0    0 -0.44963453738E+02  0.61461778786E+02 -0.81248338161E+02  0.11135777870E+03  0.00000000000E+00 0. -1.
         -5    1    3    3    0  503  0.41227942632E+02 -0.99747377465E+02 -0.14820796306E+03  0.18340385187E+03  0.47000000000E+01 0.  1.
         13    1    4    4    0    0 -0.67908552481E+01  0.69386035559E+01 -0.13653931121E+03  0.13688405108E+03  0.00000000000E+00 0. -1.
        -14    1    4    4    0    0  0.41175955623E+02 -0.70980488120E+02 -0.38644881129E+03  0.39506502347E+03  0.00000000000E+00 0.  1.
</event>
<event>
12    1  0.1061634E+000  0.1939535E+03  0.7818608E-02  0.1155720E+00
         21   -1    0    0  503  502  0.00000000000E+00  0.00000000000E+00  0.16406227040E+03  0.16406227040E+03  0.00000000000E+00 0. -1.
         21   -1    0    0  501  503 -0.00000000000E+00 -0.00000000000E+00 -0.38355383392E+03  0.38355383392E+03  0.00000000000E+00 0. -1.
          6    2    1    2  501    0  0.89044459088E+02  0.10795822751E+02  0.66790437671E+02  0.20181943366E+03  0.16800195164E+03 0.  0.
         24    2    3    3    0    0  0.58273567418E+02 -0.73369120717E+01 -0.26240897142E+02  0.10205690009E+03  0.79229964250E+02 0.  0.
         -6    2    1    2    0  502 -0.89044459088E+02 -0.10795822751E+02 -0.28628200118E+03  0.34579667067E+03  0.17196653093E+03 0.  0.
        -24    2    5    5    0    0 -0.64193546658E+02 -0.22618039385E+02 -0.66129910676E+02  0.12388144899E+03  0.79630780361E+02 0.  0.
          5    1    3    3  501    0  0.30770891669E+02  0.18132734823E+02  0.93031334813E+02  0.99762533565E+02  0.47000000000E+01 0. -1.
        -11    1    4    4    0    0  0.50356862881E+02 -0.15782374028E+02  0.18439810252E+02  0.55901015834E+02  0.00000000000E+00 0.  1.
         12    1    4    4    0    0  0.79167045378E+01  0.84454619560E+01 -0.44680707394E+02  0.46155884258E+02  0.00000000000E+00 0. -1.
         -5    1    5    5    0  502 -0.24850912430E+02  0.11822216633E+02 -0.22015209051E+03  0.22191522167E+03  0.47000000000E+01 0.  1.
         13    1    6    6    0    0 -0.75018700115E+01  0.36585848826E+00  0.18206510815E+02  0.19694896348E+02  0.00000000000E+00 0. -1.
        -14    1    6    6    0    0 -0.56691676646E+02 -0.22983897873E+02 -0.84336421491E+02  0.10418655265E+03  0.00000000000E+00 0.  1.
</event>
<event>
12    1  0.1061634E+000  0.4146474E+03  0.7818608E-02  0.1038906E+00
         21   -1    0    0  501  502  0.00000000000E+00  0.00000000000E+00  0.37643413107E+03  0.37643413107E+03  0.00000000000E+00 0. -1.
         21   -1    0    0  502  503 -0.00000000000E+00 -0.00000000000E+00 -0.49956875780E+03  0.49956875780E+03  0.00000000000E+00 0. -1.
         -6    2    1    2    0  503  0.35592982312E+03 -0.12544617338E+03  0.68252026109E+02  0.42022707332E+03  0.17178379632E+03 0.  0.
        -24    2    3    3    0    0  0.27655118577E+03 -0.10881721837E+03  0.11223484824E+03  0.32784704921E+03  0.81026422546E+02 0.  0.
          6    2    1    2  501    0 -0.35592982312E+03  0.12544617338E+03 -0.19138665284E+03  0.45577581555E+03  0.16935159212E+03 0.  0.
         24    2    5    5    0    0 -0.28310200232E+03  0.15337749676E+03 -0.13028310368E+03  0.35658013002E+03  0.80649251657E+02 0.  0.
          5    1    5    5  501    0 -0.72827820805E+02 -0.27931323379E+02 -0.61103549152E+02  0.99195685531E+02  0.47000000000E+01 0. -1.
        -13    1    6    6    0    0 -0.15994144021E+03  0.11090386018E+03 -0.11328123016E+03  0.22519673090E+03  0.00000000000E+00 0.  1.
         14    1    6    6    0    0 -0.12316056210E+03  0.42473636573E+02 -0.17001873524E+02  0.13138339912E+03  0.00000000000E+00 0. -1.
         -5    1    3    3    0  503  0.79378637348E+02 -0.16628955006E+02 -0.43982822128E+02  0.92380024108E+02  0.47000000000E+01 0.  1.
         13    1    4    4    0    0  0.57447448826E+02  0.10492200452E+02  0.25439076030E+02  0.63698055200E+02  0.00000000000E+00 0. -1.
        -14    1    4    4    0    0  0.21910373695E+03 -0.11930941882E+03  0.86795772207E+02  0.26414899401E+03  0.00000000000E+00 0.  1.
</event>
<event>
12    1  0.1061634E+000  0.2304809E+03  0.7818608E-02  0.1126316E+00
         21   -1    0    0  501  502  0.00000000000E+00  0.00000000000E+00  0.33697383886E+03  0.33697383886E+03  0.00000000000E+00 0.  1.
         21   -1    0    0  502  503 -0.00000000000E+00 -0.00000000000E+00 -0.18908328899E+03  0.18908328899E+03  0.00000000000E+00 0. -1.
         -6    2    1    2    0  503 -0.15095950139E+03 -0.23130028428E+02  0.18131008329E+03  0.29324867250E+03  0.17262001143E+03 0.  0.
        -24    2    3    3    0    0 -0.11606008494E+02  0.11985411861E+02  0.94897961586E+02  0.12549398581E+03  0.80403779955E+02 0.  0.
          6    2    1    2  501    0  0.15095950139E+03  0.23130028428E+02 -0.33419533421E+02  0.23280845535E+03  0.17250838355E+03 0.  0.
         24    2    5    5    0    0  0.47914252185E+01  0.20719785069E+02  0.98018766044E+01  0.80292567494E+02  0.76802033572E+02 0.  0.
          5    1    5    5  501    0  0.14616807617E+03  0.24102433585E+01 -0.43221410026E+02  0.15251588786E+03  0.47000000000E+01 0. -1.
        -13    1    6    6    0    0  0.15610663905E+02  0.23942208536E+02  0.39365245832E+02  0.48647145410E+02  0.00000000000E+00 0.  1.
         14    1    6    6    0    0 -0.10819238686E+02 -0.32224234666E+01 -0.29563369228E+02  0.31645422084E+02  0.00000000000E+00 0. -1.
         -5    1    3    3    0  503 -0.13935349289E+03 -0.35115440288E+02  0.86412121704E+02  0.16775468669E+03  0.47000000000E+01 0.  1.
         13    1    4    4    0    0 -0.46253885341E+02  0.33435097901E+01  0.55361072932E+02  0.72218068120E+02  0.00000000000E+00 0. -1.
        -14    1    4    4    0    0  0.34647876847E+02  0.86419020705E+01  0.39536888654E+02  0.53275917692E+02  0.00000000000E+00 0.  1.
</event>
<event>
12    1  0.1061634E+000  0.3028095E+03  0.7818608E-02  0.1083893E+00
         21   -1    0    0  503  502  0.00000000000E+00  0.00000000000E+00  0.17188401267E+03  0.17188401267E+03  0.00000000000E+00 0.  1.
         21   -1    0    0  501  503 -0.00000000000E+00 -0.00000000000E+00 -0.67504718387E+03  0.67504718387E+03  0.00000000000E+00 0.  1.
          6    2    1    2  501    0  0.17380866805E+03  0.17699934254E+03 -0.57046601296E+02  0.30775258816E+03  0.17297144403E+03 0.  0.
         24    2    3    3    0    0  0.17908949018E+03  0.17625146481E+03 -0.14217489708E+02  0.26433750780E+03  0.80836604816E+02 0.  0.
         -6    2    1    2    0  502 -0.17380866805E+03 -0.17699934254E+03 -0.44611656990E+03  0.53917860837E+03  0.17365297992E+03 0.  0.
        -24    2    5    5    0    0 -0.30622749781E+02 -0.87147269391E+02 -0.26275997979E+03  0.28974458628E+03  0.79854360755E+02 0.  0.
          5    1    3    3  501    0 -0.52808221237E+01  0.74787773480E+00 -0.42829111588E+02  0.43415080362E+02  0.47000000000E+01 0. -1.
        -11    1    4    4    0    0  0.39033025425E+02  0.56297263947E+01 -0.18482334097E+02  0.43553043140E+02  0.00000000000E+00 0.  1.
         12    1    4    4    0    0  0.14005646475E+03  0.17062173842E+03  0.42648443888E+01  0.22078446466E+03  0.00000000000E+00 0. -1.
         -5    1    5    5    0  502 -0.14318591827E+03 -0.89852073154E+02 -0.18335659011E+03  0.24943402210E+03  0.47000000000E+01 0.  1.
         13    1    6    6    0    0 -0.44573183054E+02 -0.28002908733E+02 -0.17683198707E+03  0.18450063197E+03  0.00000000000E+00 0. -1.
        -14    1    6    6    0    0  0.13950433272E+02 -0.59144360658E+02 -0.85927992720E+02  0.10524395431E+03  0.00000000000E+00 0.  1.
</event>
<event>
12    1  0.1061634E+000  0.7185552E+03  0.7818608E-02  0.9686043E-01
         21   -1    0    0  503  502  0.00000000000E+00  0.00000000000E+00  0.73496419005E+03  0.73496419005E+03  0.00000000000E+00 0. -1.
         21   -1    0    0  501  503 -0.00000000000E+00 -0.00000000000E+00 -0.70635326526E+03  0.70635326526E+03  0.00000000000E+00 0. -1.
          6    2    1    2  501    0 -0.12525807343E+03  0.68608195351E+03  0.67889234911E+02  0.72168948165E+03  0.17270995283E+03 0.  0.
         24    2    3    3    0    0 -0.97734168782E+02  0.62958170239E+03  0.19695401802E+02  0.64235109715E+03  0.79384730463E+02 0.  0.
         -6    2    1    2    0  502  0.12525807343E+03 -0.68608195351E+03 -0.39278310129E+02  0.71962797366E+03  0.17298440085E+03 0.  0.
        -24    2    5    5    0    0  0.13666614679E+03 -0.42237054669E+03  0.87113955038E+01  0.45130176907E+03  0.80764373109E+02 0.  0.
          5    1    3    3  501    0 -0.27523904650E+02  0.56500251126E+02  0.48193833110E+02  0.79338384495E+02  0.47000000000E+01 0. -1.
        -13    1    4    4    0    0  0.56805645261E+01  0.16802364127E+03  0.20369077695E+02  0.16934908374E+03  0.00000000000E+00 0.  1.
         14    1    4    4    0    0 -0.10341473331E+03  0.46155806112E+03 -0.67367589280E+00  0.47300201341E+03  0.00000000000E+00 0. -1.
         -5    1    5    5    0  502 -0.11408073355E+02 -0.26371140682E+03 -0.47989705633E+02  0.26832620459E+03  0.47000000000E+01 0.  1.
         13    1    6    6    0    0  0.13637643740E+02 -0.12800238259E+02  0.14415746862E+02  0.23614512145E+02  0.00000000000E+00 0. -1.
        -14    1    6    6    0    0  0.12302850305E+03 -0.40957030843E+03 -0.57043513579E+01  0.42768725693E+03  0.00000000000E+00 0.  1.
</event>
<event>
12    1  0.1061634E+000  0.2092932E+03  0.7818608E-02  0.1143324E+00
         21   -1    0    0  501  502  0.00000000000E+00  0.00000000000E+00  0.33458422801E+03  0.33458422801E+03  0.00000000000E+00 0. -1.
         21   -1    0    0  502  503 -0.00000000000E+00 -0.00000000000E+00 -0.14254543514E+03  0.14254543514E+03  0.00000000000E+00 0. -1.
         -6    2    1    2    0  503  0.11465572400E+03 -0.29563010734E+02  0.19077044391E+02  0.21016080399E+03  0.17257961427E+03 0.  0.
        -24    2    3    3    0    0  0.11842946305E+03 -0.29813837295E+02 -0.39553557953E+02  0.15122065170E+03  0.79929962728E+02 0.  0.
          6    2    1    2  501    0 -0.11465572400E+03  0.29563010734E+02  0.17296174848E+03  0.26696885917E+03  0.16533813438E+03 0.  0.
         24    2    5    5    0    0 -0.71868986159E+02 -0.39172759582E+02  0.12881141690E+03  0.17462898244E+03  0.84871927745E+02 0.  0.
          5    1    5    5  501    0 -0.42786737838E+02  0.68735770316E+02  0.44150331582E+02  0.92339876731E+02  0.47000000000E+01 0. -1.
        -11    1    6    6    0    0 -0.90118668471E+02 -0.28597301542E+02  0.11709606585E+03  0.15050139102E+03  0.00000000000E+00 0.  1.
         12    1    6    6    0    0  0.18249682312E+02 -0.10575458040E+02  0.11715351046E+02  0.24127591413E+02  0.00000000000E+00 0. -1.
         -5    1    3    3    0  503 -0.37737390495E+01  0.25082656054E+00  0.58630602344E+02  0.58940152287E+02  0.47000000000E+01 0.  1.
         11    1    4    4    0    0  0.20654206419E+02 -0.30036090803E+02 -0.39083236179E+02  0.53444011299E+02  0.00000000000E+00 0. -1.
        -12    1    4    4    0    0  0.97775256628E+02  0.22225350814E+00 -0.47032177449E+00  0.97776640399E+02  0.00000000000E+00 0.  1.
</event>
<event>
12    1  0.1061634E+000  0.1817096E+03  0.7818608E-02  0.1166227E+00
         21   -1    0    0  501  502  0.00000000000E+00  0.00000000000E+00  0.19783515598E+03  0.19783515598E+03  0.00000000000E+00 0.  1.
         21   -1    0    0  502  503 -0.00000000000E+00 -0.00000000000E+00 -0.16980260340E+03  0.16980260340E+03  0.00000000000E+00 0.  1.
         -6    2    1    2    0  503  0.42927825403E+02 -0.40873618641E+02 -0.11094015720E+02  0.18176341575E+03  0.17146839717E+03 0.  0.
        -24    2    3    3    0    0  0.77852229430E+02 -0.62153663561E+01 -0.47379951968E+02  0.12044728723E+03  0.78505342147E+02 0.  0.
          6    2    1    2  501    0 -0.42927825403E+02  0.40873618641E+02  0.39126568300E+02  0.18587434363E+03  0.17176999848E+03 0.  0.
         24    2    5    5    0    0 -0.43957619051E+01 -0.37883527863E+02  0.43822470926E+02  0.97945113312E+02  0.78856527045E+02 0.  0.
          5    1    5    5  501    0 -0.38532063498E+02  0.78757146504E+02 -0.46959026255E+01  0.87929230318E+02  0.47000000000E+01 0. -1.
        -11    1    6    6    0    0 -0.35289915337E+02  0.39994071389E+01  0.16430264504E+02  0.39132173126E+02  0.00000000000E+00 0.  1.
         12    1    6    6    0    0  0.30894153432E+02 -0.41882935001E+02  0.27392206422E+02  0.58812940186E+02  0.00000000000E+00 0. -1.
         -5    1    3    3    0  503 -0.34924404027E+02 -0.34658252285E+02  0.36285936247E+02  0.61316128527E+02  0.47000000000E+01 0.  1.
         13    1    4    4    0    0 -0.13159517588E+01 -0.28373203618E+02 -0.97136973858E+01  0.30018766288E+02  0.00000000000E+00 0. -1.
        -14    1    4    4    0    0  0.79168181189E+02  0.22157837262E+02 -0.37666254582E+02  0.90428520938E+02  0.00000000000E+00 0.  1.
</event>
<event>
12    1  0.1061634E+000  0.2107563E+03  0.7818608E-02  0.1141162E+00
         21   -1    0    0  503  502  0.00000000000E+00  0.00000000000E+00  0.24204809104E+03  0.24204809104E+03  0.00000000000E+00 0.  1.
         21   -1    0    0  501  503 -0.00000000000E+00 -0.00000000000E+00 -0.18265942012E+03  0.18265942012E+03  0.00000000000E+00 0.  1.
          6    2    1    2  501    0  0.33555117692E+02 -0.11725355346E+03  0.30485601656E+02  0.21294978316E+03  0.17188338058E+03 0.  0.
         24    2    3    3    0    0 -0.40133092714E+01 -0.28531495565E+02 -0.39809236931E+02  0.93591312189E+02  0.79651776388E+02 0.  0.
         -6    2    1    2    0  502 -0.33555117692E+02  0.11725355346E+03  0.28903069261E+02  0.21175772799E+03  0.17067983545E+03 0.  0.
        -24    2    5    5    0    0 -0.32561959197E+01  0.12891868329E+03  0.63462985060E+02  0.16410714883E+03  0.79202121889E+02 0.  0.
          5    1    3    3  501    0  0.37568426963E+02 -0.88722057893E+02  0.70294838588E+02  0.11935847097E+03  0.47000000000E+01 0. -1.
        -13    1    4    4    0    0  0.15636732909E+02 -0.50099100123E+02 -0.37135848465E+02  0.64292289510E+02  0.00000000000E+00 0.  1.
         14    1    4    4    0    0 -0.19650042180E+02  0.21567604558E+02 -0.26733884659E+01  0.29299022679E+02  0.00000000000E+00 0. -1.
         -5    1    5    5    0  502 -0.30298921772E+02 -0.11665129832E+02 -0.34559915798E+02  0.47650579163E+02  0.47000000000E+01 0.  1.
         11    1    6    6    0    0 -0.93476588610E+01  0.74049045339E+02  0.77029891395E+02  0.10725783892E+03  0.00000000000E+00 0. -1.
        -12    1    6    6    0    0  0.60914629413E+01  0.54869637951E+02 -0.13566906336E+02  0.56849309909E+02  0.00000000000E+00 0.  1.
</event>
<event>
12    1  0.1061634E+000  0.4671006E+03  0.7818608E-02  0.1022766E+00
         21   -1    0    0  501  502  0.00000000000E+00  0.00000000000E+00  0.28161846978E+03  0.28161846978E+03  0.00000000000E+00 0.  1.
         21   -1    0    0  502  503 -0.00000000000E+00 -0.00000000000E+00 -0.77804973817E+03  0.77804973817E+03  0.00000000000E+00 0. -1.
         -6    2    1    2    0  503 -0.34740673486E+03  0.26062337492E+03 -0.21096742951E+03  0.51253319031E+03  0.17195066697E+03 0.  0.
        -24    2    3    3    0    0 -0.28748452301E+03  0.27056571187E+03 -0.16111082206E+03  0.43381030390E+03  0.79884462687E+02 0.  0.
          6    2    1    2  501    0  0.34740673486E+03 -0.26062337492E+03 -0.28546383888E+03  0.54713501764E+03  0.17102965018E+03 0.  0.
         24    2    5    5    0    0  0.35465729181E+03 -0.23836660610E+03 -0.29054558489E+03  0.52272500992E+03  0.78894014760E+02 0.  0.
          5    1    5    5  501    0 -0.72505569446E+01 -0.22256768822E+02  0.50817460099E+01  0.24410007721E+02  0.47000000000E+01 0. -1.
        -13    1    6    6    0    0  0.19890512434E+03 -0.16494428758E+03 -0.20829486138E+03  0.33189850221E+03  0.00000000000E+00 0.  1.
         14    1    6    6    0    0  0.15575216746E+03 -0.73422318525E+02 -0.82250723507E+02  0.19082650771E+03  0.00000000000E+00 0. -1.
         -5    1    3    3    0  503 -0.59922211855E+02 -0.99423369502E+01 -0.49856607451E+02  0.78722886406E+02  0.47000000000E+01 0.  1.
         13    1    4    4    0    0 -0.11140255800E+03  0.15515458419E+03 -0.59653665889E+02  0.20010505935E+03  0.00000000000E+00 0. -1.
        -14    1    4    4    0    0 -0.17608196501E+03  0.11541112769E+03 -0.10145715617E+03  0.23370524456E+03  0.00000000000E+00 0.  1.
</event>
<event>
12    1  0.1061634E+000  0.3066819E+03  0.7818608E-02  0.1081970E+00
         21   -1    0    0  501  502  0.00000000000E+00  0.00000000000E+00  0.58169961187E+02  0.58169961187E+02  0.00000000000E+00 0.  1.
         21   -1    0    0  502  503 -0.00000000000E+00 -0.00000000000E+00 -0.16679943503E+04  0.16679943503E+04  0.00000000000E+00 0.  1.
         -6    2    1    2    0  503 -0.23395482252E+02  0.25299487650E+03 -0.95721938405E+03  0.10050907666E+04  0.17141978818E+03 0.  0.
        -24    2    3    3    0    0 -0.48827797094E+02  0.26167100130E+03 -0.88046447452E+03  0.92363228689E+03  0.83803602579E+02 0.  0.
          6    2    1    2  501    0  0.23395482252E+02 -0.25299487650E+03 -0.65260500503E+03  0.72107354485E+03  0.17175566475E+03 0.  0.
         24    2    5    5    0    0 -0.10790569613E+02 -0.49798424277E+02 -0.14189962037E+03  0.17034714794E+03  0.79286373966E+02 0.  0.
          5    1    5    5  501    0  0.34186051866E+02 -0.20319645222E+03 -0.51070538466E+03  0.55072639691E+03  0.47000000000E+01 0. -1.
        -11    1    6    6    0    0  0.30551227084E+02 -0.14798225417E+02 -0.27197607542E+02  0.43497986250E+02  0.00000000000E+00 0.  1.
         12    1    6    6    0    0 -0.41341796697E+02 -0.35000198861E+02 -0.11470201283E+03  0.12684916169E+03  0.00000000000E+00 0. -1.
         -5    1    3    3    0  503  0.25432314842E+02 -0.86761247975E+01 -0.76754909524E+02  0.81458479704E+02  0.47000000000E+01 0.  1.
         13    1    4    4    0    0  0.13681700736E+02  0.15366925261E+03 -0.48912934795E+03  0.51288297608E+03  0.00000000000E+00 0. -1.
        -14    1    4    4    0    0 -0.62509497830E+02  0.10800174868E+03 -0.39133512658E+03  0.41074931081E+03  0.00000000000E+00 0.  1.
</event>
<event>
12    1  0.1061634E+000  0.2054452E+03  0.7818608E-02  0.1146141E+00
         21   -1    0    0  503  502  0.00000000000E+00  0.00000000000E+00  0.62977219237E+03  0.62977219237E+03  0.00000000000E+00 0.  1.
         21   -1    0    0  501  503 -0.00000000000E+00 -0.00000000000E+00 -0.71083570840E+02  0.71083570840E+02  0.00000000000E+00 0.  1.
          6    2    1    2  501    0  0.10323519279E+03  0.20740884920E+02  0.37968603800E+03  0.43170498936E+03  0.17640867623E+03 0.  0.
         24    2    3    3    0    0  0.93369231496E+02 -0.36976671564E+02  0.33680360944E+03  0.35897503544E+03  0.73084315025E+02 0.  0.
         -6    2    1    2    0  502 -0.10323519279E+03 -0.20740884920E+02  0.17900258353E+03  0.26915077385E+03  0.17120900916E+03 0.  0.
        -24    2    5    5    0    0 -0.10596294487E+03 -0.62066952135E+02  0.92339980241E+02  0.17298538885E+03  0.79478428355E+02 0.  0.
          5    1    3    3  501    0  0.98659612956E+01  0.57717556484E+02  0.42882428558E+02  0.72729953924E+02  0.47000000000E+01 0. -1.
        -13    1    4    4    0    0  0.16088424124E+02 -0.48522903417E+01  0.18389443568E+03  0.18466062273E+03  0.00000000000E+00 0.  1.
         14    1    4    4    0    0  0.77280807371E+02 -0.32124381223E+02  0.15290917376E+03  0.17431441271E+03  0.00000000000E+00 0. -1.
         -5    1    5    5    0  502  0.27277520755E+01  0.41326067215E+02  0.86662603287E+02  0.96165384995E+02  0.47000000000E+01 0.  1.
         13    1    6    6    0    0 -0.30643198764E+02  0.89666783532E+01  0.53706280938E+02  0.62480169360E+02  0.00000000000E+00 0. -1.
        -14    1    6    6    0    0 -0.75319746103E+02 -0.71033630489E+02  0.38633699304E+02  0.11050521949E+03  0.00000000000E+00 0.  1.
</event>
<event>
12    1  0.1061634E+000  0.2529002E+03  0.7818608E-02  0.1111785E+00
         21   -1    0    0  501  502  0.00000000000E+00  0.00000000000E+00  0.29919716730E+03  0.29919716730E+03  0.00000000000E+00 0.  1.
         21   -1    0    0  502  503 -0.00000000000E+00 -0.00000000000E+00 -0.21357708986E+03  0.21357708986E+03  0.00000000000E+00 0.  1.
         -6    2    1    2    0  503  0.16694539507E+02  0.17940646337E+03  0.21695386603E+02  0.25192008370E+03  0.17472164154E+03 0.  0.
        -24    2    3    3    0    0 -0.18610362277E+01  0.13118708664E+03 -0.51621340549E+02  0.16210443827E+03  0.79997318395E+02 0.  0.
          6    2    1    2  501    0 -0.16694539507E+02 -0.17940646337E+03  0.63924690831E+02  0.26085417346E+03  0.17746308621E+03 0.  0.
         24    2    5    5    0    0 -0.33708549427E+02 -0.97846573782E+01  0.27471021799E+01  0.79675198539E+02  0.71474365107E+02 0.  0.
          5    1    5    5  501    0  0.17014009920E+02 -0.16962180599E+03  0.61177588652E+02  0.18117897492E+03  0.47000000000E+01 0. -1.
        -11    1    6    6    0    0 -0.15205570813E+02 -0.38288605467E+02 -0.11582561903E+02  0.42794654252E+02  0.00000000000E+00 0.  1.
         12    1    6    6    0    0 -0.18502978614E+02  0.28503948088E+02  0.14329664083E+02  0.36880544287E+02  0.00000000000E+00 0. -1.
         -5    1    3    3    0  503  0.18555575734E+02  0.48219376728E+02  0.73316727152E+02  0.89815645425E+02  0.47000000000E+01 0.  1.
         13    1    4    4    0    0  0.37675199300E+02  0.50045035606E+02 -0.29128543535E+02  0.69082546852E+02  0.00000000000E+00 0. -1.
        -14    1    4    4    0    0 -0.39536235528E+02  0.81142051036E+02 -0.22492797013E+02  0.93021891421E+02  0.00000000000E+00 0.  1.
</event>
<event>
12    1  0.1061634E+000  0.7095057E+03  0.7818608E-02  0.9701623E-01
         21   -1    0    0  503  502  0.00000000000E+00  0.00000000000E+00  0.96851686088E+03  0.96851686088E+03  0.00000000000E+00 0.  1.
         21   -1    0    0  501  503 -0.00000000000E+00 -0.00000000000E+00 -0.54952318443E+03  0.54952318443E+03  0.00000000000E+00 0. -1.
          6    2    1    2  501    0  0.29472481872E+03  0.62126300592E+03  0.38892157975E+03  0.80910963501E+03  0.17483696685E+03 0.  0.
         24    2    3    3    0    0  0.16063933029E+03  0.22771555787E+03  0.12103502668E+03  0.31449482793E+03  0.81228993437E+02 0.  0.
         -6    2    1    2    0  502 -0.29472481872E+03 -0.62126300592E+03  0.30072096700E+02  0.70893041030E+03  0.16984567807E+03 0.  0.
        -24    2    5    5    0    0 -0.21719487789E+03 -0.31694787339E+03  0.40746660878E+02  0.39467791958E+03  0.80503418550E+02 0.  0.
          5    1    3    3  501    0  0.13408548843E+03  0.39354744805E+03  0.26788655307E+03  0.49461480708E+03  0.47000000000E+01 0. -1.
        -13    1    4    4    0    0  0.94363866455E+02  0.18460361346E+03  0.10989976489E+03  0.23465078674E+03  0.00000000000E+00 0.  1.
         14    1    4    4    0    0  0.66275463837E+02  0.43111944411E+02  0.11135261793E+02  0.79844041186E+02  0.00000000000E+00 0. -1.
         -5    1    5    5    0  502 -0.77529940836E+02 -0.30431513252E+03 -0.10674564178E+02  0.31425249073E+03  0.47000000000E+01 0.  1.
         11    1    6    6    0    0 -0.45377340283E+02 -0.56434489752E+02 -0.23360904373E+02  0.76089989472E+02  0.00000000000E+00 0. -1.
        -12    1    6    6    0    0 -0.17181753760E+03 -0.26051338364E+03  0.64107565251E+02  0.31858793010E+03  0.00000000000E+00 0.  1.
</event>
<event>
12    1  0.1061634E+000  0.1919616E+03  0.7818608E-02  0.1157778E+00
         21   -1    0    0  501  502  0.00000000000E+00  0.00000000000E+00  0.69627950476E+03  0.69627950476E+03  0.00000000000E+00 0. -1.
         21   -1    0    0  502  503 -0.00000000000E+00 -0.00000000000E+00 -0.59030566515E+02  0.59030566515E+02  0.00000000000E+00 0. -1.
         -6    2    1    2    0  503  0.73023087394E+02  0.71268097656E+01  0.18131152295E+03  0.26060999461E+03  0.17222235113E+03 0.  0.
        -24    2    3    3    0    0  0.18300006006E+02  0.59122176716E+02  0.14300597368E+03  0.17583064025E+03  0.81457863610E+02 0.  0.
          6    2    1    2  501    0 -0.73023087394E+02 -0.71268097656E+01  0.45593741530E+03  0.49470007666E+03  0.17738679904E+03 0.  0.
         24    2    5    5    0    0 -0.10602290800E+03 -0.44528164306E+02  0.35926820084E+03  0.38581997515E+03  0.80992583930E+02 0.  0.
          5    1    5    5  501    0  0.32999820609E+02  0.37401354541E+02  0.96669214459E+02  0.10888010151E+03  0.47000000000E+01 0. -1.
        -13    1    6    6    0    0 -0.40276593151E+02 -0.17946983052E+02  0.26063680555E+03  0.26434039147E+03  0.00000000000E+00 0.  1.
         14    1    6    6    0    0 -0.65746314852E+02 -0.26581181254E+02  0.98631395288E+02  0.12147958368E+03  0.00000000000E+00 0. -1.
         -5    1    3    3    0  503  0.54723081388E+02 -0.51995366951E+02  0.38305549270E+02  0.84779354361E+02  0.47000000000E+01 0.  1.
         11    1    4    4    0    0  0.20492865886E+01 -0.19429967894E+02  0.14448069569E+02  0.24299587284E+02  0.00000000000E+00 0. -1.
        -12    1    4    4    0    0  0.16250719417E+02  0.78552144610E+02  0.12855790411E+03  0.15153105297E+03  0.00000000000E+00 0.  1.
</event>
<event>
12    1  0.1061634E+000  0.1858999E+03  0.7818608E-02  0.1162402E+00
         21   -1    0    0  501  502  0.00000000000E+00  0.00000000000E+00  0.11798625169E+03  0.11798625169E+03  0.00000000000E+00 0.  1.
         21   -1    0    0  502  503 -0.00000000000E+00 -0.00000000000E+00 -0.82963710892E+03  0.82963710892E+03  0.00000000000E+00 0.  1.
         -6    2    1    2    0  503  0.12524076919E+00  0.68129494759E+02  0.25456144613E+02  0.18763471773E+03  0.17296568520E+03 0.  0.
        -24    2    3    3    0    0  0.40253771459E+02  0.96824495858E+02  0.40711029852E+02  0.13578393580E+03  0.76056164470E+02 0.  0.
          6    2    1    2  501    0 -0.12524076919E+00 -0.68129494759E+02 -0.73710700184E+03  0.75998864288E+03  0.17208823727E+03 0.  0.
         24    2    5    5    0    0  0.51959303742E+02 -0.85700790593E+00 -0.30139149890E+03  0.31601963860E+03  0.79568037933E+02 0.  0.
          5    1    5    5  501    0 -0.52084544512E+02 -0.67272486853E+02 -0.43571550294E+03  0.44396900429E+03  0.47000000000E+01 0. -1.
        -11    1    6    6    0    0  0.25357822344E+02  0.38379717330E+02 -0.17764533635E+03  0.18350446148E+03  0.00000000000E+00 0.  1.
         12    1    6    6    0    0  0.26601481398E+02 -0.39236725236E+02 -0.12374616255E+03  0.13251517711E+03  0.00000000000E+00 0. -1.
         -5    1    3    3    0  503 -0.40128530690E+02 -0.28695001098E+02 -0.15254885239E+02  0.51850781933E+02  0.47000000000E+01 0.  1.
         11    1    4    4    0    0  0.28625928024E+02  0.93324259786E+02  0.46426093145E+01  0.97726224940E+02  0.00000000000E+00 0. -1.
        -12    1    4    4    0    0  0.11627843435E+02  0.35002360715E+01  0.36068420537E+02  0.38057710856E+02  0.00000000000E+00 0.  1.
</event>
<event>
12    1  0.1061634E+000  0.4249551E+03  0.7818608E-02  0.1035519E+00
         21   -1    0    0  501  502  0.00000000000E+00  0.00000000000E+00  0.16378423888E+04  0.16378423888E+04  0.00000000000E+00 0. -1.
         21   -1    0    0  502  503 -0.00000000000E+00 -0.00000000000E+00 -0.23385232026E+03  0.23385232026E+03  0.00000000000E+00 0. -1.
         -6    2    1    2    0  503 -0.16571029592E+03  0.35060871667E+03  0.13825588571E+04  0.14461995554E+04  0.17215628426E+03 0.  0.
        -24    2    3    3    0    0 -0.32774680501E+02  0.48591071316E+02  0.26580202125E+03  0.28170204297E+03  0.72595141846E+02 0.  0.
          6    2    1    2  501    0  0.16571029592E+03 -0.35060871667E+03  0.21431211426E+02  0.42549515369E+03  0.17378277996E+03 0.  0.
         24    2    5    5    0    0  0.12857868487E+03 -0.28792634443E+03  0.76156701698E+02  0.33425478097E+03  0.80575165943E+02 0.  0.
          5    1    5    5  501    0  0.37131611046E+02 -0.62682372240E+02 -0.54725490272E+02  0.91240372719E+02  0.47000000000E+01 0. -1.
        -11    1    6    6    0    0  0.73637227356E+02 -0.81266673869E+02  0.86185756095E+01  0.11000451527E+03  0.00000000000E+00 0.  1.
         12    1    6    6    0    0  0.54941457519E+02 -0.20665967056E+03  0.67538126089E+02  0.22425026570E+03  0.00000000000E+00 0. -1.
         -5    1    3    3    0  503 -0.13293561542E+03  0.30201764535E+03  0.11167568358E+04  0.11644975124E+04  0.47000000000E+01 0.  1.
         11    1    4    4    0    0  0.13266589347E+02 -0.86448688947E+01  0.22218055708E+02  0.27283294349E+02  0.00000000000E+00 0. -1.
        -12    1    4    4    0    0 -0.46041269848E+02  0.57235940211E+02  0.24358396554E+03  0.25441874862E+03  0.00000000000E+00 0.  1.
</event>
<event>
12    1  0.2135528E+000  0.1887423E+03  0.7818608E-02  0.1161040E+00
         21   -1    0    0  503  502  0.00000000000E+00  0.00000000000E+00  0.92673050228E+03  0.92673050228E+03  0.00000000000E+00 0.  1.
         21   -1    0    0  501  503 -0.00000000000E+00 -0.00000000000E+00 -0.33462655066E+03  0.33462655066E+03  0.00000000000E+00 0.  1.
          6    2    1    2  501    0 -0.27877671869E+02 -0.56176252800E+02  0.89119953146E+03  0.91096666097E+03  0.17801886571E+03 0.  0.
         24    2    3    3    0    0  0.44355601874E+02  0.28815557334E+01  0.44215378287E+03  0.45230595313E+03  0.84291071596E+02 0.  0.
         -6    2    1    2    0  502  0.27877671869E+02  0.56176252800E+02 -0.29909557985E+03  0.35039039198E+03  0.17141273272E+03 0.  0.
        -24    2    5    5    0    0  0.43288308947E+01  0.10005846552E+03 -0.17666885163E+03  0.21813839658E+03  0.79636936319E+02 0.  0.
          5    1    3    3  501    0 -0.72233273743E+02 -0.59057808533E+02  0.44904574860E+03  0.45866070784E+03  0.47000000000E+01 0. -1.
        -13    1    4    4    0    0 -0.22520982338E+02  0.15290430287E+02  0.11963389682E+03  0.12269173229E+03  0.00000000000E+00 0.  1.
         14    1    4    4    0    0  0.66876584212E+02 -0.12408874553E+02  0.32251988605E+03  0.32961422084E+03  0.00000000000E+00 0. -1.
         -5    1    5    5    0  502  0.23548840974E+02 -0.43882212721E+02 -0.12242672822E+03  0.13225199540E+03  0.47000000000E+01 0.  1.
         11    1    6    6    0    0 -0.23465297411E+02  0.11938296012E+02 -0.80838347675E+02  0.85017536715E+02  0.00000000000E+00 0. -1.
        -12    1    6    6    0    0  0.27794128306E+02  0.88120169508E+02 -0.95830503952E+02  0.13312085986E+03  0.00000000000E+00 0.  1.
</event>
<event>
12    1  0.1061634E+000  0.2705262E+03  0.7818608E-02  0.1100979E+00
         21   -1    0    0  503  502  0.00000000000E+00  0.00000000000E+00  0.34906792061E+03  0.34906792061E+03  0.00000000000E+00 0.  1.
         21   -1    0    0  501  503 -0.00000000000E+00 -0.00000000000E+00 -0.20976675543E+03  0.20976675543E+03  0.00000000000E+00 0.  1.
          6    2    1    2  501    0 -0.27231257101E+02 -0.20682543331E+03  0.63220081171E+02  0.27781380567E+03  0.17223655457E+03 0.  0.
         24    2    3    3    0    0 -0.10127398208E+02 -0.19887647896E+03  0.94888388338E+02  0.24065604009E+03  0.96213851965E+02 0.  0.
         -6    2    1    2    0  502  0.27231257101E+02  0.20682543331E+03  0.76081084010E+02  0.28102087037E+03  0.17223848876E+03 0.  0.
        -24    2    5    5    0    0 -0.48635237566E+01  0.34213764424E+02 -0.46642541836E+01  0.87716026058E+02  0.80486709591E+02 0.  0.
          5    1    3    3  501    0 -0.17103858893E+02 -0.79489543466E+01 -0.31668307167E+02  0.37157765582E+02  0.47000000000E+01 0. -1.
        -11    1    4    4    0    0 -0.10895603028E+01 -0.19475051721E+01  0.34366211568E+02  0.34438589047E+02  0.00000000000E+00 0.  1.
         12    1    4    4    0    0 -0.90378379051E+01 -0.19692897379E+03  0.60522176771E+02  0.20621745104E+03  0.00000000000E+00 0. -1.
         -5    1    5    5    0  502  0.32094780857E+02  0.17261166889E+03  0.80745338193E+02  0.19330484431E+03  0.47000000000E+01 0.  1.
         11    1    6    6    0    0  0.24262582260E+02 -0.75674136251E+01 -0.22306239532E+02  0.33815779881E+02  0.00000000000E+00 0. -1.
        -12    1    6    6    0    0 -0.29126106016E+02  0.41781178049E+02  0.17641985349E+02  0.53900246177E+02  0.00000000000E+00 0.  1.
</event>
<event>
12    1  0.1061634E+000  0.1927125E+03  0.7818608E-02  0.1156307E+00
         21   -1    0    0  501  502  0.00000000000E+00  0.00000000000E+00  0.10277191798E+03  0.10277191798E+03  0.00000000000E+00 0. -1.
         21   -1    0    0  502  503 -0.00000000000E+00 -0.00000000000E+00 -0.40816729429E+03  0.40816729429E+03  0.00000000000E+00 0. -1.
         -6    2    1    2    0  503 -0.83380487879E+02 -0.10946182418E+02 -0.24170865559E+03  0.30912971248E+03  0.17339544481E+03 0.  0.
        -24    2    3    3    0    0 -0.47961136137E+02 -0.64537620648E+02 -0.90477365995E+02  0.14475341953E+03  0.79385286111E+02 0.  0.
          6    2    1    2  501    0  0.83380487879E+02  0.10946182418E+02 -0.63686720726E+02  0.20180949979E+03  0.17204345713E+03 0.  0.
         24    2    5    5    0    0  0.45563316081E+02  0.61737361373E+02 -0.79989524675E+02  0.13625224421E+03  0.79239084000E+02 0.  0.
          5    1    5    5  501    0  0.37817171798E+02 -0.50791178954E+02  0.16302803948E+02  0.65557255578E+02  0.47000000000E+01 0. -1.
        -11    1    6    6    0    0  0.59344841468E+02  0.15008684239E+02 -0.38976024992E+02  0.72568597449E+02  0.00000000000E+00 0.  1.
         12    1    6    6    0    0 -0.13781525387E+02  0.46728677134E+02 -0.41013499683E+02  0.63683646762E+02  0.00000000000E+00 0. -1.
         -5    1    3    3    0  503 -0.35419351743E+02  0.53591438230E+02 -0.15123128960E+03  0.16437629295E+03  0.47000000000E+01 0.  1.
         11    1    4    4    0    0  0.10598064347E+02 -0.40128699304E+02 -0.10768887908E+02  0.42878904167E+02  0.00000000000E+00 0. -1.
        -12    1    4    4    0    0 -0.58559200483E+02 -0.24408921344E+02 -0.79708478087E+02  0.10187451537E+03  0.00000000000E+00 0.  1.
</event>
<event>
12    1  0.1061634E+000  0.2686956E+03  0.7818608E-02  0.1102290E+00
         21   -1    0    0  503  502  0.00000000000E+00  0.00000000000E+00  0.42797449428E+03  0.42797449428E+03  0.00000000000E+00 0.  1.
         21   -1    0    0  501  503 -0.00000000000E+00 -0.00000000000E+00 -0.19187292831E+03  0.19187292831E+03  0.00000000000E+00 0.  1.
          6    2    1    2  501    0  0.19760691729E+03 -0.53825039123E+02  0.22802354252E+03  0.35103045493E+03  0.17111988707E+03 0.  0.
         24    2    3    3    0    0  0.11854449783E+03  0.19371951981E+02  0.18668972886E+03  0.23553482805E+03  0.78711688291E+02 0.  0.
         -6    2    1    2    0  502 -0.19760691729E+03  0.53825039123E+02  0.80780234434E+01  0.26881696765E+03  0.17393009813E+03 0.  0.
        -24    2    5    5    0    0 -0.13454320153E+03  0.68445409547E+02  0.64095428789E+02  0.18308000259E+03  0.81384373129E+02 0.  0.
          5    1    3    3  501    0  0.79062419458E+02 -0.73196991104E+02  0.41333813663E+02  0.11549562688E+03  0.47000000000E+01 0. -1.
        -11    1    4    4    0    0  0.38115372034E+02  0.21393492415E+02  0.15489393865E+02  0.46372237657E+02  0.00000000000E+00 0.  1.
         12    1    4    4    0    0  0.80429125797E+02 -0.20215404341E+01  0.17120033500E+03  0.18916259039E+03  0.00000000000E+00 0. -1.
         -5    1    5    5    0  502 -0.63063715760E+02 -0.14620370424E+02 -0.56017405346E+02  0.85736965064E+02  0.47000000000E+01 0.  1.
         11    1    6    6    0    0 -0.13851071414E+03  0.52509673594E+02  0.39153379000E+02  0.15321707098E+03  0.00000000000E+00 0. -1.
        -12    1    6    6    0    0  0.39675126070E+01  0.15935735953E+02  0.24942049789E+02  0.29862931610E+02  0.00000000000E+00 0.  1.
</event>
<event>
12    1  0.1061634E+000  0.1798836E+03  0.7818608E-02  0.1168062E+00
         21   -1    0    0  501  502  0.00000000000E+00  0.00000000000E+00  0.43578094311E+02  0.43578094311E+02  0.00000000000E+00 0.  1.
         21   -1    0    0  502  503 -0.00000000000E+00 -0.00000000000E+00 -0.77318376043E+03  0.77318376043E+03  0.00000000000E+00 0.  1.
         -6    2    1    2    0  503  0.47902997697E+02  0.18042969132E+02 -0.28083639043E+03  0.33350741787E+03  0.17244672702E+03 0.  0.
        -24    2    3    3    0    0  0.17214475878E+01 -0.37323023317E+02 -0.81189353798E+02  0.12118888847E+03  0.81847810401E+02 0.  0.
          6    2    1    2  501    0 -0.47902997697E+02 -0.18042969132E+02 -0.44876927569E+03  0.48325443687E+03  0.17181601215E+03 0.  0.
         24    2    5    5    0    0  0.46127192309E+02 -0.30168270903E+02 -0.16220733626E+03  0.18137940527E+03  0.59577061690E+02 0.  0.
          5    1    5    5  501    0 -0.94030190006E+02  0.12125301771E+02 -0.28656193943E+03  0.30187503160E+03  0.47000000000E+01 0. -1.
        -11    1    6    6    0    0  0.47881315971E+02 -0.28764110426E+02 -0.71914974779E+02  0.91059091063E+02  0.00000000000E+00 0.  1.
         12    1    6    6    0    0 -0.17541236613E+01 -0.14041604765E+01 -0.90292361484E+02  0.90320314209E+02  0.00000000000E+00 0. -1.
         -5    1    3    3    0  503  0.46181550109E+02  0.55365992448E+02 -0.19964703663E+03  0.21231852940E+03  0.47000000000E+01 0.  1.
         13    1    4    4    0    0 -0.30544605277E+02 -0.10037444697E+02 -0.70674232546E+02  0.77643868744E+02  0.00000000000E+00 0. -1.
        -14    1    4    4    0    0  0.32266052865E+02 -0.27285578620E+02 -0.10515121252E+02  0.43545019727E+02  0.00000000000E+00 0.  1.
</event>
<event>
12    1  0.1061634E+000  0.1752165E+03  0.7818608E-02  0.1172632E+00
         21   -1    0    0  503  502  0.00000000000E+00  0.00000000000E+00  0.12890377532E+03  0.12890377532E+03  0.00000000000E+00 0.  1.
         21   -1    0    0  501  503 -0.00000000000E+00 -0.00000000000E+00 -0.25356063728E+03  0.25356063728E+03  0.00000000000E+00 0.  1.
          6    2    1    2  501    0  0.24075723582E+02 -0.23429037033E+02 -0.14328046193E+02  0.17580137532E+03  0.17196589898E+03 0.  0.
         24    2    3    3    0    0  0.11597177655E+01  0.11252131124E+02  0.53366483377E+02  0.96223953387E+02  0.79266085164E+02 0.  0.
         -6    2    1    2    0  502 -0.24075723582E+02  0.23429037033E+02 -0.11032881577E+03  0.20666303729E+03  0.17148936746E+03 0.  0.
        -24    2    5    5    0    0 -0.38754861623E+02 -0.37643240840E+02 -0.27097884566E+02  0.10228498343E+03  0.82516480825E+02 0.  0.
          5    1    3    3  501    0  0.22916005817E+02 -0.34681168157E+02 -0.67694529570E+02  0.79577421930E+02  0.47000000000E+01 0. -1.
        -11    1    4    4    0    0 -0.35942868559E+02  0.45021336744E+01  0.77605781346E+01  0.37045722842E+02  0.00000000000E+00 0.  1.
         12    1    4    4    0    0  0.37102586324E+02  0.67499974493E+01  0.45605905242E+02  0.59178230545E+02  0.00000000000E+00 0. -1.
         -5    1    5    5    0  502  0.14679138041E+02  0.61072277873E+02 -0.83230931202E+02  0.10437805386E+03  0.47000000000E+01 0.  1.
         11    1    6    6    0    0 -0.53989307953E+02 -0.49996040210E+02 -0.34566864764E+02  0.81297709375E+02  0.00000000000E+00 0. -1.
        -12    1    6    6    0    0  0.15234446330E+02  0.12352799370E+02  0.74689801975E+01  0.20987274060E+02  0.00000000000E+00 0.  1.
</event>
<event>
12    1  0.1061634E+000  0.2007465E+03  0.7818608E-02  0.1149223E+00
         21   -1    0    0  503  502  0.00000000000E+00  0.00000000000E+00  0.98771969832E+02  0.98771969832E+02  0.00000000000E+00 0. -1.
         21   -1    0    0  501  503 -0.00000000000E+00 -0.00000000000E+00 -0.41432260587E+03  0.41432260587E+03  0.00000000000E+00 0. -1.
          6    2    1    2  501    0 -0.96475650333E+02  0.47859393050E+01 -0.19227947544E+03  0.27797579119E+03  0.17597922459E+03 0.  0.
         24    2    3    3    0    0 -0.78707107569E+02 -0.20537482341E+02 -0.21219639776E+03  0.24088440957E+03  0.79883606494E+02 0.  0.
         -6    2    1    2    0  502  0.96475650333E+02 -0.47859393050E+01 -0.12327116059E+03  0.23511878451E+03  0.17536991610E+03 0.  0.
        -24    2    5    5    0    0  0.41233196300E+01  0.12386271221E+02 -0.97328913823E+01  0.87684506353E+02  0.86159282727E+02 0.  0.
          5    1    3    3  501    0 -0.17768542765E+02  0.25323421646E+02  0.19916922320E+02  0.37091381620E+02  0.47000000000E+01 0. -1.
        -11    1    4    4    0    0 -0.56343127750E+02 -0.22415310156E+01 -0.47663045562E+02  0.73833179657E+02  0.00000000000E+00 0.  1.
         12    1    4    4    0    0 -0.22363979818E+02 -0.18295951325E+02 -0.16453335220E+03  0.16705122991E+03  0.00000000000E+00 0. -1.
         -5    1    5    5    0  502  0.92352330703E+02 -0.17172210526E+02 -0.11353826921E+03  0.14743427816E+03  0.47000000000E+01 0.  1.
         13    1    6    6    0    0  0.24544925664E+02 -0.29263925847E+02 -0.14925827009E+02  0.41007451076E+02  0.00000000000E+00 0. -1.
        -14    1    6    6    0    0 -0.20421606034E+02  0.41650197069E+02  0.51929356269E+01  0.46677055277E+02  0.00000000000E+00 0.  1.
</event>
<event>
12    1  0.1061634E+000  0.1892640E+03  0.7818608E-02  0.1159219E+00
         21   -1    0    0  503  502  0.00000000000E+00  0.00000000000E+00  0.29276770037E+03  0.29276770037E+03  0.00000000000E+00 0.  1.
         21   -1    0    0  501  503 -0.00000000000E+00 -0.00000000000E+00 -0.16922908516E+03  0.16922908516E+03  0.00000000000E+00 0.  1.
          6    2    1    2  501    0  0.62625255160E+02 -0.46709933850E+02  0.18373517667E+03  0.26377922617E+03  0.17238655547E+03 0.  0.
         24    2    3    3    0    0 -0.33415059468E+02 -0.30228699898E+02  0.87450517908E+02  0.12670917612E+03  0.79857884609E+02 0.  0.
         -6    2    1    2    0  502 -0.62625255160E+02  0.46709933850E+02 -0.60196561465E+02  0.19821755936E+03  0.17193846086E+03 0.  0.
        -24    2    5    5    0    0  0.38926776683E+01 -0.14857571132E+02 -0.68163908279E+02  0.10710904344E+03  0.81179606036E+02 0.  0.
          5    1    3    3  501    0  0.96040314627E+02 -0.16481233952E+02  0.96284658764E+02  0.13707005005E+03  0.47000000000E+01 0. -1.
        -11    1    4    4    0    0 -0.48745570207E+02 -0.69269193405E+01  0.18965195028E+02  0.52761647518E+02  0.00000000000E+00 0.  1.
         12    1    4    4    0    0  0.15330510739E+02 -0.23301780558E+02  0.68485322880E+02  0.73947528604E+02  0.00000000000E+00 0. -1.
         -5    1    5    5    0  502 -0.66517932828E+02  0.61567504982E+02  0.79673468140E+01  0.91108515917E+02  0.47000000000E+01 0.  1.
         11    1    6    6    0    0 -0.16229635586E+02 -0.38106243500E+02 -0.12070819469E+02  0.43141529268E+02  0.00000000000E+00 0. -1.
        -12    1    6    6    0    0  0.20122313254E+02  0.23248672368E+02 -0.56093088810E+02  0.63967514176E+02  0.00000000000E+00 0.  1.
</event>
<event>
12    1  0.1061634E+000  0.2339547E+03  0.7818608E-02  0.1124458E+00
         21   -1    0    0  501  502  0.00000000000E+00  0.00000000000E+00  0.22548279411E+03  0.22548279411E+03  0.00000000000E+00 0. -1.
         21   -1    0    0  502  503 -0.00000000000E+00 -0.00000000000E+00 -0.45318853201E+03  0.45318853201E+03  0.00000000000E+00 0. -1.
         -6    2    1    2    0  503  0.97298530922E+02 -0.12519838384E+03 -0.34737568889E+03  0.41881339995E+03  0.17202661221E+03 0.  0.
        -24    2    3    3    0    0 -0.93147167765E+01 -0.20608923301E+02 -0.10246757786E+03  0.13192071498E+03  0.79949852155E+02 0.  0.
          6    2    1    2  501    0 -0.97298530922E+02  0.12519838384E+03  0.11966995100E+03  0.25985792617E+03  0.16752195434E+03 0.  0.
         24    2    5    5    0    0 -0.82711781946E+02  0.15478144667E+03  0.11676163678E+03  0.22641425497E+03  0.82653493098E+02 0.  0.
          5    1    5    5  501    0 -0.14586748976E+02 -0.29583062830E+02  0.29083142138E+01  0.33443671205E+02  0.47000000000E+01 0. -1.
        -11    1    6    6    0    0 -0.29975361965E+02  0.42349015747E+02  0.82723252857E+02  0.97647826515E+02  0.00000000000E+00 0.  1.
         12    1    6    6    0    0 -0.52736419981E+02  0.11243243092E+03  0.34038383925E+02  0.12876642845E+03  0.00000000000E+00 0. -1.
         -5    1    3    3    0  503  0.10661324770E+03 -0.10458946054E+03 -0.24490811103E+03  0.28689268497E+03  0.47000000000E+01 0.  1.
         11    1    4    4    0    0 -0.23249780056E+02 -0.38207370087E+02 -0.24940411958E+02  0.51209174473E+02  0.00000000000E+00 0. -1.
        -12    1    4    4    0    0  0.13935063279E+02  0.17598446787E+02 -0.77527165899E+02  0.80711540502E+02  0.00000000000E+00 0.  1.
</event>
<event>
12    1  0.1061634E+000  0.2009302E+03  0.7818608E-02  0.1149204E+00
         21   -1    0    0  503  502  0.00000000000E+00  0.00000000000E+00  0.16447505137E+04  0.16447505137E+04  0.00000000000E+00 0. -1.
         21   -1    0    0  501  503 -0.00000000000E+00 -0.00000000000E+00 -0.28755437060E+02  0.28755437060E+02  0.00000000000E+00 0. -1.
          6    2    1    2  501    0 -0.41653492450E+02  0.93823679877E+02  0.11355372444E+04  0.11531772572E+04  0.17272827462E+03 0.  0.
         24    2    3    3    0    0 -0.87782559912E+02  0.10655212925E+03  0.89155244521E+03  0.90449960137E+03  0.64765980734E+02 0.  0.
         -6    2    1    2    0  502  0.41653492450E+02 -0.93823679877E+02  0.48045783221E+03  0.52032869349E+03  0.17136021826E+03 0.  0.
        -24    2    5    5    0    0  0.24488910379E+02 -0.98463387654E+02  0.19200998614E+03  0.23129513201E+03  0.79591820374E+02 0.  0.
          5    1    3    3  501    0  0.46129067462E+02 -0.12728449374E+02  0.24398479919E+03  0.24867765586E+03  0.47000000000E+01 0. -1.
        -11    1    4    4    0    0 -0.80021563844E+02  0.10202774496E+03  0.65144363812E+03  0.66422279777E+03  0.00000000000E+00 0.  1.
         12    1    4    4    0    0 -0.77609960679E+01  0.45243842919E+01  0.24010880708E+03  0.24027680361E+03  0.00000000000E+00 0. -1.
         -5    1    5    5    0  502  0.17164582070E+02  0.46397077765E+01  0.28844784607E+03  0.28903356149E+03  0.47000000000E+01 0.  1.
         11    1    6    6    0    0 -0.13631372984E+02 -0.48215327686E+02  0.14268427415E+03  0.15122610305E+03  0.00000000000E+00 0. -1.
        -12    1    6    6    0    0  0.38120283363E+02 -0.50248059967E+02  0.49325711989E+02  0.80069028953E+02  0.00000000000E+00 0.  1.
</event>
<event>
12    1  0.1061634E+000  0.1867323E+03  0.7818608E-02  0.1161664E+00
         21   -1    0    0  503  502  0.00000000000E+00  0.00000000000E+00  0.21221822254E+03  0.21221822254E+03  0.00000000000E+00 0. -1.
         21   -1    0    0  501  503 -0.00000000000E+00 -0.00000000000E+00 -0.18973508885E+03  0.18973508885E+03  0.00000000000E+00 0. -1.
          6    2    1    2  501    0 -0.71195075210E+02 -0.22597352527E+02  0.86050626734E+02  0.20560560055E+03  0.17114196896E+03 0.  0.
         24    2    3    3    0    0  0.25676658627E+02 -0.19496451019E+02  0.20738311383E+02  0.88637498301E+02  0.79919497905E+02 0.  0.
         -6    2    1    2    0  502  0.71195075210E+02  0.22597352527E+02 -0.63567493048E+02  0.19634771084E+03  0.17009473332E+03 0.  0.
        -24    2    5    5    0    0  0.56699985987E+01  0.60716610753E+02 -0.55673620736E+02  0.11998661647E+03  0.87055042252E+02 0.  0.
          5    1    3    3  501    0 -0.96871733837E+02 -0.31009015080E+01  0.65312315351E+02  0.11696810225E+03  0.47000000000E+01 0. -1.
        -11    1    4    4    0    0  0.13609240487E+02 -0.23984163282E+01 -0.30394135884E+02  0.33388131478E+02  0.00000000000E+00 0.  1.
         12    1    4    4    0    0  0.12067418140E+02 -0.17098034691E+02  0.51132447266E+02  0.55249366822E+02  0.00000000000E+00 0. -1.
         -5    1    5    5    0  502  0.65525076612E+02 -0.38119258226E+02 -0.78938723125E+01  0.76361094366E+02  0.47000000000E+01 0.  1.
         13    1    6    6    0    0  0.14775049814E+02 -0.15072559155E+02 -0.35051956185E+02  0.40916057592E+02  0.00000000000E+00 0. -1.
        -14    1    6    6    0    0 -0.91050512154E+01  0.75789169908E+02 -0.20621664551E+02  0.79070558882E+02  0.00000000000E+00 0.  1.
</event>
<event>
12    1  0.1061634E+000  0.3078544E+03  0.7818608E-02  0.1081404E+00
         21   -1    0    0  501  502  0.00000000000E+00  0.00000000000E+00  0.88955201770E+02  0.88955201770E+02  0.00000000000E+00 0.  1.
         21   -1    0    0  502  503 -0.00000000000E+00 -0.00000000000E+00 -0.10647528377E+04  0.10647528377E+04  0.00000000000E+00 0. -1.
         -6    2    1    2    0  503  0.10707932613E+03  0.23260700635E+03 -0.48377090312E+03  0.57330764949E+03  0.17051502212E+03 0.  0.
        -24    2    3    3    0    0  0.91191517190E+02  0.24320972583E+03 -0.36852852253E+03  0.45639855481E+03  0.70848467675E+02 0.  0.
          6    2    1    2  501    0 -0.10707932613E+03 -0.23260700635E+03 -0.49202673284E+03  0.58040039001E+03  0.17088682046E+03 0.  0.
         24    2    5    5    0    0 -0.12651247671E+03 -0.24230010848E+03 -0.46907259342E+03  0.54845377694E+03  0.77831216143E+02 0.  0.
          5    1    5    5  501    0  0.19433150580E+02  0.96931021262E+01 -0.22954139417E+02  0.31946613070E+02  0.47000000000E+01 0. -1.
        -13    1    6    6    0    0 -0.74734323955E+02 -0.13928691434E+03 -0.19432644747E+03  0.25049716939E+03  0.00000000000E+00 0.  1.
         14    1    6    6    0    0 -0.51778152754E+02 -0.10301319414E+03 -0.27474614595E+03  0.29795660755E+03  0.00000000000E+00 0. -1.
         -5    1    3    3    0  503  0.15887808938E+02 -0.10602719480E+02 -0.11524238060E+03  0.11690909468E+03  0.47000000000E+01 0.  1.
         13    1    4    4    0    0  0.78640545169E+02  0.22954436207E+03 -0.36372758576E+03  0.43723301127E+03  0.00000000000E+00 0. -1.
        -14    1    4    4    0    0  0.12550972022E+02  0.13665363764E+02 -0.48009367706E+01  0.19165543545E+02  0.00000000000E+00 0.  1.
</event>
<event>
12    1  0.1061634E+000  0.1795195E+03  0.7818608E-02  0.1169370E+00
         21   -1    0    0  501  502  0.00000000000E+00  0.00000000000E+00  0.49365473476E+02  0.49365473476E+02  0.00000000000E+00 0.  1.
         21   -1    0    0  502  503 -0.00000000000E+00 -0.00000000000E+00 -0.68088556095E+03  0.68088556095E+03  0.00000000000E+00 0.  1.
         -6    2    1    2    0  503  0.12021246324E+02  0.48343669201E+02 -0.22643409213E+03  0.28896308425E+03  0.17246925890E+03 0.  0.
        -24    2    3    3    0    0  0.53911563056E+02  0.26176491066E+02 -0.63407030378E+02  0.11912170153E+03  0.81104025533E+02 0.  0.
          6    2    1    2  501    0 -0.12021246324E+02 -0.48343669201E+02 -0.40508599535E+03  0.44128795018E+03  0.16780575267E+03 0.  0.
         24    2    5    5    0    0 -0.23200299561E+02  0.19320417331E+02 -0.32294391633E+03  0.33417674169E+03  0.80434999653E+02 0.  0.
          5    1    5    5  501    0  0.11179053236E+02 -0.67664086531E+02 -0.82142079019E+02  0.10711120848E+03  0.47000000000E+01 0. -1.
        -11    1    6    6    0    0 -0.55243745624E+01  0.49004152817E+02 -0.15280145868E+03  0.16056217326E+03  0.00000000000E+00 0.  1.
         12    1    6    6    0    0 -0.17675924999E+02 -0.29683735486E+02 -0.17014245765E+03  0.17361456843E+03  0.00000000000E+00 0. -1.
         -5    1    3    3    0  503 -0.41890316732E+02  0.22167178134E+02 -0.16302706175E+03  0.16984138272E+03  0.47000000000E+01 0.  1.
         13    1    4    4    0    0  0.33222332723E+02  0.29437797843E+02  0.76496483688E+01  0.45042473884E+02  0.00000000000E+00 0. -1.
        -14    1    4    4    0    0  0.20689230333E+02 -0.32613067772E+01 -0.71056678747E+02  0.74079227643E+02  0.00000000000E+00 0.  1.
</event>
<event>
12    1  0.1061634E+000  0.3579417E+03  0.7818608E-02  0.1059424E+00
         21   -1    0    0  501  502  0.00000000000E+00  0.00000000000E+00  0.10008179324E+03  0.10008179324E+03  0.00000000000E+00 0. -1.
         21   -1    0    0  502  503 -0.00000000000E+00 -0.00000000000E+00 -0.12817628058E+04  0.12817628058E+04  0.00000000000E+00 0. -1.
         -6    2    1    2    0  503  0.85433512426E+00  0.31229390052E+03 -0.56129798160E+03  0.66571591644E+03  0.17491154067E+03 0.  0.
        -24    2    3    3    0    0 -0.44968415246E+02  0.29539501095E+03 -0.50560615287E+03  0.59149350266E+03  0.70332147709E+02 0.  0.
          6    2    1    2  501    0 -0.85433512426E+00 -0.31229390052E+03 -0.62038303097E+03  0.71612868261E+03  0.17446195789E+03 0.  0.
         24    2    5    5    0    0 -0.34986414007E+02 -0.22715632771E+03 -0.32025169316E+03  0.40225878114E+03  0.80168158580E+02 0.  0.
          5    1    5    5  501    0  0.34132078883E+02 -0.85137572809E+02 -0.30013133781E+03  0.31386990147E+03  0.47000000000E+01 0. -1.
        -13    1    6    6    0    0  0.11389298703E+01 -0.11041415612E+03 -0.93564577716E+02  0.14473048482E+03  0.00000000000E+00 0.  1.
         14    1    6    6    0    0 -0.36125343877E+02 -0.11674217159E+03 -0.22668711545E+03  0.25752829632E+03  0.00000000000E+00 0. -1.
         -5    1    3    3    0  503  0.45822750370E+02  0.16898889565E+02 -0.55691828730E+02  0.74222413780E+02  0.47000000000E+01 0.  1.
         11    1    4    4    0    0 -0.47820606302E+02  0.18499502862E+03 -0.37157539005E+03  0.41782561134E+03  0.00000000000E+00 0. -1.
        -12    1    4    4    0    0  0.28521910560E+01  0.11039998233E+03 -0.13403076282E+03  0.17366789132E+03  0.00000000000E+00 0.  1.
</event>
<event>
12    1  0.1061634E+000  0.2436641E+03  0.7818608E-02  0.1117886E+00
         21   -1    0    0  503  502  0.00000000000E+00  0.00000000000E+00  0.52299004237E+02  0.52299004237E+02  0.00000000000E+00 0. -1.
         21   -1    0    0  501  503 -0.00000000000E+00 -0.00000000000E+00 -0.13128348311E+04  0.13128348311E+04  0.00000000000E+00 0. -1.
          6    2    1    2  501    0  0.19667455911E+02  0.16788417589E+03 -0.88785217609E+03  0.91986394540E+03  0.17116157901E+03 0.  0.
         24    2    3    3    0    0 -0.46808135178E+02  0.77488389527E+02 -0.37006072656E+03  0.39003333321E+03  0.83579947643E+02 0.  0.
         -6    2    1    2    0  502 -0.19667455911E+02 -0.16788417589E+03 -0.37268365075E+03  0.44526988991E+03  0.17550004555E+03 0.  0.
        -24    2    5    5    0    0  0.38379386130E+02 -0.51012027051E+02 -0.24105793611E+03  0.25986235554E+03  0.73104795212E+02 0.  0.
          5    1    3    3  501    0  0.66475591089E+02  0.90395786367E+02 -0.51779144953E+03  0.52983061219E+03  0.47000000000E+01 0. -1.
        -11    1    4    4    0    0 -0.20839089075E+02  0.89165059682E+02 -0.31509620100E+03  0.32813151538E+03  0.00000000000E+00 0.  1.
         12    1    4    4    0    0 -0.25969046103E+02 -0.11676670155E+02 -0.54964525560E+02  0.61901817836E+02  0.00000000000E+00 0. -1.
         -5    1    5    5    0  502 -0.58046842041E+02 -0.11687214884E+03 -0.13162571464E+03  0.18540753437E+03  0.47000000000E+01 0.  1.
         11    1    6    6    0    0 -0.18596749962E+02 -0.20987464290E+02 -0.40830906644E+02  0.49532572151E+02  0.00000000000E+00 0. -1.
        -12    1    6    6    0    0  0.56976136092E+02 -0.30024562761E+02 -0.20022702946E+03  0.21032978339E+03  0.00000000000E+00 0.  1.
</event>
<event>
12    1  0.1061634E+000  0.2192017E+03  0.7818608E-02  0.1134704E+00
         21   -1    0    0  501  502  0.00000000000E+00  0.00000000000E+00  0.38923858223E+03  0.38923858223E+03  0.00000000000E+00 0. -1.
         21   -1    0    0  502  503 -0.00000000000E+00 -0.00000000000E+00 -0.17080943081E+03  0.17080943081E+03  0.00000000000E+00 0. -1.
         -6    2    1    2    0  503  0.13477254106E+03  0.20454702442E+01  0.25793040686E+03  0.33849293548E+03  0.17286280923E+03 0.  0.
        -24    2    3    3    0    0  0.11802008051E+03  0.58071323193E+02  0.15022306827E+03  0.21584505772E+03  0.81982319556E+02 0.  0.
          6    2    1    2  501    0 -0.13477254106E+03 -0.20454702442E+01 -0.39501255437E+02  0.22155507756E+03  0.17134316863E+03 0.  0.
         24    2    5    5    0    0 -0.16088548892E+03 -0.10614764988E+01 -0.10677730597E+02  0.18236656044E+03  0.85195546579E+02 0.  0.
          5    1    5    5  501    0  0.26112947862E+02 -0.98399374542E+00 -0.28823524840E+02  0.39188517118E+02  0.47000000000E+01 0. -1.
        -13    1    6    6    0    0 -0.35958433048E+02  0.27372019058E+02 -0.27873449719E+02  0.53095814655E+02  0.00000000000E+00 0.  1.
         14    1    6    6    0    0 -0.12492705588E+03 -0.28433495557E+02  0.17195719122E+02  0.12927074578E+03  0.00000000000E+00 0. -1.
         -5    1    3    3    0  503  0.16752460548E+02 -0.56025852949E+02  0.10770733859E+03  0.12264787776E+03  0.47000000000E+01 0.  1.
         13    1    4    4    0    0  0.49831011608E+02  0.46484976515E+02  0.12472616966E+03  0.14212881537E+03  0.00000000000E+00 0. -1.
        -14    1    4    4    0    0  0.68189068906E+02  0.11586346678E+02  0.25496898604E+02  0.73716242349E+02  0.00000000000E+00 0.  1.
</event>
<event>
12    1  0.1061634E+000  0.2730564E+03  0.7818608E-02  0.1099655E+00
         21   -1    0    0  503  502  0.00000000000E+00  0.00000000000E+00  0.13277752820E+03  0.13277752820E+03  0.00000000000E+00 0. -1.
         21   -1    0    0  501  503 -0.00000000000E+00 -0.00000000000E+00 -0.57071486480E+03  0.57071486480E+03  0.00000000000E+00 0. -1.
          6    2    1    2  501    0  0.14095226500E+03 -0.16218502595E+03 -0.26706036047E+03  0.38137639090E+03  0.16719806145E+03 0.  0.
         24    2    3    3    0    0  0.90864075486E+02 -0.32883680893E+02 -0.17105310427E+03  0.21265428860E+03  0.81394504096E+02 0.  0.
         -6    2    1    2    0  502 -0.14095226500E+03  0.16218502595E+03 -0.17087697613E+03  0.32211600209E+03  0.16848814256E+03 0.  0.
        -24    2    5    5    0    0 -0.49755844097E+02  0.44940725889E+02 -0.13228932424E+03  0.16857737516E+03  0.80140833802E+02 0.  0.
          5    1    3    3  501    0  0.50088189513E+02 -0.12930134506E+03 -0.96007256199E+02  0.16872210230E+03  0.47000000000E+01 0. -1.
        -13    1    4    4    0    0  0.83087671816E+02 -0.55895983944E+02 -0.12135123738E+03  0.15733418269E+03  0.00000000000E+00 0.  1.
         14    1    4    4    0    0  0.77764036704E+01  0.23012303052E+02 -0.49701866886E+02  0.55320105908E+02  0.00000000000E+00 0. -1.
         -5    1    5    5    0  502 -0.91196420902E+02  0.11724430006E+03 -0.38587651888E+02  0.15353862693E+03  0.47000000000E+01 0.  1.
         11    1    6    6    0    0  0.65776061027E+01 -0.17627850901E+02 -0.36379126409E+02  0.40956646197E+02  0.00000000000E+00 0. -1.
        -12    1    6    6    0    0 -0.56333450199E+02  0.62568576790E+02 -0.95910197833E+02  0.12762072896E+03  0.00000000000E+00 0.  1.
</event>
<event>
12    1  0.1061634E+000  0.2387170E+03  0.7818608E-02  0.1120882E+00
         21   -1    0    0  503  502  0.00000000000E+00  0.00000000000E+00  0.52681227043E+02  0.52681227043E+02  0.00000000000E+00 0.  1.
         21   -1    0    0  501  503 -0.00000000000E+00 -0.00000000000E+00 -0.11028056273E+04  0.11028056273E+04  0.00000000000E+00 0.  1.
          6    2    1    2  501    0 -0.12053114129E+03 -0.11389495024E+03 -0.61748680132E+03  0.66202396870E+03  0.17171479150E+03 0.  0.
         24    2    3    3    0    0 -0.46651357173E+02 -0.11612248085E+03 -0.51400580449E+03  0.53476992712E+03  0.78205678931E+02 0.  0.
         -6    2    1    2    0  502  0.12053114129E+03  0.11389495024E+03 -0.43263759892E+03  0.49346288562E+03  0.16979549987E+03 0.  0.
        -24    2    5    5    0    0  0.47109957738E+02  0.13274311750E+03 -0.28824234659E+03  0.33031264046E+03  0.78630189575E+02 0.  0.
          5    1    3    3  501    0 -0.73879784121E+02  0.22275306133E+01 -0.10348099683E+03  0.12725404159E+03  0.47000000000E+01 0. -1.
        -13    1    4    4    0    0  0.20996757905E+02 -0.39887354812E+02 -0.18008990171E+03  0.18564546214E+03  0.00000000000E+00 0.  1.
         14    1    4    4    0    0 -0.67648115078E+02 -0.76235126042E+02 -0.33391590278E+03  0.34912446498E+03  0.00000000000E+00 0. -1.
         -5    1    5    5    0  502  0.73421183556E+02 -0.18848167261E+02 -0.14439525233E+03  0.16315024517E+03  0.47000000000E+01 0.  1.
         13    1    6    6    0    0  0.41677978943E+02  0.13809038672E+03 -0.28864539683E+03  0.32267967699E+03  0.00000000000E+00 0. -1.
        -14    1    6    6    0    0  0.54319787953E+01 -0.53472692204E+01  0.40305023367E+00  0.76329634637E+01  0.00000000000E+00 0.  1.
</event>
<event>
12    1  0.1061634E+000  0.1857982E+03  0.7818608E-02  0.1163173E+00
         21   -1    0    0  501  502  0.00000000000E+00  0.00000000000E+00  0.16574173808E+03  0.16574173808E+03  0.00000000000E+00 0.  1.
         21   -1    0    0  502  503 -0.00000000000E+00 -0.00000000000E+00 -0.21178856908E+03  0.21178856908E+03  0.00000000000E+00 0.  1.
         -6    2    1    2    0  503 -0.22789236121E+02  0.56790625061E+02 -0.58616302472E+02  0.19130745661E+03  0.17151719348E+03 0.  0.
        -24    2    3    3    0    0 -0.47917914534E+02  0.96758788582E+02 -0.48211869812E+02  0.14273537828E+03  0.79941316731E+02 0.  0.
          6    2    1    2  501    0  0.22789236121E+02 -0.56790625061E+02  0.12569471478E+02  0.18622285055E+03  0.17543213524E+03 0.  0.
         24    2    5    5    0    0 -0.64199852356E+01  0.36062751648E+02  0.85653185390E+01  0.88687977715E+02  0.80314721207E+02 0.  0.
          5    1    5    5  501    0  0.29209221357E+02 -0.92853376709E+02  0.40041529392E+01  0.97534872837E+02  0.47000000000E+01 0. -1.
        -13    1    6    6    0    0 -0.97238529013E+01  0.25594400506E+02 -0.34615000259E+02  0.44134169251E+02  0.00000000000E+00 0.  1.
         14    1    6    6    0    0  0.33038676658E+01  0.10468351142E+02  0.43180318798E+02  0.44553808464E+02  0.00000000000E+00 0. -1.
         -5    1    3    3    0  503  0.25128678413E+02 -0.39968163521E+02 -0.10404432660E+02  0.48572078327E+02  0.47000000000E+01 0.  1.
         13    1    4    4    0    0  0.20617369260E+02  0.41350825333E+02 -0.15774303684E+02  0.48824126491E+02  0.00000000000E+00 0. -1.
        -14    1    4    4    0    0 -0.68535283794E+02  0.55407963249E+02 -0.32437566128E+02  0.93911251788E+02  0.00000000000E+00 0.  1.
</event>
<event>
12    1  0.1061634E+000  0.2504571E+03  0.7818608E-02  0.1113891E+00
         21   -1    0    0  501  502  0.00000000000E+00  0.00000000000E+00  0.18349855206E+03  0.18349855206E+03  0.00000000000E+00 0. -1.
         21   -1    0    0  502  503 -0.00000000000E+00 -0.00000000000E+00 -0.12735626144E+04  0.12735626144E+04  0.00000000000E+00 0.  1.
         -6    2    1    2    0  503 -0.17164758038E+03  0.62000219295E+02 -0.11690530337E+04  0.11944434988E+04  0.16341161880E+03 0.  0.
        -24    2    3    3    0    0 -0.13699613372E+03  0.24255005289E+02 -0.53850022277E+03  0.56179481168E+03  0.79212843449E+02 0.  0.
          6    2    1    2  501    0  0.17164758038E+03 -0.62000219295E+02  0.78988971388E+02  0.26261766763E+03  0.17152802310E+03 0.  0.
         24    2    5    5    0    0  0.34041493917E+02 -0.20434384310E+02 -0.15976167684E+02  0.90270282077E+02  0.79480176913E+02 0.  0.
          5    1    5    5  501    0  0.13760608646E+03 -0.41565834985E+02  0.94965139073E+02  0.17234738556E+03  0.47000000000E+01 0. -1.
        -13    1    6    6    0    0  0.48831121765E+02  0.69546273684E+01 -0.28214906146E+02  0.56823641413E+02  0.00000000000E+00 0.  1.
         14    1    6    6    0    0 -0.14789627848E+02 -0.27389011679E+02  0.12238738461E+02  0.33446640664E+02  0.00000000000E+00 0. -1.
         -5    1    3    3    0  503 -0.34651446660E+02  0.37745214007E+02 -0.63055281094E+03  0.63264868713E+03  0.47000000000E+01 0.  1.
         13    1    4    4    0    0 -0.10582478191E+03 -0.12991371898E+02 -0.42821039103E+03  0.44128426122E+03  0.00000000000E+00 0. -1.
        -14    1    4    4    0    0 -0.31171351812E+02  0.37246377187E+02 -0.11028983174E+03  0.12051055046E+03  0.00000000000E+00 0.  1.
</event>
<event>
12    1  0.1061634E+000  0.3425761E+03  0.7818608E-02  0.1065791E+00
         21   -1    0    0  503  502  0.00000000000E+00  0.00000000000E+00  0.11736482088E+03  0.11736482088E+03  0.00000000000E+00 0.  1.
         21   -1    0    0  501  503 -0.00000000000E+00 -0.00000000000E+00 -0.99752947995E+03  0.99752947995E+03  0.00000000000E+00 0.  1.
          6    2    1    2  501    0 -0.22324830750E+03  0.19498030090E+03 -0.43975054672E+03  0.55693108912E+03  0.17010164653E+03 0.  0.
         24    2    3    3    0    0 -0.24404581924E+03  0.18040272757E+03 -0.38689912933E+03  0.49810588654E+03  0.79467175131E+02 0.  0.
         -6    2    1    2    0  502  0.22324830750E+03 -0.19498030090E+03 -0.44041411235E+03  0.55796321171E+03  0.17175922310E+03 0.  0.
        -24    2    5    5    0    0  0.22741091972E+03 -0.14673754830E+03 -0.32818376723E+03  0.43564219599E+03  0.93978206876E+02 0.  0.
          5    1    3    3  501    0  0.20797511747E+02  0.14577573328E+02 -0.52851417392E+02  0.58825202586E+02  0.47000000000E+01 0. -1.
        -11    1    4    4    0    0 -0.58572390928E+02  0.75749189463E+02 -0.16341689769E+03  0.18940366188E+03  0.00000000000E+00 0.  1.
         12    1    4    4    0    0 -0.18547342831E+03  0.10465353811E+03 -0.22348223163E+03  0.30870222465E+03  0.00000000000E+00 0. -1.
         -5    1    5    5    0  502 -0.41626122217E+01 -0.48242752605E+02 -0.11223034513E+03  0.12232101572E+03  0.47000000000E+01 0.  1.
         13    1    6    6    0    0  0.13310360282E+03 -0.12438693080E+03 -0.16471071969E+03  0.24559783961E+03  0.00000000000E+00 0. -1.
        -14    1    6    6    0    0  0.94307316894E+02 -0.22350617498E+02 -0.16347304753E+03  0.19004435638E+03  0.00000000000E+00 0.  1.
</event>
<event>
12    1  0.1061634E+000  0.1826657E+03  0.7818608E-02  0.1166310E+00
         21   -1    0    0  503  502  0.00000000000E+00  0.00000000000E+00  0.24380152480E+03  0.24380152480E+03  0.00000000000E+00 0. -1.
         21   -1    0    0  501  503 -0.00000000000E+00 -0.00000000000E+00 -0.15816434828E+03  0.15816434828E+03  0.00000000000E+00 0. -1.
          6    2    1    2  501    0 -0.57472448003E+02 -0.92954654881E+01 -0.36868811505E+02  0.18202392752E+03  0.16847525922E+03 0.  0.
         24    2    3    3    0    0  0.25540374605E+02  0.12500509672E+01  0.12625659882E+02  0.84688788268E+02  0.79742775274E+02 0.  0.
         -6    2    1    2    0  502  0.57472448003E+02  0.92954654881E+01  0.12250598802E+03  0.21994194557E+03  0.17313940730E+03 0.  0.
        -24    2    5    5    0    0  0.66873990836E+02  0.64635462996E+02  0.60783532070E+02  0.13637965802E+03  0.79087923374E+02 0.  0.
          5    1    3    3  501    0 -0.83012822608E+02 -0.10545516455E+02 -0.49494471387E+02  0.97335139248E+02  0.47000000000E+01 0. -1.
        -13    1    4    4    0    0  0.24420250089E+01  0.87865462701E+01  0.44040331226E+02  0.44974633472E+02  0.00000000000E+00 0.  1.
         14    1    4    4    0    0  0.23098349597E+02 -0.75364953028E+01 -0.31414671343E+02  0.39714154796E+02  0.00000000000E+00 0. -1.
         -5    1    5    5    0  502 -0.94015428336E+01 -0.55339997508E+02  0.61722455949E+02  0.83562287548E+02  0.47000000000E+01 0.  1.
         11    1    6    6    0    0 -0.74949269390E+01 -0.21060224456E+01  0.31214614535E+02  0.32170816292E+02  0.00000000000E+00 0. -1.
        -12    1    6    6    0    0  0.74368917775E+02  0.66741485442E+02  0.29568917536E+02  0.10420884173E+03  0.00000000000E+00 0.  1.
</event>
<event>
12    1  0.1061634E+000  0.6417413E+03  0.7818608E-02  0.9822442E-01
         21   -1    0    0  503  502  0.00000000000E+00  0.00000000000E+00  0.52606234343E+03  0.52606234343E+03  0.00000000000E+00 0.  1.
         21   -1    0    0  501  503 -0.00000000000E+00 -0.00000000000E+00 -0.81798232925E+03  0.81798232925E+03  0.00000000000E+00 0.  1.
          6    2    1    2  501    0 -0.59493905142E+03  0.16723434641E+03 -0.28541580472E+03  0.70227036852E+03  0.17263165233E+03 0.  0.
         24    2    3    3    0    0 -0.16639852217E+03  0.38339902572E+02 -0.12498975970E+03  0.22685542472E+03  0.81746727070E+02 0.  0.
         -6    2    1    2    0  502  0.59493905142E+03 -0.16723434641E+03 -0.65041811051E+01  0.64177430416E+03  0.17295129832E+03 0.  0.
        -24    2    5    5    0    0  0.15362507089E+03 -0.36944206852E+02  0.35175485975E+02  0.17972145597E+03  0.78082969311E+02 0.  0.
          5    1    3    3  501    0 -0.42854052925E+03  0.12889444383E+03 -0.16042604503E+03  0.47541494379E+03  0.47000000000E+01 0. -1.
        -11    1    4    4    0    0  0.79077119613E+01  0.29596295894E+01  0.15362897222E+01  0.85820453203E+01  0.00000000000E+00 0.  1.
         12    1    4    4    0    0 -0.17430623413E+03  0.35380272983E+02 -0.12652604942E+03  0.21827337940E+03  0.00000000000E+00 0. -1.
         -5    1    5    5    0  502  0.44131398053E+03 -0.13029013955E+03 -0.41679667080E+02  0.46205284820E+03  0.47000000000E+01 0.  1.
         11    1    6    6    0    0  0.13493476397E+03 -0.73074592975E+01  0.79804355614E+01  0.13536793136E+03  0.00000000000E+00 0. -1.
        -12    1    6    6    0    0  0.18690306922E+02 -0.29636747555E+02  0.27195050414E+02  0.44353524612E+02  0.00000000000E+00 0.  1.
</event>
<event>
12    1  0.1061634E+000  0.3086636E+03  0.7818608E-02  0.1081018E+00
         21   -1    0    0  503  502  0.00000000000E+00  0.00000000000E+00  0.81471488621E+02  0.81471488621E+02  0.00000000000E+00 0. -1.
         21   -1    0    0  501  503 -0.00000000000E+00 -0.00000000000E+00 -0.13072896613E+04  0.13072896613E+04  0.00000000000E+00 0. -1.
          6    2    1    2  501    0  0.80625250354E+02 -0.24317564070E+03 -0.83940772415E+03  0.89435928552E+03  0.17215801178E+03 0.  0.
         24    2    3    3    0    0  0.53433843805E+02 -0.11194658308E+03 -0.61264710278E+03  0.63091496967E+03  0.85615496722E+02 0.  0.
         -6    2    1    2    0  502 -0.80625250354E+02  0.24317564070E+03 -0.38641044856E+03  0.49440186442E+03  0.17171297438E+03 0.  0.
        -24    2    5    5    0    0 -0.99352062608E+02  0.21786896766E+03 -0.38676564208E+03  0.46256890415E+03  0.83932173661E+02 0.  0.
          5    1    3    3  501    0  0.27191406549E+02 -0.13122905762E+03 -0.22676062137E+03  0.26344431585E+03  0.47000000000E+01 0. -1.
        -13    1    4    4    0    0  0.97559859792E+01 -0.10536485314E+03 -0.40258630322E+03  0.41626033089E+03  0.00000000000E+00 0.  1.
         14    1    4    4    0    0  0.43677857826E+02 -0.65817299402E+01 -0.21006079956E+03  0.21465463877E+03  0.00000000000E+00 0. -1.
         -5    1    5    5    0  502  0.18726812254E+02  0.25306673038E+02  0.35519352671E+00  0.31832960275E+02  0.47000000000E+01 0.  1.
         13    1    6    6    0    0  0.81554357144E+01  0.65077801312E+02 -0.80718778922E+02  0.10400554132E+03  0.00000000000E+00 0. -1.
        -14    1    6    6    0    0 -0.10750749832E+03  0.15279116635E+03 -0.30604686316E+03  0.35856336282E+03  0.00000000000E+00 0.  1.
</event>
<event>
12    1  0.1061634E+000  0.1864908E+03  0.7818608E-02  0.1162443E+00
         21   -1    0    0  503  502  0.00000000000E+00  0.00000000000E+00  0.12467388164E+02  0.12467388164E+02  0.00000000000E+00 0.  1.
         21   -1    0    0  501  503 -0.00000000000E+00 -0.00000000000E+00 -0.32910825985E+04  0.32910825985E+04  0.00000000000E+00 0.  1.
          6    2    1    2  501    0 -0.32563563565E+02 -0.54925742976E+02 -0.95108032117E+03  0.96855587738E+03  0.17166679174E+03 0.  0.
         24    2    3    3    0    0 -0.74077447160E+02 -0.39288950242E+02 -0.40961509402E+03  0.42525614976E+03  0.77634901145E+02 0.  0.
         -6    2    1    2    0  502  0.32563563565E+02  0.54925742976E+02 -0.23275348892E+04  0.23349941093E+04  0.17521874092E+03 0.  0.
        -24    2    5    5    0    0  0.16618282594E+01  0.62879005277E+02 -0.74006431501E+03  0.74719592140E+03  0.81547677004E+02 0.  0.
          5    1    3    3  501    0  0.41513883595E+02 -0.15636792734E+02 -0.54146522715E+03  0.54329972762E+03  0.47000000000E+01 0. -1.
        -13    1    4    4    0    0 -0.13356431359E+02 -0.40724186061E+02 -0.87121988718E+02  0.97093225856E+02  0.00000000000E+00 0.  1.
         14    1    4    4    0    0 -0.60721015801E+02  0.14352358186E+01 -0.32249310530E+03  0.32816292391E+03  0.00000000000E+00 0. -1.
         -5    1    5    5    0  502  0.30901735306E+02 -0.79532623017E+01 -0.15874705742E+04  0.15877981879E+04  0.47000000000E+01 0.  1.
         13    1    6    6    0    0 -0.18629009020E+02  0.24767466447E+02 -0.59588809585E+03  0.59669346414E+03  0.00000000000E+00 0. -1.
        -14    1    6    6    0    0  0.20290837280E+02  0.38111538830E+02 -0.14417621916E+03  0.15050245726E+03  0.00000000000E+00 0.  1.
</event>
<event>
12    1  0.1061634E+000  0.4721306E+03  0.7818608E-02  0.1021348E+00
         21   -1    0    0  501  502  0.00000000000E+00  0.00000000000E+00  0.12346442103E+04  0.12346442103E+04  0.00000000000E+00 0.  1.
         21   -1    0    0  502  503 -0.00000000000E+00 -0.00000000000E+00 -0.18129554794E+03  0.18129554794E+03  0.00000000000E+00 0.  1.
         -6    2    1    2    0  503 -0.14662390622E+03  0.41431106518E+03  0.47700959805E+03  0.67115233821E+03  0.17249659663E+03 0.  0.
        -24    2    3    3    0    0 -0.14962654835E+03  0.40025258319E+03  0.48717074877E+03  0.65293158742E+03  0.79963023145E+02 0.  0.
          6    2    1    2  501    0  0.14662390622E+03 -0.41431106518E+03  0.57633906435E+03  0.74478742006E+03  0.17143323883E+03 0.  0.
         24    2    5    5    0    0  0.36387428326E+02 -0.11409934651E+03  0.24025165892E+03  0.28083053502E+03  0.82475596223E+02 0.  0.
          5    1    5    5  501    0  0.11023647790E+03 -0.30021171867E+03  0.33608740543E+03  0.46395688503E+03  0.47000000000E+01 0. -1.
        -11    1    6    6    0    0  0.14586695186E+02  0.96167836711E+01  0.15510595344E+02  0.23363064281E+02  0.00000000000E+00 0.  1.
         12    1    6    6    0    0  0.21800733139E+02 -0.12371613018E+03  0.22474106358E+03  0.25746747074E+03  0.00000000000E+00 0. -1.
         -5    1    3    3    0  503  0.30026421310E+01  0.14058481993E+02 -0.10161150717E+02  0.18220750797E+02  0.47000000000E+01 0.  1.
         11    1    4    4    0    0 -0.10702908049E+03  0.28602603362E+03  0.29020255006E+03  0.42128806776E+03  0.00000000000E+00 0. -1.
        -12    1    4    4    0    0 -0.42597467863E+02  0.11422654957E+03  0.19696819871E+03  0.23164351966E+03  0.00000000000E+00 0.  1.
</event>
<event>
12    1  0.1061634E+000  0.2443701E+03  0.7818608E-02  0.1117103E+00
         21   -1    0    0  503  502  0.00000000000E+00  0.00000000000E+00  0.21683605329E+03  0.21683605329E+03  0.00000000000E+00 0.  1.
         21   -1    0    0  501  503 -0.00000000000E+00 -0.00000000000E+00 -0.38190639461E+03  0.38190639461E+03  0.00000000000E+00 0.  1.
          6    2    1    2  501    0  0.11756601768E+03  0.12581678453E+03 -0.24172618328E+03  0.34372706851E+03  0.17339295881E+03 0.  0.
         24    2    3    3    0    0  0.96059060711E+02  0.13021321496E+03 -0.25878100366E+03  0.31553425566E+03  0.80071431545E+02 0.  0.
         -6    2    1    2    0  502 -0.11756601768E+03 -0.12581678453E+03  0.76655841962E+02  0.25501537938E+03  0.17177046845E+03 0.  0.
        -24    2    5    5    0    0 -0.12361707400E+03 -0.35446178248E+02  0.59387877591E+02  0.16269130692E+03  0.80024551270E+02 0.  0.
          5    1    3    3  501    0  0.21506956967E+02 -0.43964304288E+01  0.17054820373E+02  0.28192812851E+02  0.47000000000E+01 0. -1.
        -11    1    4    4    0    0  0.59304933369E+01  0.23254408446E+02 -0.32364876392E+01  0.24215968195E+02  0.00000000000E+00 0.  1.
         12    1    4    4    0    0  0.90128567374E+02  0.10695880651E+03 -0.25554451602E+03  0.29131828747E+03  0.00000000000E+00 0. -1.
         -5    1    5    5    0  502  0.60510563185E+01 -0.90370606281E+02  0.17267964371E+02  0.92324072460E+02  0.47000000000E+01 0.  1.
         13    1    6    6    0    0 -0.58298816403E+02 -0.57025766372E+02  0.22328341388E+02  0.84553207234E+02  0.00000000000E+00 0. -1.
        -14    1    6    6    0    0 -0.65318257593E+02  0.21579588124E+02  0.37059536203E+02  0.78138099684E+02  0.00000000000E+00 0.  1.
</event>
<event>
12    1  0.1061634E+000  0.3327793E+03  0.7818608E-02  0.1069969E+00
         21   -1    0    0  501  502  0.00000000000E+00  0.00000000000E+00  0.21781717487E+03  0.21781717487E+03  0.00000000000E+00 0.  1.
         21   -1    0    0  502  503 -0.00000000000E+00 -0.00000000000E+00 -0.52500332834E+03  0.52500332834E+03  0.00000000000E+00 0.  1.
         -6    2    1    2    0  503 -0.28456901557E+03 -0.73907361854E+01 -0.85937254125E+02  0.34320427277E+03  0.17137623406E+03 0.  0.
        -24    2    3    3    0    0 -0.16360653475E+03  0.33388332778E+02  0.10136715003E+02  0.18336950880E+03  0.75098234241E+02 0.  0.
          6    2    1    2  501    0  0.28456901557E+03  0.73907361854E+01 -0.22124889934E+03  0.39961623043E+03  0.17235982291E+03 0.  0.
         24    2    5    5    0    0  0.10155802691E+03 -0.45360770776E+02 -0.83629736303E+02  0.16459098179E+03  0.87889852310E+02 0.  0.
          5    1    5    5  501    0  0.18301098867E+03  0.52751506961E+02 -0.13761916304E+03  0.23502524863E+03  0.47000000000E+01 0. -1.
        -13    1    6    6    0    0 -0.11939837428E+02 -0.60935199450E+01 -0.30400982035E+02  0.33225147281E+02  0.00000000000E+00 0.  1.
         14    1    6    6    0    0  0.11349786433E+03 -0.39267250831E+02 -0.53228754268E+02  0.13136583451E+03  0.00000000000E+00 0. -1.
         -5    1    3    3    0  503 -0.12096248082E+03 -0.40779068964E+02 -0.96073969129E+02  0.15983476398E+03  0.47000000000E+01 0.  1.
         11    1    4    4    0    0 -0.12969986508E+03 -0.49827477460E+01  0.19689823366E+02  0.13128050854E+03  0.00000000000E+00 0. -1.
        -12    1    4    4    0    0 -0.33906669669E+02  0.38371080524E+02 -0.95531083623E+01  0.52089000259E+02  0.00000000000E+00 0.  1.
</event>
<event>
12    1  0.1061634E+000  0.1996476E+03  0.7818608E-02  0.1150323E+00
         21   -1    0    0  503  502  0.00000000000E+00  0.00000000000E+00  0.15845338479E+03  0.15845338479E+03  0.00000000000E+00 0.  1.
         21   -1    0    0  501  503 -0.00000000000E+00 -0.00000000000E+00 -0.51143042176E+03  0.51143042176E+03  0.00000000000E+00 0.  1.
          6    2    1    2  501    0  0.44787977928E+02  0.91081500480E+02  0.62756940571E+02  0.20927880224E+03  0.17192260114E+03 0.  0.
         24    2    3    3    0    0  0.84719919082E+02  0.77171523842E+02  0.14435516923E+02  0.14489637174E+03  0.87485230828E+02 0.  0.
         -6    2    1    2    0  502 -0.44787977928E+02 -0.91081500480E+02 -0.41573397754E+03  0.46060500431E+03  0.17035382948E+03 0.  0.
        -24    2    5    5    0    0 -0.17648847141E+01 -0.13302325910E+02 -0.84006520454E+02  0.11714353292E+03  0.80532261442E+02 0.  0.
          5    1    3    3  501    0 -0.39931941153E+02  0.13909976638E+02  0.48321423649E+02  0.64382430505E+02  0.47000000000E+01 0. -1.
        -13    1    4    4    0    0 -0.36633478283E+01 -0.15156691256E+02  0.63232347425E+01  0.16826428758E+02  0.00000000000E+00 0.  1.
         14    1    4    4    0    0  0.88383266910E+02  0.92328215098E+02  0.81122821801E+01  0.12806994298E+03  0.00000000000E+00 0. -1.
         -5    1    5    5    0  502 -0.43023093214E+02 -0.77779174570E+02 -0.33172745709E+03  0.34346147139E+03  0.47000000000E+01 0.  1.
         11    1    6    6    0    0 -0.14489854472E+02  0.93078957753E+01 -0.89060888479E+02  0.90710719671E+02  0.00000000000E+00 0. -1.
        -12    1    6    6    0    0  0.12724969758E+02 -0.22610221686E+02  0.50543680258E+01  0.26432813247E+02  0.00000000000E+00 0.  1.
</event>
<event>
12    1  0.1061634E+000  0.1997851E+03  0.7818608E-02  0.1150127E+00
         21   -1    0    0  503  502  0.00000000000E+00  0.00000000000E+00  0.21083647077E+02  0.21083647077E+02  0.00000000000E+00 0.  1.
         21   -1    0    0  501  503 -0.00000000000E+00 -0.00000000000E+00 -0.19070294213E+04  0.19070294213E+04  0.00000000000E+00 0.  1.
          6    2    1    2  501    0  0.17039883771E+01 -0.10426178966E+03 -0.83903622040E+03  0.86249397935E+03  0.17041320638E+03 0.  0.
         24    2    3    3    0    0  0.11580284979E+02  0.10199381903E+02 -0.43700757645E+03  0.44434565449E+03  0.78925967802E+02 0.  0.
         -6    2    1    2    0  502 -0.17039883771E+01  0.10426178966E+03 -0.10469095538E+04  0.10656190890E+04  0.16926607651E+03 0.  0.
        -24    2    5    5    0    0 -0.26366789545E+02  0.92560886971E+02 -0.35334383883E+03  0.37150047099E+03  0.62434014156E+02 0.  0.
          5    1    3    3  501    0 -0.98762966023E+01 -0.11446117156E+03 -0.40202864395E+03  0.41814832486E+03  0.47000000000E+01 0. -1.
        -11    1    4    4    0    0  0.17309222818E+02 -0.18674094699E+02 -0.37328715060E+03  0.37415455071E+03  0.00000000000E+00 0.  1.
         12    1    4    4    0    0 -0.57289378392E+01  0.28873476602E+02 -0.63720425850E+02  0.70191103783E+02  0.00000000000E+00 0. -1.
         -5    1    5    5    0  502  0.24662801168E+02  0.11700902685E+02 -0.69356571496E+03  0.69411861800E+03  0.47000000000E+01 0.  1.
         13    1    6    6    0    0 -0.12496736699E+02  0.65251771691E+02 -0.31738847490E+03  0.32426749164E+03  0.00000000000E+00 0. -1.
        -14    1    6    6    0    0 -0.13870052846E+02  0.27309115280E+02 -0.35955363932E+02  0.47232979356E+02  0.00000000000E+00 0.  1.
</event>
<event>
12    1  0.1061634E+000  0.3743817E+03  0.7818608E-02  0.1053067E+00
         21   -1    0    0  503  502  0.00000000000E+00  0.00000000000E+00  0.13005273787E+03  0.13005273787E+03  0.00000000000E+00 0. -1.
         21   -1    0    0  501  503 -0.00000000000E+00 -0.00000000000E+00 -0.11518715051E+04  0.11518715051E+04  0.00000000000E+00 0.  1.
          6    2    1    2  501    0  0.12644106539E+03 -0.30695130788E+03 -0.34732422404E+03  0.51068168799E+03  0.17307576785E+03 0.  0.
         24    2    3    3    0    0  0.59261007616E+02 -0.17628267950E+03 -0.10676750278E+03  0.22876489752E+03  0.79665730216E+02 0.  0.
         -6    2    1    2    0  502 -0.12644106539E+03  0.30695130788E+03 -0.67449454319E+03  0.77124255499E+03  0.17223745643E+03 0.  0.
        -24    2    5    5    0    0 -0.95127024781E+02  0.21894256453E+03 -0.33297664626E+03  0.41714839806E+03  0.78449612123E+02 0.  0.
          5    1    3    3  501    0  0.67180057778E+02 -0.13066862838E+03 -0.24055672126E+03  0.28191679047E+03  0.47000000000E+01 0. -1.
        -13    1    4    4    0    0  0.73954308704E+02 -0.16440249572E+03 -0.10743764165E+03  0.20985773090E+03  0.00000000000E+00 0.  1.
         14    1    4    4    0    0 -0.14693301088E+02 -0.11880183780E+02  0.67013886621E+00  0.18907166620E+02  0.00000000000E+00 0. -1.
         -5    1    5    5    0  502 -0.31314040614E+02  0.88008743350E+02 -0.34151789693E+03  0.35409415693E+03  0.47000000000E+01 0.  1.
         13    1    6    6    0    0  0.17202374418E+01 -0.58402857674E+01 -0.12429874023E+02  0.13840878690E+02  0.00000000000E+00 0. -1.
        -14    1    6    6    0    0 -0.96847262222E+02  0.22478285029E+03 -0.32054677224E+03  0.40330751937E+03  0.00000000000E+00 0.  1.
</event>
<event>
12    1  0.1061634E+000  0.1922169E+03  0.7818608E-02  0.1156605E+00
         21   -1    0    0  501  502  0.00000000000E+00  0.00000000000E+00  0.49200111203E+03  0.49200111203E+03  0.00000000000E+00 0. -1.
         21   -1    0    0  502  503 -0.00000000000E+00 -0.00000000000E+00 -0.75824970083E+02  0.75824970083E+02  0.00000000000E+00 0. -1.
         -6    2    1    2    0  503 -0.42144579884E+02  0.68792603519E+02  0.23962918299E+03  0.30683537949E+03  0.17383100084E+03 0.  0.
        -24    2    3    3    0    0  0.10551254431E+02 -0.15503958559E+02  0.16193039132E+03  0.18057393027E+03  0.77677480381E+02 0.  0.
          6    2    1    2  501    0  0.42144579884E+02 -0.68792603519E+02  0.17654695896E+03  0.26099070263E+03  0.17446698893E+03 0.  0.
         24    2    5    5    0    0  0.84473352118E+02 -0.87038231737E+02  0.12183325316E+03  0.18929476474E+03  0.79232350583E+02 0.  0.
          5    1    5    5  501    0 -0.42328772234E+02  0.18245628218E+02  0.54713705798E+02  0.71695937890E+02  0.47000000000E+01 0. -1.
        -11    1    6    6    0    0  0.25825313070E+02 -0.44455382392E+02  0.47986341318E+01  0.51635789025E+02  0.00000000000E+00 0.  1.
         12    1    6    6    0    0  0.58648039048E+02 -0.42582849345E+02  0.11703461903E+03  0.13765897571E+03  0.00000000000E+00 0. -1.
         -5    1    3    3    0  503 -0.52695834315E+02  0.84296562078E+02  0.77698791674E+02  0.12626144922E+03  0.47000000000E+01 0.  1.
         13    1    4    4    0    0  0.99355373322E+01 -0.45726501152E+02  0.73615206459E+02  0.87228587238E+02  0.00000000000E+00 0. -1.
        -14    1    4    4    0    0  0.61571709853E+00  0.30222542592E+02  0.88315184858E+02  0.93345343027E+02  0.00000000000E+00 0.  1.
</event>
<event>
12    1  0.1061634E+000  0.2163784E+03  0.7818608E-02  0.1136659E+00
         21   -1    0    0  503  502  0.00000000000E+00  0.00000000000E+00  0.88271166721E+03  0.88271166721E+03  0.00000000000E+00 0. -1.
         21   -1    0    0  501  503 -0.00000000000E+00 -0.00000000000E+00 -0.58146613886E+02  0.58146613886E+02  0.00000000000E+00 0.  1.
          6    2    1    2  501    0 -0.12798604707E+03 -0.29427805857E+02  0.27227256419E+03  0.34778146108E+03  0.17196851880E+03 0.  0.
         24    2    3    3    0    0 -0.12990169196E+03  0.30205659924E+02  0.23585005279E+03  0.27772070692E+03  0.60964843858E+02 0.  0.
         -6    2    1    2    0  502  0.12798604707E+03  0.29427805857E+02  0.55229248913E+03  0.59307682001E+03  0.17165866389E+03 0.  0.
        -24    2    5    5    0    0  0.34503090526E+02 -0.18593261323E+02  0.38233238483E+03  0.39319282088E+03  0.82984150757E+02 0.  0.
          5    1    3    3  501    0  0.19156448935E+01 -0.59633465781E+02  0.36422511409E+02  0.70060754162E+02  0.47000000000E+01 0. -1.
        -13    1    4    4    0    0 -0.79088556589E+01 -0.14159607059E+02  0.18940537244E+02  0.24935685693E+02  0.00000000000E+00 0.  1.
         14    1    4    4    0    0 -0.12199283631E+03  0.44365266983E+02  0.21690951554E+03  0.25278502123E+03  0.00000000000E+00 0. -1.
         -5    1    5    5    0  502  0.93482956544E+02  0.48021067180E+02  0.16996010429E+03  0.19988399913E+03  0.47000000000E+01 0.  1.
         11    1    6    6    0    0  0.17838602336E+02  0.18697187224E+01  0.35407364551E+03  0.35452765481E+03  0.00000000000E+00 0. -1.
        -12    1    6    6    0    0  0.16664488190E+02 -0.20462980046E+02  0.28258739323E+02  0.38665166069E+02  0.00000000000E+00 0.  1.
</event>
<event>
12    1  0.1061634E+000  0.3364129E+03  0.7818608E-02  0.1068345E+00
         21   -1    0    0  503  502  0.00000000000E+00  0.00000000000E+00  0.65517824031E+03  0.65517824031E+03  0.00000000000E+00 0.  1.
         21   -1    0    0  501  503 -0.00000000000E+00 -0.00000000000E+00 -0.17823773170E+03  0.17823773170E+03  0.00000000000E+00 0.  1.
          6    2    1    2  501    0  0.19799043354E+03  0.20943531399E+03  0.31198164086E+03  0.45873602931E+03  0.17332869883E+03 0.  0.
         24    2    3    3    0    0  0.73214085584E+02  0.14977216674E+03  0.23967055700E+03  0.30259567259E+03  0.79562308407E+02 0.  0.
         -6    2    1    2    0  502 -0.19799043354E+03 -0.20943531399E+03  0.16495886774E+03  0.37467994270E+03  0.17352310766E+03 0.  0.
        -24    2    5    5    0    0 -0.20439697671E+03 -0.15621001872E+03  0.93788280021E+02  0.28545372228E+03  0.80671507109E+02 0.  0.
          5    1    3    3  501    0  0.12477634796E+03  0.59663147250E+02  0.72311083861E+02  0.15614035673E+03  0.47000000000E+01 0. -1.
        -11    1    4    4    0    0 -0.11326269439E+02  0.30332907927E+02  0.18183303162E+02  0.37134918831E+02  0.00000000000E+00 0.  1.
         12    1    4    4    0    0  0.84540355023E+02  0.11943925882E+03  0.22148725384E+03  0.26546075376E+03  0.00000000000E+00 0. -1.
         -5    1    5    5    0  502  0.64065431724E+01 -0.53225295274E+02  0.71170587720E+02  0.89226220411E+02  0.47000000000E+01 0.  1.
         13    1    6    6    0    0 -0.14615152289E+03 -0.12140184900E+03  0.10437612129E+03  0.21677880727E+03  0.00000000000E+00 0. -1.
        -14    1    6    6    0    0 -0.58245453821E+02 -0.34808169717E+02 -0.10587841269E+02  0.68674915017E+02  0.00000000000E+00 0.  1.
</event>
<event>
12    1  0.1061634E+000  0.6205681E+03  0.7818608E-02  0.9864252E-01
         21   -1    0    0  503  502  0.00000000000E+00  0.00000000000E+00  0.27189501485E+03  0.27189501485E+03  0.00000000000E+00 0.  1.
         21   -1    0    0  501  503 -0.00000000000E+00 -0.00000000000E+00 -0.15108296919E+04  0.15108296919E+04  0.00000000000E+00 0.  1.
          6    2    1    2  501    0  0.58305472477E+03  0.12232558711E+03 -0.39266268760E+03  0.73330532878E+03  0.16922280475E+03 0.  0.
         24    2    3    3    0    0  0.24785824642E+03  0.25713412803E+02 -0.11613453677E+03  0.28813064451E+03  0.86238899307E+02 0.  0.
         -6    2    1    2    0  502 -0.58305472477E+03 -0.12232558711E+03 -0.84627198949E+03  0.10494193780E+04  0.17374806305E+03 0.  0.
        -24    2    5    5    0    0 -0.34982277502E+03 -0.12302670303E+03 -0.44028357694E+03  0.58118192215E+03  0.80070312409E+02 0.  0.
          5    1    3    3  501    0  0.33519647835E+03  0.96612174310E+02 -0.27652815083E+03  0.44517468428E+03  0.47000000000E+01 0. -1.
        -13    1    4    4    0    0  0.10272304548E+03  0.29318264060E+01 -0.94545545211E+02  0.13964053780E+03  0.00000000000E+00 0.  1.
         14    1    4    4    0    0  0.14513520095E+03  0.22781586397E+02 -0.21588991563E+02  0.14849010670E+03  0.00000000000E+00 0. -1.
         -5    1    5    5    0  502 -0.23323194975E+03  0.70111591780E+00 -0.40598841255E+03  0.46823745587E+03  0.47000000000E+01 0.  1.
         13    1    6    6    0    0 -0.26977956245E+03 -0.76071340552E+02 -0.37289319953E+03  0.46649458670E+03  0.00000000000E+00 0. -1.
        -14    1    6    6    0    0 -0.80043212568E+02 -0.46955362479E+02 -0.67390377410E+02  0.11468733544E+03  0.00000000000E+00 0.  1.
</event>
<event>
12    1  0.1061634E+000  0.1930578E+03  0.7818608E-02  0.1155801E+00
         21   -1    0    0  501  502  0.00000000000E+00  0.00000000000E+00  0.13094980808E+03  0.13094980808E+03  0.00000000000E+00 0. -1.
         21   -1    0    0  502  503 -0.00000000000E+00 -0.00000000000E+00 -0.44609768232E+03  0.44609768232E+03  0.00000000000E+00 0. -1.
         -6    2    1    2    0  503 -0.20539959744E+02  0.84956104519E+02  0.16178877424E+02  0.19373458412E+03  0.17213919765E+03 0.  0.
        -24    2    3    3    0    0 -0.67273829074E+02  0.20630429408E+02  0.35360002425E+02  0.11180868725E+03  0.79369201067E+02 0.  0.
          6    2    1    2  501    0  0.20539959744E+02 -0.84956104519E+02 -0.33132675166E+03  0.38331290628E+03  0.17179039005E+03 0.  0.
         24    2    5    5    0    0  0.81897292081E+01 -0.59588536696E+02 -0.33939456158E+03  0.35359386780E+03  0.78880222778E+02 0.  0.
          5    1    5    5  501    0  0.12350230535E+02 -0.25367567823E+02  0.80678099182E+01  0.29719038484E+02  0.47000000000E+01 0. -1.
        -13    1    6    6    0    0  0.39922985996E+02 -0.17185714834E+02 -0.11260962981E+03  0.12070676174E+03  0.00000000000E+00 0.  1.
         14    1    6    6    0    0 -0.31733256788E+02 -0.42402821863E+02 -0.22678493177E+03  0.23288710605E+03  0.00000000000E+00 0. -1.
         -5    1    3    3    0  503  0.46733869330E+02  0.64325675111E+02 -0.19181125002E+02  0.81925896866E+02  0.47000000000E+01 0.  1.
         13    1    4    4    0    0 -0.26093112770E+02  0.22466932905E+02  0.55976487684E+02  0.65718952986E+02  0.00000000000E+00 0. -1.
        -14    1    4    4    0    0 -0.41180716304E+02 -0.18365034969E+01 -0.20616485259E+02  0.46089734267E+02  0.00000000000E+00 0.  1.
</event>
<event>
12    1  0.1061634E+000  0.2347731E+03  0.7818608E-02  0.1123449E+00
         21   -1    0    0  503  502  0.00000000000E+00  0.00000000000E+00  0.96687049911E+03  0.96687049911E+03  0.00000000000E+00 0.  1.
         21   -1    0    0  501  503 -0.00000000000E+00 -0.00000000000E+00 -0.62974044395E+02  0.62974044395E+02  0.00000000000E+00 0.  1.
          6    2    1    2  501    0  0.36606837683E+02  0.15511429043E+03  0.61339524617E+03  0.65678927086E+03  0.17238884718E+03 0.  0.
         24    2    3    3    0    0  0.85794899192E+02  0.76242155856E+02  0.32317739157E+03  0.35201267705E+03  0.79345241344E+02 0.  0.
         -6    2    1    2    0  502 -0.36606837683E+02 -0.15511429043E+03  0.29050120855E+03  0.37305527265E+03  0.17140239386E+03 0.  0.
        -24    2    5    5    0    0 -0.70805659020E+02 -0.57086147834E+02  0.20829089353E+03  0.24054224681E+03  0.78760437703E+02 0.  0.
          5    1    3    3  501    0 -0.49188061509E+02  0.78872134575E+02  0.29021785460E+03  0.30477659381E+03  0.47000000000E+01 0. -1.
        -13    1    4    4    0    0  0.73069522223E+00  0.43950375896E+02  0.66767984792E+02  0.79938309027E+02  0.00000000000E+00 0.  1.
         14    1    4    4    0    0  0.85064203969E+02  0.32291779960E+02  0.25640940678E+03  0.27207436802E+03  0.00000000000E+00 0. -1.
         -5    1    5    5    0  502  0.34198821337E+02 -0.98028142597E+02  0.82210315014E+02  0.13251302584E+03  0.47000000000E+01 0.  1.
         13    1    6    6    0    0 -0.25749359484E+02 -0.68469525321E+02  0.11455761970E+03  0.13592113023E+03  0.00000000000E+00 0. -1.
        -14    1    6    6    0    0 -0.45056299536E+02  0.11383377487E+02  0.93733273832E+02  0.10462111658E+03  0.00000000000E+00 0.  1.
</event>
<event>
12    1  0.1061634E+000  0.2226966E+03  0.7818608E-02  0.1132017E+00
         21   -1    0    0  501  502  0.00000000000E+00  0.00000000000E+00  0.49371988963E+02  0.49371988963E+02  0.00000000000E+00 0. -1.
         21   -1    0    0  502  503 -0.00000000000E+00 -0.00000000000E+00 -0.13061300459E+04  0.13061300459E+04  0.00000000000E+00 0. -1.
         -6    2    1    2    0  503  0.16631606574E+01 -0.13966367366E+03 -0.30021706447E+03  0.37337961468E+03  0.17254953786E+03 0.  0.
        -24    2    3    3    0    0 -0.12718771567E+02 -0.27584463763E+02 -0.21732027552E+03  0.23315637523E+03  0.78810680518E+02 0.  0.
          6    2    1    2  501    0 -0.16631606574E+01  0.13966367366E+03 -0.95654099248E+03  0.98212242020E+03  0.17345048320E+03 0.  0.
         24    2    5    5    0    0 -0.56439414682E+02  0.12398267135E+03 -0.80123974986E+03  0.81663254801E+03  0.79664743693E+02 0.  0.
          5    1    5    5  501    0  0.54776254024E+02  0.15681002307E+02 -0.15530124262E+03  0.16548987219E+03  0.47000000000E+01 0. -1.
        -11    1    6    6    0    0 -0.12631527692E+02  0.42183799993E+02 -0.99812347466E+02  0.10909414824E+03  0.00000000000E+00 0.  1.
         12    1    6    6    0    0 -0.43807886990E+02  0.81798871356E+02 -0.70142740240E+03  0.70753839977E+03  0.00000000000E+00 0. -1.
         -5    1    3    3    0  503  0.14381932224E+02 -0.11207920989E+03 -0.82896788950E+02  0.14022323945E+03  0.47000000000E+01 0.  1.
         11    1    4    4    0    0 -0.16700913391E+02  0.22386231547E+02 -0.39305985488E+02  0.48218506470E+02  0.00000000000E+00 0. -1.
        -12    1    4    4    0    0  0.39821418246E+01 -0.49970695310E+02 -0.17801429004E+03  0.18493786876E+03  0.00000000000E+00 0.  1.
</event>
<event>
12    1  0.1061634E+000  0.2371849E+03  0.7818608E-02  0.1121731E+00
         21   -1    0    0  501  502  0.00000000000E+00  0.00000000000E+00  0.10563333634E+04  0.10563333634E+04  0.00000000000E+00 0. -1.
         21   -1    0    0  502  503 -0.00000000000E+00 -0.00000000000E+00 -0.54811798400E+02  0.54811798400E+02  0.00000000000E+00 0.  1.
         -6    2    1    2    0  503 -0.37926290009E+02 -0.15614692821E+03  0.40554869677E+03  0.46981529924E+03  0.17446032007E+03 0.  0.
        -24    2    3    3    0    0 -0.33333817180E+02 -0.13939398671E+03  0.41737744257E+03  0.44828018645E+03  0.78799550134E+02 0.  0.
          6    2    1    2  501    0  0.37926290009E+02  0.15614692821E+03  0.59597286822E+03  0.64132986255E+03  0.17406914225E+03 0.  0.
         24    2    5    5    0    0  0.21353275774E+02  0.26988929320E+02  0.12122888567E+03  0.14902874287E+03  0.79553496385E+02 0.  0.
          5    1    5    5  501    0  0.16573014235E+02  0.12915799889E+03  0.47474398255E+03  0.49230111968E+03  0.47000000000E+01 0. -1.
        -11    1    6    6    0    0  0.19589161876E+02  0.35465936913E+02  0.13032065052E+03  0.13647358681E+03  0.00000000000E+00 0.  1.
         12    1    6    6    0    0  0.17641138983E+01 -0.84770075926E+01 -0.90917648495E+01  0.12555156058E+02  0.00000000000E+00 0. -1.
         -5    1    3    3    0  503 -0.45924728285E+01 -0.16752941508E+02 -0.11828745794E+02  0.21535112790E+02  0.47000000000E+01 0.  1.
         13    1    4    4    0    0 -0.37061734254E+01  0.75746121330E+01  0.57687696525E+01  0.10217102022E+02  0.00000000000E+00 0. -1.
        -14    1    4    4    0    0 -0.29627643755E+02 -0.14696859884E+03  0.41160867292E+03  0.43806308443E+03  0.00000000000E+00 0.  1.
</event>
<event>
12    1  0.1061634E+000  0.2159895E+03  0.7818608E-02  0.1136981E+00
         21   -1    0    0  501  502  0.00000000000E+00  0.00000000000E+00  0.13079826103E+04  0.13079826103E+04  0.00000000000E+00 0.  1.
         21   -1    0    0  502  503 -0.00000000000E+00 -0.00000000000E+00 -0.40682806573E+02  0.40682806573E+02  0.00000000000E+00 0.  1.
         -6    2    1    2    0  503  0.12092434065E+03  0.48379093128E+02  0.87238490385E+03  0.89872513653E+03  0.17230269220E+03 0.  0.
        -24    2    3    3    0    0  0.10855325818E+03  0.15329794678E+02  0.35251614305E+03  0.37763884975E+03  0.79527713799E+02 0.  0.
          6    2    1    2  501    0 -0.12092434065E+03 -0.48379093128E+02  0.39491489987E+03  0.44994028034E+03  0.17182911547E+03 0.  0.
         24    2    5    5    0    0 -0.63650638255E+02  0.50635483341E+01  0.33753200738E+03  0.35272259027E+03  0.80052023144E+02 0.  0.
          5    1    5    5  501    0 -0.57273702394E+02 -0.53442641462E+02  0.57382892492E+02  0.97217690073E+02  0.47000000000E+01 0. -1.
        -13    1    6    6    0    0 -0.79155575568E+01  0.37041162229E+02  0.11318195839E+03  0.11935183055E+03  0.00000000000E+00 0.  1.
         14    1    6    6    0    0 -0.55735080698E+02 -0.31977613894E+02  0.22435004899E+03  0.23337075972E+03  0.00000000000E+00 0. -1.
         -5    1    3    3    0  503  0.12371082470E+02  0.33049298450E+02  0.51986876080E+03  0.52108628677E+03  0.47000000000E+01 0.  1.
         13    1    4    4    0    0  0.87973116791E+02 -0.23772453542E+02  0.24481296325E+03  0.26122363178E+03  0.00000000000E+00 0. -1.
        -14    1    4    4    0    0  0.20580141388E+02  0.39102248220E+02  0.10770317980E+03  0.11641521797E+03  0.00000000000E+00 0.  1.
</event>
<event>
12    1  0.1061634E+000  0.2431849E+03  0.7818608E-02  0.1117889E+00
         21   -1    0    0  503  502  0.00000000000E+00  0.00000000000E+00  0.14101411458E+03  0.14101411458E+03  0.00000000000E+00 0.  1.
         21   -1    0    0  501  503 -0.00000000000E+00 -0.00000000000E+00 -0.41902340228E+03  0.41902340228E+03  0.00000000000E+00 0.  1.
          6    2    1    2  501    0 -0.11957494566E+03  0.12139931061E+03 -0.12134153721E+03  0.27177687237E+03  0.17350198688E+03 0.  0.
         24    2    3    3    0    0 -0.15070774615E+03  0.11771206467E+03 -0.12179894149E+03  0.24007283055E+03  0.78936853880E+02 0.  0.
         -6    2    1    2    0  502  0.11957494566E+03 -0.12139931061E+03 -0.15666775048E+03  0.28826064450E+03  0.17179480457E+03 0.  0.
        -24    2    5    5    0    0  0.67135309651E+02 -0.14953248054E+03 -0.12182741623E+03  0.21914241560E+03  0.79462987812E+02 0.  0.
          5    1    3    3  501    0  0.31132800488E+02  0.36872459436E+01  0.45740427823E+00  0.31704041818E+02  0.47000000000E+01 0. -1.
        -11    1    4    4    0    0 -0.89093569217E+02  0.23650945428E+02 -0.72598801006E+02  0.11733548996E+03  0.00000000000E+00 0.  1.
         12    1    4    4    0    0 -0.61614176936E+02  0.94061119242E+02 -0.49200140485E+02  0.12273734059E+03  0.00000000000E+00 0. -1.
         -5    1    5    5    0  502  0.52439636014E+02  0.28133169923E+02 -0.34840334253E+02  0.69118228898E+02  0.47000000000E+01 0.  1.
         11    1    6    6    0    0  0.74705526196E+02 -0.96541881798E+02 -0.56013228838E+02  0.13430834818E+03  0.00000000000E+00 0. -1.
        -12    1    6    6    0    0 -0.75702165452E+01 -0.52990598738E+02 -0.65814187392E+02  0.84834067421E+02  0.00000000000E+00 0.  1.
</event>
<event>
12    1  0.1061634E+000  0.2774314E+03  0.7818608E-02  0.1097274E+00
         21   -1    0    0  503  502  0.00000000000E+00  0.00000000000E+00  0.47879199175E+03  0.47879199175E+03  0.00000000000E+00 0.  1.
         21   -1    0    0  501  503 -0.00000000000E+00 -0.00000000000E+00 -0.17592454983E+03  0.17592454983E+03  0.00000000000E+00 0.  1.
          6    2    1    2  501    0  0.21737509567E+03 -0.20244894836E+02  0.25015359396E+03  0.37355721080E+03  0.17119106632E+03 0.  0.
         24    2    3    3    0    0  0.18862651193E+03 -0.19699836226E+02  0.26937386204E+03  0.33865324454E+03  0.78458256010E+02 0.  0.
         -6    2    1    2    0  502 -0.21737509567E+03  0.20244894836E+02  0.52713847971E+02  0.28115933078E+03  0.16914500150E+03 0.  0.
        -24    2    5    5    0    0 -0.15524080991E+03 -0.15861107140E+02 -0.24844036157E+02  0.17532158593E+03  0.75954911471E+02 0.  0.
          5    1    3    3  501    0  0.28748583741E+02 -0.54505861036E+00 -0.19220268079E+02  0.34903966265E+02  0.47000000000E+01 0. -1.
        -11    1    4    4    0    0  0.54566609212E+01  0.60835796352E+01  0.54579434139E+02  0.55187858452E+02  0.00000000000E+00 0.  1.
         12    1    4    4    0    0  0.18316985101E+03 -0.25783415861E+02  0.21479442790E+03  0.28346538608E+03  0.00000000000E+00 0. -1.
         -5    1    5    5    0  502 -0.62134285755E+02  0.36106001976E+02  0.77557884128E+02  0.10583774485E+03  0.47000000000E+01 0.  1.
         11    1    6    6    0    0 -0.73906814863E+02 -0.44869010686E+02 -0.43450687526E+01  0.86569769698E+02  0.00000000000E+00 0. -1.
        -12    1    6    6    0    0 -0.81333995051E+02  0.29007903546E+02 -0.20498967404E+02  0.88751816228E+02  0.00000000000E+00 0.  1.
</event>
<event>
12    1  0.1061634E+000  0.1754301E+03  0.7818608E-02  0.1173025E+00
         21   -1    0    0  501  502  0.00000000000E+00  0.00000000000E+00  0.86382562070E+03  0.86382562070E+03  0.00000000000E+00 0.  1.
         21   -1    0    0  502  503 -0.00000000000E+00 -0.00000000000E+00 -0.36540848027E+02  0.36540848027E+02  0.00000000000E+00 0.  1.
         -6    2    1    2    0  503 -0.14086973683E+02 -0.72415507000E+01  0.32588947328E+03  0.37010764372E+03  0.17471358351E+03 0.  0.
        -24    2    3    3    0    0  0.53736131872E+01 -0.71691391533E+02  0.19857160234E+03  0.22600897376E+03  0.80503687020E+02 0.  0.
          6    2    1    2  501    0  0.14086973683E+02  0.72415507000E+01  0.50139529939E+03  0.53025882501E+03  0.17183216335E+03 0.  0.
         24    2    5    5    0    0  0.93583943558E+01  0.18786313947E+02  0.10369693083E+03  0.13233706966E+03  0.79495543309E+02 0.  0.
          5    1    5    5  501    0  0.47285793270E+01 -0.11544763247E+02  0.39769836856E+03  0.39792175534E+03  0.47000000000E+01 0. -1.
        -11    1    6    6    0    0  0.22897502229E+02 -0.26395647699E+02  0.40775731057E+02  0.53699963399E+02  0.00000000000E+00 0.  1.
         12    1    6    6    0    0 -0.13539107873E+02  0.45181961647E+02  0.62921199774E+02  0.78637106262E+02  0.00000000000E+00 0. -1.
         -5    1    3    3    0  503 -0.19460586870E+02  0.64449840833E+02  0.12731787094E+03  0.14409866996E+03  0.47000000000E+01 0.  1.
         11    1    4    4    0    0  0.12896348251E+01  0.11165642162E+02  0.82934871437E+02  0.83693056003E+02  0.00000000000E+00 0. -1.
        -12    1    4    4    0    0  0.40839783620E+01 -0.82857033695E+02  0.11563673091E+03  0.14231591776E+03  0.00000000000E+00 0.  1.
</event>
<event>
12    1  0.1061634E+000  0.2157249E+03  0.7818608E-02  0.1137245E+00
         21   -1    0    0  503  502  0.00000000000E+00  0.00000000000E+00  0.12593081902E+04  0.12593081902E+04  0.00000000000E+00 0. -1.
         21   -1    0    0  501  503 -0.00000000000E+00 -0.00000000000E+00 -0.37997719383E+02  0.37997719383E+02  0.00000000000E+00 0. -1.
          6    2    1    2  501    0  0.12007536125E+03 -0.48751459114E+02  0.72315518167E+03  0.75444687443E+03  0.17158634100E+03 0.  0.
         24    2    3    3    0    0  0.15098819688E+03 -0.60419255968E+02  0.58923741909E+03  0.61643311416E+03  0.79631187905E+02 0.  0.
         -6    2    1    2    0  502 -0.12007536125E+03  0.48751459114E+02  0.49815528918E+03  0.54285903519E+03  0.17245997449E+03 0.  0.
        -24    2    5    5    0    0 -0.51186488963E+02 -0.60206342356E+01  0.11472887733E+03  0.14943361374E+03  0.80693152954E+02 0.  0.
          5    1    3    3  501    0 -0.30912835628E+02  0.11667796854E+02  0.13391776258E+03  0.13801376027E+03  0.47000000000E+01 0. -1.
        -13    1    4    4    0    0  0.10986630349E+03 -0.49165989145E+01  0.31564470000E+03  0.33425492401E+03  0.00000000000E+00 0.  1.
         14    1    4    4    0    0  0.41121893386E+02 -0.55502657053E+02  0.27359271909E+03  0.28217819015E+03  0.00000000000E+00 0. -1.
         -5    1    5    5    0  502 -0.68888872284E+02  0.54772093349E+02  0.38342641185E+03  0.39342542145E+03  0.47000000000E+01 0.  1.
         13    1    6    6    0    0  0.21370751365E+02 -0.84618099025E+01  0.23944343887E+02  0.33191005482E+02  0.00000000000E+00 0. -1.
        -14    1    6    6    0    0 -0.72557240328E+02  0.24411756668E+01  0.90784533445E+02  0.11624260826E+03  0.00000000000E+00 0.  1.
</event>
<event>
12    1  0.1061634E+000  0.1764688E+03  0.7818608E-02  0.1171353E+00
         21   -1    0    0  503  502  0.00000000000E+00  0.00000000000E+00  0.14953061772E+04  0.14953061772E+04  0.00000000000E+00 0. -1.
         21   -1    0    0  501  503 -0.00000000000E+00 -0.00000000000E+00 -0.33016631949E+02  0.33016631949E+02  0.00000000000E+00 0. -1.
          6    2    1    2  501    0  0.33060657088E+02  0.18662447848E+02  0.11958128999E+04  0.12087120602E+04  0.17197400677E+03 0.  0.
         24    2    3    3    0    0  0.83318433631E+01 -0.29616073823E+02  0.10428478787E+04  0.10463460614E+04  0.79761209630E+02 0.  0.
         -6    2    1    2    0  502 -0.33060657088E+02 -0.18662447848E+02  0.26647664542E+03  0.31961074897E+03  0.17233668878E+03 0.  0.
        -24    2    5    5    0    0 -0.35758575348E+02 -0.45127286601E+02  0.27467067214E+03  0.29138135778E+03  0.78383479262E+02 0.  0.
          5    1    3    3  501    0  0.24728813725E+02  0.48278521671E+02  0.15296502112E+03  0.16236599881E+03  0.47000000000E+01 0. -1.
        -11    1    4    4    0    0 -0.14802343267E+02 -0.50466333880E+02  0.75159899888E+03  0.75343680249E+03  0.00000000000E+00 0.  1.
         12    1    4    4    0    0  0.23134186630E+02  0.20850260057E+02  0.29124887986E+03  0.29290925891E+03  0.00000000000E+00 0. -1.
         -5    1    5    5    0  502  0.26979182597E+01  0.26464838753E+02 -0.81940267215E+01  0.28229391192E+02  0.47000000000E+01 0.  1.
         11    1    6    6    0    0  0.44931886898E+01 -0.33483742455E+02  0.37237133488E+02  0.50278761558E+02  0.00000000000E+00 0. -1.
        -12    1    6    6    0    0 -0.40251764038E+02 -0.11643544146E+02  0.23743353865E+03  0.24110259622E+03  0.00000000000E+00 0.  1.
</event>
<event>
12    1  0.1061634E+000  0.3007449E+03  0.7818608E-02  0.1084898E+00
         21   -1    0    0  501  502  0.00000000000E+00  0.00000000000E+00  0.29923312540E+03  0.29923312540E+03  0.00000000000E+00 0.  1.
         21   -1    0    0  502  503 -0.00000000000E+00 -0.00000000000E+00 -0.21052943081E+04  0.21052943081E+04  0.00000000000E+00 0.  1.
         -6    2    1    2    0  503 -0.24550959837E+03 -0.22170401538E+02  0.20970915061E+03  0.36644561232E+03  0.17186613785E+03 0.  0.
        -24    2    3    3    0    0 -0.51794606216E+02 -0.25786253441E+01  0.23862922398E+02  0.97242628641E+02  0.78723307971E+02 0.  0.
          6    2    1    2  501    0  0.24550959837E+03  0.22170401538E+02 -0.20157703333E+04  0.20380818212E+04  0.17228169835E+03 0.  0.
         24    2    5    5    0    0  0.23846845376E+03  0.50671288969E+02 -0.14983311007E+04  0.15197891165E+04  0.72993755124E+02 0.  0.
          5    1    5    5  501    0  0.70411446107E+01 -0.28500887431E+02 -0.51743923263E+03  0.51829270472E+03  0.47000000000E+01 0. -1.
        -13    1    6    6    0    0  0.47376539168E+02  0.14947194056E+02 -0.16364065300E+03  0.17101525776E+03  0.00000000000E+00 0.  1.
         14    1    6    6    0    0  0.19109191459E+03  0.35724094913E+02 -0.13346904477E+04  0.13487738587E+04  0.00000000000E+00 0. -1.
         -5    1    3    3    0  503 -0.19371499215E+03 -0.19591776194E+02  0.18584622821E+03  0.26920298368E+03  0.47000000000E+01 0.  1.
         11    1    4    4    0    0 -0.23370791638E+02  0.32494768168E+02  0.32155149077E+02  0.51342550309E+02  0.00000000000E+00 0. -1.
        -12    1    4    4    0    0 -0.28423814578E+02 -0.35073393512E+02 -0.82922266789E+01  0.45900078332E+02  0.00000000000E+00 0.  1.
</event>
<event>
12    1  0.1061634E+000  0.2760388E+03  0.7818608E-02  0.1097910E+00
         21   -1    0    0  501  502  0.00000000000E+00  0.00000000000E+00  0.11232803777E+03  0.11232803777E+03  0.00000000000E+00 0.  1.
         21   -1    0    0  502  503 -0.00000000000E+00 -0.00000000000E+00 -0.73716948232E+03  0.73716948232E+03  0.00000000000E+00 0. -1.
         -6    2    1    2    0  503  0.62491787670E+02 -0.20635297597E+03 -0.19162095518E+03  0.33580754242E+03  0.17193411780E+03 0.  0.
        -24    2    3    3    0    0 -0.51608392170E+01 -0.10978095385E+03 -0.16702415080E+03  0.21526656944E+03  0.79775540600E+02 0.  0.
          6    2    1    2  501    0 -0.62491787670E+02  0.20635297597E+03 -0.43322048936E+03  0.51368997767E+03  0.17236770736E+03 0.  0.
         24    2    5    5    0    0 -0.29484490329E+02  0.20088182784E+03 -0.42664462258E+03  0.47926982132E+03  0.80318638723E+02 0.  0.
          5    1    5    5  501    0 -0.33007297341E+02  0.54711481365E+01 -0.65758667873E+01  0.34420156358E+02  0.47000000000E+01 0. -1.
        -11    1    6    6    0    0  0.23680680723E+01  0.52249720244E+02 -0.46974856445E+02  0.70301338180E+02  0.00000000000E+00 0.  1.
         12    1    6    6    0    0 -0.31852558401E+02  0.14863210759E+03 -0.37966976613E+03  0.40896848314E+03  0.00000000000E+00 0. -1.
         -5    1    3    3    0  503  0.67652626887E+02 -0.96572022120E+02 -0.24596804383E+02  0.12054097298E+03  0.47000000000E+01 0.  1.
         13    1    4    4    0    0  0.10693609401E+02 -0.36653784052E+02 -0.12223564594E+03  0.12806016674E+03  0.00000000000E+00 0. -1.
        -14    1    4    4    0    0 -0.15854448618E+02 -0.73127169799E+02 -0.44788504856E+02  0.87206402695E+02  0.00000000000E+00 0.  1.
</event>
<event>
12    1  0.1061634E+000  0.2013368E+03  0.7818608E-02  0.1152394E+00
         21   -1    0    0  503  502  0.00000000000E+00  0.00000000000E+00  0.11652294259E+03  0.11652294259E+03  0.00000000000E+00 0.  1.
         21   -1    0    0  501  503 -0.00000000000E+00 -0.00000000000E+00 -0.37508772018E+03  0.37508772018E+03  0.00000000000E+00 0.  1.
          6    2    1    2  501    0  0.89722218851E+01 -0.62996757251E+02 -0.21954865157E+03  0.28652834001E+03  0.17276512099E+03 0.  0.
         24    2    3    3    0    0  0.34692750288E+02 -0.98303046352E+02 -0.11233166945E+03  0.17065922899E+03  0.75093892129E+02 0.  0.
         -6    2    1    2    0  502 -0.89722218851E+01  0.62996757251E+02 -0.39016126020E+02  0.20508232276E+03  0.19101677630E+03 0.  0.
        -24    2    5    5    0    0 -0.48598876016E+02  0.10606712519E+03 -0.37703540907E+02  0.14635293326E+03  0.79909563138E+02 0.  0.
          5    1    3    3  501    0 -0.25720528403E+02  0.35306289102E+02 -0.10721698213E+03  0.11586911102E+03  0.47000000000E+01 0. -1.
        -11    1    4    4    0    0  0.30805058213E+02 -0.21551125340E+02 -0.39582736163E+01  0.37803049413E+02  0.00000000000E+00 0.  1.
         12    1    4    4    0    0  0.38876920757E+01 -0.76751921012E+02 -0.10837339583E+03  0.13285617958E+03  0.00000000000E+00 0. -1.
         -5    1    5    5    0  502  0.39626654131E+02 -0.43070367935E+02 -0.13125851138E+01  0.58729389503E+02  0.47000000000E+01 0.  1.
         11    1    6    6    0    0  0.19843641027E+02  0.42577273661E+02 -0.21253330405E+02  0.51558688647E+02  0.00000000000E+00 0. -1.
        -12    1    6    6    0    0 -0.68442517043E+02  0.63489851524E+02 -0.16450210501E+02  0.94794244611E+02  0.00000000000E+00 0.  1.
</event>
<event>
12    1  0.1061634E+000  0.3979468E+03  0.7818608E-02  0.1044511E+00
         21   -1    0    0  503  502  0.00000000000E+00  0.00000000000E+00  0.10681541791E+04  0.10681541791E+04  0.00000000000E+00 0.  1.
         21   -1    0    0  501  503 -0.00000000000E+00 -0.00000000000E+00 -0.19481813143E+03  0.19481813143E+03  0.00000000000E+00 0. -1.
          6    2    1    2  501    0 -0.22426593148E+03  0.28048990014E+03  0.12761847433E+03  0.41771709534E+03  0.17097164866E+03 0.  0.
         24    2    3    3    0    0 -0.85650365402E+02  0.85079126540E+02  0.10083501208E+03  0.17659660793E+03  0.80275895537E+02 0.  0.
         -6    2    1    2    0  502  0.22426593148E+03 -0.28048990014E+03  0.74571757334E+03  0.84525521518E+03  0.17144062381E+03 0.  0.
        -24    2    5    5    0    0  0.21580923406E+03 -0.27453265029E+03  0.59855589870E+03  0.69765557751E+03  0.80699066805E+02 0.  0.
          5    1    3    3  501    0 -0.13861556608E+03  0.19541077360E+03  0.26783462248E+02  0.24112048741E+03  0.47000000000E+01 0. -1.
        -11    1    4    4    0    0 -0.83882641420E+02  0.98614299842E+02  0.81686709110E+02  0.15308101159E+03  0.00000000000E+00 0.  1.
         12    1    4    4    0    0 -0.17677239815E+01 -0.13535173301E+02  0.19148302974E+02  0.23515596338E+02  0.00000000000E+00 0. -1.
         -5    1    5    5    0  502  0.84566974284E+01 -0.59572498518E+01  0.14716167464E+03  0.14759963767E+03  0.47000000000E+01 0.  1.
         13    1    6    6    0    0  0.37057941820E+00 -0.20311021908E+02  0.69442885793E+02  0.72353226101E+02  0.00000000000E+00 0. -1.
        -14    1    6    6    0    0  0.21543865464E+03 -0.25422162838E+03  0.52911301291E+03  0.62530235141E+03  0.00000000000E+00 0.  1.
</event>
<event>
12    1  0.1061634E+000  0.1743012E+03  0.7818608E-02  0.1173811E+00
         21   -1    0    0  501  502  0.00000000000E+00  0.00000000000E+00  0.12267693434E+03  0.12267693434E+03  0.00000000000E+00 0.  1.
         21   -1    0    0  502  503 -0.00000000000E+00 -0.00000000000E+00 -0.10503504356E+04  0.10503504356E+04  0.00000000000E+00 0.  1.
         -6    2    1    2    0  503  0.65005678028E+01 -0.94873562885E+01  0.49098642569E+02  0.18108449879E+03  0.17392139515E+03 0.  0.
        -24    2    3    3    0    0 -0.33156137115E+02 -0.51625191579E+02  0.67037147404E+02  0.12032158771E+03  0.78859466792E+02 0.  0.
          6    2    1    2  501    0 -0.65005678028E+01  0.94873562885E+01 -0.97677214381E+03  0.99194287113E+03  0.17243715193E+03 0.  0.
         24    2    5    5    0    0  0.63047143803E+02 -0.24483265986E+01 -0.53074765960E+03  0.54034650796E+03  0.79374642384E+02 0.  0.
          5    1    5    5  501    0 -0.69547711606E+02  0.11935682887E+02 -0.44602448421E+03  0.45159636317E+03  0.47000000000E+01 0. -1.
        -13    1    6    6    0    0  0.33193952313E+02 -0.37022676569E+02 -0.36676813218E+03  0.37012346566E+03  0.00000000000E+00 0.  1.
         14    1    6    6    0    0  0.29853191490E+02  0.34574349970E+02 -0.16397952742E+03  0.17022304231E+03  0.00000000000E+00 0. -1.
         -5    1    3    3    0  503  0.39656704918E+02  0.42137835290E+02 -0.17938504834E+02  0.60762911085E+02  0.47000000000E+01 0.  1.
         11    1    4    4    0    0  0.22832166448E+02  0.92860825241E+00  0.11711452597E+02  0.25677388106E+02  0.00000000000E+00 0. -1.
        -12    1    4    4    0    0 -0.55988303563E+02 -0.52553799831E+02  0.55325694806E+02  0.94644199602E+02  0.00000000000E+00 0.  1.
</event>
<event>
12    1  0.1061634E+000  0.2527341E+03  0.7818608E-02  0.1111778E+00
         21   -1    0    0  501  502  0.00000000000E+00  0.00000000000E+00  0.34146918600E+03  0.34146918600E+03  0.00000000000E+00 0. -1.
         21   -1    0    0  502  503 -0.00000000000E+00 -0.00000000000E+00 -0.18768594338E+03  0.18768594338E+03  0.00000000000E+00 0. -1.
         -6    2    1    2    0  503  0.12884780175E+03  0.13043168608E+03  0.52885416735E+02  0.25702486864E+03  0.17219388794E+03 0.  0.
        -24    2    3    3    0    0  0.92995713225E+01  0.19288326835E+02 -0.36644640861E+01  0.84211082365E+02  0.81360657060E+02 0.  0.
          6    2    1    2  501    0 -0.12884780175E+03 -0.13043168608E+03  0.10089782588E+03  0.27213026075E+03  0.17395495622E+03 0.  0.
         24    2    5    5    0    0 -0.15540062603E+03 -0.12830169272E+03  0.10942578448E+03  0.24376821875E+03  0.82693792001E+02 0.  0.
          5    1    5    5  501    0  0.26552824272E+02 -0.21299933610E+01 -0.85279585991E+01  0.28362042000E+02  0.47000000000E+01 0. -1.
        -13    1    6    6    0    0 -0.79782310528E+02 -0.96415779117E+02  0.28160373255E+02  0.12827402760E+03  0.00000000000E+00 0.  1.
         14    1    6    6    0    0 -0.75618315499E+02 -0.31885913607E+02  0.81265411229E+02  0.11549419114E+03  0.00000000000E+00 0. -1.
         -5    1    3    3    0  503  0.11954823043E+03  0.11114335925E+03  0.56549880821E+02  0.17281378627E+03  0.47000000000E+01 0.  1.
         11    1    4    4    0    0  0.38072441620E+02 -0.11825747795E+02 -0.10639588214E+02  0.41262088642E+02  0.00000000000E+00 0. -1.
        -12    1    4    4    0    0 -0.28772870297E+02  0.31114074630E+02  0.69751241277E+01  0.42948993723E+02  0.00000000000E+00 0.  1.
</event>
<event>
12    1  0.1061634E+000  0.1733030E+03  0.7818608E-02  0.1174644E+00
         21   -1    0    0  503  502  0.00000000000E+00  0.00000000000E+00  0.73322007253E+02  0.73322007253E+02  0.00000000000E+00 0.  1.
         21   -1    0    0  501  503 -0.00000000000E+00 -0.00000000000E+00 -0.41121719451E+03  0.41121719451E+03  0.00000000000E+00 0.  1.
          6    2    1    2  501    0  0.92022516919E+01 -0.11272063660E+02 -0.14645587162E+03  0.22630877679E+03  0.17191451150E+03 0.  0.
         24    2    3    3    0    0 -0.16850811391E+02  0.32518490246E+02 -0.15093128242E+03  0.17494250371E+03  0.80518479505E+02 0.  0.
         -6    2    1    2    0  502 -0.92022516919E+01  0.11272063660E+02 -0.19143931563E+03  0.25823042497E+03  0.17269105349E+03 0.  0.
        -24    2    5    5    0    0 -0.14172460953E+02 -0.36785894872E+02 -0.18941640875E+03  0.20964593660E+03  0.80738975208E+02 0.  0.
          5    1    3    3  501    0  0.26053063082E+02 -0.43790553906E+02  0.44754107962E+01  0.51366273071E+02  0.47000000000E+01 0. -1.
        -11    1    4    4    0    0 -0.39441463614E+02  0.26472280275E+02 -0.14229292864E+03  0.15001229355E+03  0.00000000000E+00 0.  1.
         12    1    4    4    0    0  0.22590652223E+02  0.60462099706E+01 -0.86383537747E+01  0.24930210164E+02  0.00000000000E+00 0. -1.
         -5    1    5    5    0  502  0.49702092611E+01  0.48057958533E+02 -0.20229068824E+01  0.48584488375E+02  0.47000000000E+01 0.  1.
         13    1    6    6    0    0 -0.43338205474E+02 -0.41728769633E+02 -0.13167256319E+03  0.14476585981E+03  0.00000000000E+00 0. -1.
        -14    1    6    6    0    0  0.29165744521E+02  0.49428747608E+01 -0.57743845557E+02  0.64880076788E+02  0.00000000000E+00 0.  1.
</event>
<event>
12    1  0.1061634E+000  0.4135820E+03  0.7818608E-02  0.1039211E+00
         21   -1    0    0  501  502  0.00000000000E+00  0.00000000000E+00  0.12810924530E+04  0.12810924530E+04  0.00000000000E+00 0.  1.
         21   -1    0    0  502  503 -0.00000000000E+00 -0.00000000000E+00 -0.14896920287E+03  0.14896920287E+03  0.00000000000E+00 0.  1.
         -6    2    1    2    0  503 -0.87090283818E+02  0.36598608778E+03  0.79760278762E+03  0.89845437559E+03  0.17181246814E+03 0.  0.
        -24    2    3    3    0    0 -0.72592393740E+02  0.36711338697E+03  0.79593919466E+03  0.88308176482E+03  0.79197899265E+02 0.  0.
          6    2    1    2  501    0  0.87090283818E+02 -0.36598608778E+03  0.33452046247E+03  0.53160728025E+03  0.17079761889E+03 0.  0.
         24    2    5    5    0    0  0.91426182866E+02 -0.23309239838E+03  0.14543973685E+03  0.30040792145E+03  0.80008681555E+02 0.  0.
          5    1    5    5  501    0 -0.43358990478E+01 -0.13289368941E+03  0.18908072563E+03  0.23119935880E+03  0.47000000000E+01 0. -1.
        -11    1    6    6    0    0  0.71071669986E+02 -0.75052069524E+02  0.62111954847E+02  0.12058976055E+03  0.00000000000E+00 0.  1.
         12    1    6    6    0    0  0.20354512880E+02 -0.15804032885E+03  0.83327782000E+02  0.17981816090E+03  0.00000000000E+00 0. -1.
         -5    1    3    3    0  503 -0.14497890078E+02 -0.11272991905E+01  0.16635929616E+01  0.15372610764E+02  0.47000000000E+01 0.  1.
         13    1    4    4    0    0 -0.80017003444E+02  0.20310068848E+03  0.44835674600E+03  0.49867462557E+03  0.00000000000E+00 0. -1.
        -14    1    4    4    0    0  0.74246097043E+01  0.16401269849E+03  0.34758244866E+03  0.38440713926E+03  0.00000000000E+00 0.  1.
</event>
<event>
12    1  0.1061634E+000  0.2694240E+03  0.7818608E-02  0.1101745E+00
         21   -1    0    0  503  502  0.00000000000E+00  0.00000000000E+00  0.16248241640E+04  0.16248241640E+04  0.00000000000E+00 0. -1.
         21   -1    0    0  501  503 -0.00000000000E+00 -0.00000000000E+00 -0.11015444157E+03  0.11015444157E+03  0.00000000000E+00 0. -1.
          6    2    1    2  501    0  0.19879469364E+03 -0.52111364786E+02  0.88246735521E+02  0.28350795982E+03  0.17422500507E+03 0.  0.
         24    2    3    3    0    0  0.15758512790E+03 -0.19020501670E+02 -0.18840837253E+01  0.17891882029E+03  0.82544184899E+02 0.  0.
         -6    2    1    2    0  502 -0.19879469364E+03  0.52111364786E+02  0.14264229869E+04  0.14514706458E+04  0.17277029063E+03 0.  0.
        -24    2    5    5    0    0 -0.98388634075E+02  0.64986773309E+02  0.11050920684E+04  0.11145391956E+04  0.84056735353E+02 0.  0.
          5    1    3    3  501    0  0.41209565732E+02 -0.33090863115E+02  0.90130819246E+02  0.10458913953E+03  0.47000000000E+01 0.  1.
        -11    1    4    4    0    0  0.13567170936E+02 -0.23367788514E+02  0.19410805913E+02  0.33270122534E+02  0.00000000000E+00 0.  1.
         12    1    4    4    0    0  0.14401795697E+03  0.43472868437E+01 -0.21294889638E+02  0.14564869775E+03  0.00000000000E+00 0. -1.
         -5    1    5    5    0  502 -0.10040605956E+03 -0.12875408523E+02  0.32133091850E+03  0.33693145019E+03  0.47000000000E+01 0.  1.
         13    1    6    6    0    0 -0.48946793062E+02  0.10265422402E+02  0.18971939764E+03  0.19620045181E+03  0.00000000000E+00 0. -1.
        -14    1    6    6    0    0 -0.49441841014E+02  0.54721350907E+02  0.91537267078E+03  0.91833874377E+03  0.00000000000E+00 0.  1.
</event>
<event>
12    1  0.1061634E+000  0.1797909E+03  0.7818608E-02  0.1168860E+00
         21   -1    0    0  501  502  0.00000000000E+00  0.00000000000E+00  0.51865698397E+03  0.51865698397E+03  0.00000000000E+00 0.  1.
         21   -1    0    0  502  503 -0.00000000000E+00 -0.00000000000E+00 -0.74475663102E+02  0.74475663102E+02  0.00000000000E+00 0.  1.
         -6    2    1    2    0  503  0.29603707623E+02  0.68150055207E+01  0.98294487833E+02  0.20490622440E+03  0.17720589904E+03 0.  0.
        -24    2    3    3    0    0 -0.35344820319E+02 -0.28337032466E+02  0.45400317071E+02  0.11394546167E+03  0.94181397908E+02 0.  0.
          6    2    1    2  501    0 -0.29603707623E+02 -0.68150055207E+01  0.34588683304E+03  0.38822642267E+03  0.17366413040E+03 0.  0.
         24    2    5    5    0    0  0.46566397078E+02 -0.83662490322E+00  0.13391310404E+03  0.16285433552E+03  0.80122942310E+02 0.  0.
          5    1    5    5  501    0 -0.76170104702E+02 -0.59783806175E+01  0.21197372899E+03  0.22537208715E+03  0.47000000000E+01 0. -1.
        -11    1    6    6    0    0  0.21342277888E+02  0.36162003234E+02  0.36478381614E+02  0.55622438175E+02  0.00000000000E+00 0.  1.
         12    1    6    6    0    0  0.25224119190E+02 -0.36998628137E+02  0.97434722428E+02  0.10723189734E+03  0.00000000000E+00 0. -1.
         -5    1    3    3    0  503  0.64948527943E+02  0.35152037987E+02  0.52894170763E+02  0.90960762734E+02  0.47000000000E+01 0.  1.
         13    1    4    4    0    0  0.10063152060E+02  0.22192793366E+02 -0.99458149315E+01  0.26319314988E+02  0.00000000000E+00 0. -1.
        -14    1    4    4    0    0 -0.45407972380E+02 -0.50529825831E+02  0.55346132002E+02  0.87626146679E+02  0.00000000000E+00 0.  1.
</event>
<event>
12    1  0.1061634E+000  0.2704831E+03  0.7818608E-02  0.1101321E+00
         21   -1    0    0  503  502  0.00000000000E+00  0.00000000000E+00  0.37248718863E+02  0.37248718863E+02  0.00000000000E+00 0. -1.
         21   -1    0    0  501  503 -0.00000000000E+00 -0.00000000000E+00 -0.19536234537E+04  0.19536234537E+04  0.00000000000E+00 0. -1.
          6    2    1    2  501    0  0.20600932219E+03 -0.35090096439E+02 -0.10150588609E+04  0.10504787580E+04  0.17172645175E+03 0.  0.
         24    2    3    3    0    0  0.18770938107E+03  0.12722513948E+02 -0.63447689873E+03  0.66644014863E+03  0.78643897332E+02 0.  0.
         -6    2    1    2    0  502 -0.20600932219E+03  0.35090096439E+02 -0.90131587388E+03  0.94039341451E+03  0.16822102672E+03 0.  0.
        -24    2    5    5    0    0 -0.83977423583E+02 -0.81867415850E+01 -0.23848259727E+03  0.26501595591E+03  0.78995425681E+02 0.  0.
          5    1    3    3  501    0  0.18299941118E+02 -0.47812610386E+02 -0.38058196220E+03  0.38403860940E+03  0.47000000000E+01 0. -1.
        -13    1    4    4    0    0  0.69291129961E+02 -0.25974129702E+02 -0.31396690128E+03  0.32256957576E+03  0.00000000000E+00 0.  1.
         14    1    4    4    0    0  0.11841825111E+03  0.38696643650E+02 -0.32050999745E+03  0.34387057288E+03  0.00000000000E+00 0. -1.
         -5    1    5    5    0  502 -0.12203189861E+03  0.43276838024E+02 -0.66283327662E+03  0.67537745860E+03  0.47000000000E+01 0.  1.
         13    1    6    6    0    0 -0.96059179900E+02 -0.10354051696E+02 -0.17082834330E+03  0.19625721720E+03  0.00000000000E+00 0. -1.
        -14    1    6    6    0    0  0.12081756317E+02  0.21673101114E+01 -0.67654253969E+02  0.68758738709E+02  0.00000000000E+00 0.  1.
</event>
<event>
12    1  0.1061634E+000  0.1877366E+03  0.7818608E-02  0.1160800E+00
         21   -1    0    0  501  502  0.00000000000E+00  0.00000000000E+00  0.10778052284E+03  0.10778052284E+03  0.00000000000E+00 0. -1.
         21   -1    0    0  502  503 -0.00000000000E+00 -0.00000000000E+00 -0.32987091352E+03  0.32987091352E+03  0.00000000000E+00 0. -1.
         -6    2    1    2    0  503  0.60396437213E+02 -0.44149666691E+02 -0.13761350512E+03  0.23178407739E+03  0.17084922899E+03 0.  0.
        -24    2    3    3    0    0 -0.14642473533E+02  0.23831195717E+02 -0.50278504544E+02  0.97986737714E+02  0.79316737378E+02 0.  0.
          6    2    1    2  501    0 -0.60396437213E+02  0.44149666691E+02 -0.84476885566E+02  0.20586735896E+03  0.17218624392E+03 0.  0.
         24    2    5    5    0    0 -0.29143724345E+02  0.95026711972E+02 -0.43811457879E+02  0.13347279558E+03  0.77563591085E+02 0.  0.
          5    1    5    5  501    0 -0.31252712868E+02 -0.50877045282E+02 -0.40665427686E+02  0.72394563381E+02  0.47000000000E+01 0. -1.
        -11    1    6    6    0    0 -0.36341902342E+02  0.34738594472E+02  0.11239128533E+02  0.51515258146E+02  0.00000000000E+00 0.  1.
         12    1    6    6    0    0  0.71981779962E+01  0.60288117500E+02 -0.55050586412E+02  0.81957537436E+02  0.00000000000E+00 0. -1.
         -5    1    3    3    0  503  0.75038910746E+02 -0.67980862408E+02 -0.87335000572E+02  0.13379733968E+03  0.47000000000E+01 0.  1.
         13    1    4    4    0    0 -0.28698782419E+02 -0.22002832511E+02 -0.21725076450E+02  0.42186771594E+02  0.00000000000E+00 0. -1.
        -14    1    4    4    0    0  0.14056308885E+02  0.45834028228E+02 -0.28553428094E+02  0.55799966120E+02  0.00000000000E+00 0.  1.
</event>
<event>
12    1  0.1061634E+000  0.2332796E+03  0.7818608E-02  0.1124427E+00
         21   -1    0    0  503  502  0.00000000000E+00  0.00000000000E+00  0.39206238060E+03  0.39206238060E+03  0.00000000000E+00 0. -1.
         21   -1    0    0  501  503 -0.00000000000E+00 -0.00000000000E+00 -0.13932267349E+03  0.13932267349E+03  0.00000000000E+00 0. -1.
          6    2    1    2  501    0  0.15625311737E+03 -0.22804879302E+02  0.10663982014E+03  0.25649837111E+03  0.17170982480E+03 0.  0.
         24    2    3    3    0    0  0.88593351182E+02 -0.78611108799E+02  0.88976506012E+02  0.16690896394E+03  0.76897953942E+02 0.  0.
         -6    2    1    2    0  502 -0.15625311737E+03  0.22804879302E+02  0.14609988697E+03  0.27488668298E+03  0.17112104576E+03 0.  0.
        -24    2    5    5    0    0 -0.73243065013E+01 -0.99209973088E+01  0.52360269495E+02  0.95833675212E+02  0.79312192189E+02 0.  0.
          5    1    3    3  501    0  0.67659766192E+02  0.55806229497E+02  0.17663314128E+02  0.89589407174E+02  0.47000000000E+01 0. -1.
        -13    1    4    4    0    0  0.71768101043E+02 -0.32839385599E+02  0.87896578078E+02  0.11813083430E+03  0.00000000000E+00 0.  1.
         14    1    4    4    0    0  0.16825250139E+02 -0.45771723200E+02  0.10799279338E+01  0.48778129641E+02  0.00000000000E+00 0. -1.
         -5    1    5    5    0  502 -0.14892881087E+03  0.32725876610E+02  0.93739617470E+02  0.17905300777E+03  0.47000000000E+01 0.  1.
         11    1    6    6    0    0 -0.25892927214E+02  0.53155100678E+01  0.63925368622E+02  0.69174786450E+02  0.00000000000E+00 0. -1.
        -12    1    6    6    0    0  0.18568620713E+02 -0.15236507377E+02 -0.11565099127E+02  0.26658888762E+02  0.00000000000E+00 0.  1.
</event>
<event>
12    1  0.1061634E+000  0.2532284E+03  0.7818608E-02  0.1111396E+00
         21   -1    0    0  501  502  0.00000000000E+00  0.00000000000E+00  0.77408999140E+03  0.77408999140E+03  0.00000000000E+00 0. -1.
         21   -1    0    0  502  503 -0.00000000000E+00 -0.00000000000E+00 -0.11669086398E+03  0.11669086398E+03  0.00000000000E+00 0. -1.
         -6    2    1    2    0  503 -0.18273904342E+03  0.30949524480E+02  0.87616870359E+02  0.26726145579E+03  0.17146585294E+03 0.  0.
        -24    2    3    3    0    0 -0.59871392878E+02 -0.32914379747E+02  0.27918620263E+01  0.10480398489E+03  0.79423804218E+02 0.  0.
          6    2    1    2  501    0  0.18273904342E+03 -0.30949524480E+02  0.56978225706E+03  0.62351939959E+03  0.17254909489E+03 0.  0.
         24    2    5    5    0    0  0.87755336894E+02  0.92635057589E+01  0.14502778947E+03  0.18639534392E+03  0.76963321294E+02 0.  0.
          5    1    5    5  501    0  0.94983706526E+02 -0.40213030239E+02  0.42475446759E+03  0.43712405567E+03  0.47000000000E+01 0. -1.
        -13    1    6    6    0    0  0.33015642928E+02 -0.14987267838E+02  0.11262672531E+03  0.11831918749E+03  0.00000000000E+00 0.  1.
         14    1    6    6    0    0  0.54739693967E+02  0.24250773597E+02  0.32401064167E+02  0.68076156434E+02  0.00000000000E+00 0. -1.
         -5    1    3    3    0  503 -0.12286765054E+03  0.63863904227E+02  0.84825008333E+02  0.16245747090E+03  0.47000000000E+01 0.  1.
         11    1    4    4    0    0 -0.71835144220E+02 -0.42608354697E+02  0.15367545314E+02  0.84923031529E+02  0.00000000000E+00 0. -1.
        -12    1    4    4    0    0  0.11963751342E+02  0.96939749500E+01 -0.12575683287E+02  0.19880953364E+02  0.00000000000E+00 0.  1.
</event>
<event>
12    1  0.1061634E+000  0.2273263E+03  0.7818608E-02  0.1129371E+00
         21   -1    0    0  501  502  0.00000000000E+00  0.00000000000E+00  0.13415590264E+03  0.13415590264E+03  0.00000000000E+00 0. -1.
         21   -1    0    0  502  503 -0.00000000000E+00 -0.00000000000E+00 -0.40543124638E+03  0.40543124638E+03  0.00000000000E+00 0. -1.
         -6    2    1    2    0  503 -0.27854216348E+02 -0.14532865195E+03 -0.63408755017E+02  0.23155181459E+03  0.16643106135E+03 0.  0.
        -24    2    3    3    0    0 -0.23121284938E+02 -0.45654767750E+01 -0.18284583365E+02  0.83582381966E+02  0.78078493780E+02 0.  0.
          6    2    1    2  501    0  0.27854216348E+02  0.14532865195E+03 -0.20786658873E+03  0.30803533443E+03  0.17257164919E+03 0.  0.
         24    2    5    5    0    0  0.47216607921E+02  0.14845166663E+03 -0.22206142095E+03  0.28337283881E+03  0.81985277422E+02 0.  0.
          5    1    5    5  501    0 -0.19362391573E+02 -0.31230146843E+01  0.14194832224E+02  0.24662495616E+02  0.47000000000E+01 0. -1.
        -13    1    6    6    0    0  0.67289159858E+02  0.83587623009E+02 -0.14917164525E+03  0.18375772501E+03  0.00000000000E+00 0.  1.
         14    1    6    6    0    0 -0.20072551937E+02  0.64864043625E+02 -0.72889775701E+02  0.99615113805E+02  0.00000000000E+00 0. -1.
         -5    1    3    3    0  503 -0.47329314099E+01 -0.14076317517E+03 -0.45124171652E+02  0.14796943263E+03  0.47000000000E+01 0.  1.
         13    1    4    4    0    0  0.79070894240E+01  0.10832128520E+02 -0.40344774510E+02  0.42515384295E+02  0.00000000000E+00 0. -1.
        -14    1    4    4    0    0 -0.31028374362E+02 -0.15397605295E+02  0.22060191145E+02  0.41066997671E+02  0.00000000000E+00 0.  1.
</event>
<event>
12    1  0.1061634E+000  0.2992941E+03  0.7818608E-02  0.1085622E+00
         21   -1    0    0  501  502  0.00000000000E+00  0.00000000000E+00  0.37349263321E+03  0.37349263321E+03  0.00000000000E+00 0.  1.
         21   -1    0    0  502  503 -0.00000000000E+00 -0.00000000000E+00 -0.23988195307E+03  0.23988195307E+03  0.00000000000E+00 0. -1.
         -6    2    1    2    0  503 -0.23391638169E+03  0.74951523677E+02  0.76247046139E+02  0.30885366691E+03  0.17100400871E+03 0.  0.
        -24    2    3    3    0    0 -0.17041455700E+03  0.65384391258E+02 -0.12465250324E+02  0.19923627182E+03  0.78888970630E+02 0.  0.
          6    2    1    2  501    0  0.23391638169E+03 -0.74951523677E+02  0.57363634002E+02  0.30452091937E+03  0.17061007973E+03 0.  0.
         24    2    5    5    0    0  0.20369907485E+03 -0.21578397093E+02 -0.97534658542E+00  0.21974295685E+03  0.79542915878E+02 0.  0.
          5    1    5    5  501    0  0.30217306840E+02 -0.53373126584E+02  0.58338980588E+02  0.84777962526E+02  0.47000000000E+01 0. -1.
        -11    1    6    6    0    0  0.17157190893E+03 -0.40674859122E+02  0.19030079704E+02  0.17735136884E+03  0.00000000000E+00 0.  1.
         12    1    6    6    0    0  0.32127165924E+02  0.19096462028E+02 -0.20005426290E+02  0.42391588003E+02  0.00000000000E+00 0. -1.
         -5    1    3    3    0  503 -0.63501824693E+02  0.95671324195E+01  0.88712296463E+02  0.10961739509E+03  0.47000000000E+01 0.  1.
         13    1    4    4    0    0 -0.28711257513E+02  0.43172430056E+02 -0.20080763566E+02  0.55600648291E+02  0.00000000000E+00 0. -1.
        -14    1    4    4    0    0 -0.14170329949E+03  0.22211961201E+02  0.76155132425E+01  0.14363562353E+03  0.00000000000E+00 0.  1.
</event>
<event>
12    1  0.1061634E+000  0.2191345E+03  0.7818608E-02  0.1134636E+00
         21   -1    0    0  501  502  0.00000000000E+00  0.00000000000E+00  0.99618477810E+02  0.99618477810E+02  0.00000000000E+00 0.  1.
         21   -1    0    0  502  503 -0.00000000000E+00 -0.00000000000E+00 -0.50134378329E+03  0.50134378329E+03  0.00000000000E+00 0.  1.
         -6    2    1    2    0  503  0.13121516651E+03 -0.30560535611E+02 -0.13978774085E+03  0.25944914446E+03  0.17211008051E+03 0.  0.
        -24    2    3    3    0    0  0.54285553308E+02  0.48509840234E+02 -0.81854335709E+02  0.13475488174E+03  0.78476875459E+02 0.  0.
          6    2    1    2  501    0 -0.13121516651E+03  0.30560535611E+02 -0.26193756464E+03  0.34151311664E+03  0.17282521462E+03 0.  0.
         24    2    5    5    0    0 -0.12911594405E+03  0.69940456831E+02 -0.24893334153E+03  0.29972334817E+03  0.79395732896E+02 0.  0.
          5    1    5    5  501    0 -0.20992224654E+01 -0.39379921220E+02 -0.13004223104E+02  0.41789768470E+02  0.47000000000E+01 0. -1.
        -13    1    6    6    0    0 -0.61042765697E+02  0.75228658397E+01 -0.16039183163E+03  0.17177995345E+03  0.00000000000E+00 0.  1.
         14    1    6    6    0    0 -0.68073178351E+02  0.62417590991E+02 -0.88541509902E+02  0.12794339472E+03  0.00000000000E+00 0. -1.
         -5    1    3    3    0  503  0.76929613206E+02 -0.79070375845E+02 -0.57933405137E+02  0.12469426272E+03  0.47000000000E+01 0.  1.
         11    1    4    4    0    0  0.21878843565E+02  0.43608481963E+02 -0.24481998880E+01  0.48850559645E+02  0.00000000000E+00 0. -1.
        -12    1    4    4    0    0  0.32406709742E+02  0.49013582707E+01 -0.79406135821E+02  0.85904322099E+02  0.00000000000E+00 0.  1.
</event>
<event>
12    1  0.1061634E+000  0.1971440E+03  0.7818608E-02  0.1152547E+00
         21   -1    0    0  503  502  0.00000000000E+00  0.00000000000E+00  0.10127486391E+03  0.10127486391E+03  0.00000000000E+00 0. -1.
         21   -1    0    0  501  503 -0.00000000000E+00 -0.00000000000E+00 -0.49316412912E+03  0.49316412912E+03  0.00000000000E+00 0. -1.
          6    2    1    2  501    0 -0.81801609524E+02  0.43126019213E+02 -0.54482546657E+02  0.20453386310E+03  0.17411029956E+03 0.  0.
         24    2    3    3    0    0 -0.81323127737E+02  0.67368032752E+02  0.12618178437E+02  0.13303210457E+03  0.79915076659E+02 0.  0.
         -6    2    1    2    0  502  0.81801609524E+02 -0.43126019213E+02 -0.33740671855E+03  0.38990512992E+03  0.17213761867E+03 0.  0.
        -24    2    5    5    0    0 -0.20582292340E+02  0.54145043513E+01 -0.12676333387E+03  0.15067433905E+03  0.78618483960E+02 0.  0.
          5    1    3    3  501    0 -0.47848178731E+00 -0.24242013539E+02 -0.67100725094E+02  0.71501758533E+02  0.47000000000E+01 0. -1.
        -13    1    4    4    0    0 -0.76185198003E+02  0.68145844808E+02 -0.16425696130E+02  0.10352702088E+03  0.00000000000E+00 0.  1.
         14    1    4    4    0    0 -0.51379297336E+01 -0.77781205621E+00  0.29043874567E+02  0.29505083687E+02  0.00000000000E+00 0. -1.
         -5    1    5    5    0  502  0.10238390186E+03 -0.48540523564E+02 -0.21064338469E+03  0.23923079087E+03  0.47000000000E+01 0.  1.
         13    1    6    6    0    0 -0.20839550380E+02  0.40534746422E+02 -0.61334589662E+02  0.76415210636E+02  0.00000000000E+00 0. -1.
        -14    1    6    6    0    0  0.25725803992E+00 -0.35120242071E+02 -0.65428744206E+02  0.74259128416E+02  0.00000000000E+00 0.  1.
</event>
<event>
12    1  0.1061634E+000  0.2432393E+03  0.7818608E-02  0.1118464E+00
         21   -1    0    0  501  502  0.00000000000E+00  0.00000000000E+00  0.79746316950E+03  0.79746316950E+03  0.00000000000E+00 0. -1.
         21   -1    0    0  502  503 -0.00000000000E+00 -0.00000000000E+00 -0.97975091792E+02  0.97975091792E+02  0.00000000000E+00 0. -1.
         -6    2    1    2    0  503 -0.63174790346E+02 -0.15399160579E+03  0.11973665403E+03  0.26672763062E+03  0.17059394428E+03 0.  0.
        -24    2    3    3    0    0 -0.62647152261E+02 -0.19700903825E+02  0.39630447433E+02  0.11028797653E+03  0.79246918580E+02 0.  0.
          6    2    1    2  501    0  0.63174790346E+02  0.15399160579E+03  0.57975142368E+03  0.62871063067E+03  0.17737213726E+03 0.  0.
         24    2    5    5    0    0  0.16615963094E+02  0.47199465189E+01  0.26011577818E+03  0.27284718983E+03  0.80541932024E+02 0.  0.
          5    1    5    5  501    0  0.46558827253E+02  0.14927165927E+03  0.31963564550E+03  0.35586344084E+03  0.47000000000E+01 0. -1.
        -11    1    6    6    0    0  0.36042338688E+02  0.19648437301E+02  0.69918138592E+02  0.81078094272E+02  0.00000000000E+00 0.  1.
         12    1    6    6    0    0 -0.19426375595E+02 -0.14928490782E+02  0.19019763959E+03  0.19176909556E+03  0.00000000000E+00 0. -1.
         -5    1    3    3    0  503 -0.52763808487E+00 -0.13429070197E+03  0.80106206595E+02  0.15643965409E+03  0.47000000000E+01 0.  1.
         11    1    4    4    0    0 -0.14174437540E+02  0.30193513610E+02  0.12436525522E+02  0.35598175666E+02  0.00000000000E+00 0. -1.
        -12    1    4    4    0    0 -0.48472714722E+02 -0.49894417435E+02  0.27193921911E+02  0.74689800860E+02  0.00000000000E+00 0.  1.
</event>
<event>
12    1  0.1061634E+000  0.1851520E+03  0.7818608E-02  0.1163022E+00
         21   -1    0    0  503  502  0.00000000000E+00  0.00000000000E+00  0.51927790705E+02  0.51927790705E+02  0.00000000000E+00 0.  1.
         21   -1    0    0  501  503 -0.00000000000E+00 -0.00000000000E+00 -0.65849090764E+03  0.65849090764E+03  0.00000000000E+00 0.  1.
          6    2    1    2  501    0  0.60456569326E+02 -0.34980030220E+02 -0.30721692255E+03  0.35869696493E+03  0.17147208478E+03 0.  0.
         24    2    3    3    0    0  0.95088737273E+02 -0.42878191025E+02 -0.29063515367E+03  0.31921515823E+03  0.80926617848E+02 0.  0.
         -6    2    1    2    0  502 -0.60456569326E+02  0.34980030220E+02 -0.29934619438E+03  0.35172173341E+03  0.17094278100E+03 0.  0.
        -24    2    5    5    0    0 -0.28657514117E+02 -0.45291921959E+02 -0.17599723564E+03  0.20108368430E+03  0.81160395686E+02 0.  0.
          5    1    3    3  501    0 -0.34632167947E+02  0.78981608047E+01 -0.16581768886E+02  0.39481806699E+02  0.47000000000E+01 0. -1.
        -11    1    4    4    0    0  0.22424908449E+02 -0.49211326971E+02 -0.82274751539E+02  0.98456924398E+02  0.00000000000E+00 0.  1.
         12    1    4    4    0    0  0.72663828823E+02  0.63331359466E+01 -0.20836040213E+03  0.22075823383E+03  0.00000000000E+00 0. -1.
         -5    1    5    5    0  502 -0.31799055208E+02  0.80271952179E+02 -0.12334895874E+03  0.15063804911E+03  0.47000000000E+01 0.  1.
         11    1    6    6    0    0  0.24952842373E+02 -0.13976828519E+02 -0.93863673751E+02  0.98124336064E+02  0.00000000000E+00 0. -1.
        -12    1    6    6    0    0 -0.53610356491E+02 -0.31315093440E+02 -0.82133561888E+02  0.10295934823E+03  0.00000000000E+00 0.  1.
</event>
<event>
12    1  0.1061634E+000  0.2409171E+03  0.7818608E-02  0.1119686E+00
         21   -1    0    0  503  502  0.00000000000E+00  0.00000000000E+00  0.81174442806E+03  0.81174442806E+03  0.00000000000E+00 0. -1.
         21   -1    0    0  501  503 -0.00000000000E+00 -0.00000000000E+00 -0.74439320336E+02  0.74439320336E+02  0.00000000000E+00 0. -1.
          6    2    1    2  501    0 -0.17029329549E+03 -0.17974801261E+02  0.47135553850E+03  0.52935536876E+03  0.16946434077E+03 0.  0.
         24    2    3    3    0    0 -0.56613889584E+02 -0.63350890437E+02  0.26426282623E+03  0.28874888865E+03  0.79514851176E+02 0.  0.
         -6    2    1    2    0  502  0.17029329549E+03  0.17974801261E+02  0.26594956922E+03  0.35682837963E+03  0.16514968717E+03 0.  0.
        -24    2    5    5    0    0  0.14213687356E+03 -0.17585433455E+02  0.26240687590E+03  0.31109048434E+03  0.86068476440E+02 0.  0.
          5    1    3    3  501    0 -0.11367940591E+03  0.45376089176E+02  0.20709271227E+03  0.24060648011E+03  0.47000000000E+01 0. -1.
        -13    1    4    4    0    0  0.75491309772E+01 -0.32494020124E+02  0.33598954641E+02  0.47347021821E+02  0.00000000000E+00 0.  1.
         14    1    4    4    0    0 -0.64163020561E+02 -0.30856870314E+02  0.23066387159E+03  0.24140186683E+03  0.00000000000E+00 0. -1.
         -5    1    5    5    0  502  0.28156421934E+02  0.35560234716E+02  0.35426933217E+01  0.45737895286E+02  0.47000000000E+01 0.  1.
         13    1    6    6    0    0  0.10356552183E+03  0.25991371669E+02  0.19249923523E+03  0.22013024389E+03  0.00000000000E+00 0. -1.
        -14    1    6    6    0    0  0.38571351726E+02 -0.43576805124E+02  0.69907640670E+02  0.90960240451E+02  0.00000000000E+00 0.  1.
</event>
<event>
12    1  0.1061634E+000  0.2259651E+03  0.7818608E-02  0.1129667E+00
         21   -1    0    0  501  502  0.00000000000E+00  0.00000000000E+00  0.99986861596E+03  0.99986861596E+03  0.00000000000E+00 0. -1.
         21   -1    0    0  502  503 -0.00000000000E+00 -0.00000000000E+00 -0.87460586627E+02  0.87460586627E+02  0.00000000000E+00 0. -1.
         -6    2    1    2    0  503  0.14649092399E+03 -0.10774577158E+01  0.10406677220E+03  0.24799861509E+03  0.17091713864E+03 0.  0.
        -24    2    3    3    0    0  0.12267595239E+03  0.19738731265E+02  0.93115220088E+01  0.14799304507E+03  0.79851300163E+02 0.  0.
          6    2    1    2  501    0 -0.14649092399E+03  0.10774577158E+01  0.80834125713E+03  0.83933058750E+03  0.17204503889E+03 0.  0.
         24    2    5    5    0    0 -0.13904304574E+02  0.24315619429E+02  0.40738799146E+03  0.41635915223E+03  0.81273544409E+02 0.  0.
          5    1    5    5  501    0 -0.13258661942E+03 -0.23238161713E+02  0.40095326566E+03  0.42297143527E+03  0.47000000000E+01 0. -1.
        -11    1    6    6    0    0 -0.35493791455E+02  0.64561335603E+00  0.81444688689E+02  0.88845165114E+02  0.00000000000E+00 0.  1.
         12    1    6    6    0    0  0.21589486881E+02  0.23670006073E+02  0.32594330278E+03  0.32751398711E+03  0.00000000000E+00 0. -1.
         -5    1    3    3    0  503  0.23814971598E+02 -0.20816188980E+02  0.94755250194E+02  0.10000557002E+03  0.47000000000E+01 0.  1.
         13    1    4    4    0    0  0.67353019772E+02 -0.14951394954E+02 -0.26034169984E+02  0.73741111263E+02  0.00000000000E+00 0. -1.
        -14    1    4    4    0    0  0.55322932622E+02  0.34690126218E+02  0.35345691993E+02  0.74251933802E+02  0.00000000000E+00 0.  1.
</event>
<event>
12    1  0.1061634E+000  0.3687739E+03  0.7818608E-02  0.1055311E+00
         21   -1    0    0  503  502  0.00000000000E+00  0.00000000000E+00  0.12544964570E+03  0.12544964570E+03  0.00000000000E+00 0.  1.
         21   -1    0    0  501  503 -0.00000000000E+00 -0.00000000000E+00 -0.13985154502E+04  0.13985154502E+04  0.00000000000E+00 0.  1.
          6    2    1    2  501    0  0.27431259188E+03  0.17365373606E+03 -0.27160352466E+03  0.45676273372E+03  0.17164120193E+03 0.  0.
         24    2    3    3    0    0  0.12358515588E+03  0.16750292892E+02 -0.94438680651E+02  0.17614391327E+03  0.80957709411E+02 0.  0.
         -6    2    1    2    0  502 -0.27431259188E+03 -0.17365373606E+03 -0.10014622799E+04  0.10672023622E+04  0.17490330409E+03 0.  0.
        -24    2    5    5    0    0 -0.24037445929E+03 -0.13801438773E+03 -0.96071226362E+03  0.10031351021E+04  0.80524081477E+02 0.  0.
          5    1    3    3  501    0  0.15072743599E+03  0.15690344317E+03 -0.17716484401E+03  0.28061882045E+03  0.47000000000E+01 0. -1.
        -13    1    4    4    0    0  0.69603391962E+02 -0.30807772933E+02 -0.56621455930E+02  0.94866961147E+02  0.00000000000E+00 0.  1.
         14    1    4    4    0    0  0.53981763920E+02  0.47558065825E+02 -0.37817224722E+02  0.81276952124E+02  0.00000000000E+00 0. -1.
         -5    1    5    5    0  502 -0.33938132592E+02 -0.35639348326E+02 -0.40750016252E+02  0.64067260105E+02  0.47000000000E+01 0.  1.
         13    1    6    6    0    0 -0.15556400264E+03 -0.12248595907E+03 -0.58290749220E+03  0.61561685613E+03  0.00000000000E+00 0. -1.
        -14    1    6    6    0    0 -0.84810456646E+02 -0.15528428661E+02 -0.37780477141E+03  0.38751824597E+03  0.00000000000E+00 0.  1.
</event>
<event>
12    1  0.1061634E+000  0.3937878E+03  0.7818608E-02  0.1046199E+00
         21   -1    0    0  501  502  0.00000000000E+00  0.00000000000E+00  0.36540973132E+03  0.36540973132E+03  0.00000000000E+00 0.  1.
         21   -1    0    0  502  503 -0.00000000000E+00 -0.00000000000E+00 -0.44365884851E+03  0.44365884851E+03  0.00000000000E+00 0.  1.
         -6    2    1    2    0  503  0.35060708259E+03 -0.43912497554E+02  0.51413463523E+02  0.39712993719E+03  0.17382522537E+03 0.  0.
        -24    2    3    3    0    0  0.26755226939E+03 -0.86181775480E+02  0.23706292721E+01  0.29171606977E+03  0.77981601668E+02 0.  0.
          6    2    1    2  501    0 -0.35060708259E+03  0.43912497554E+02 -0.12966258072E+03  0.41193864265E+03  0.16741393807E+03 0.  0.
         24    2    5    5    0    0 -0.31212783246E+03  0.10818142640E+01 -0.14265919272E+03  0.35272612669E+03  0.81480801839E+02 0.  0.
          5    1    5    5  501    0 -0.38479250133E+02  0.42830683290E+02  0.12996612000E+02  0.59212515952E+02  0.47000000000E+01 0. -1.
        -13    1    6    6    0    0 -0.17456698190E+03 -0.37387006161E+02 -0.94454288114E+02  0.20197284952E+03  0.00000000000E+00 0.  1.
         14    1    6    6    0    0 -0.13756085056E+03  0.38468820425E+02 -0.48204904602E+02  0.15075327718E+03  0.00000000000E+00 0. -1.
         -5    1    3    3    0  503  0.83054813201E+02  0.42269277926E+02  0.49042834251E+02  0.10541386742E+03  0.47000000000E+01 0.  1.
         13    1    4    4    0    0  0.14065459797E+03 -0.43988192607E+01 -0.31612304227E+00  0.14072372037E+03  0.00000000000E+00 0. -1.
        -14    1    4    4    0    0  0.12689767143E+03 -0.81782956219E+02  0.26867523144E+01  0.15099234941E+03  0.00000000000E+00 0.  1.
</event>
<event>
12    1  0.1061634E+000  0.2494981E+03  0.7818608E-02  0.1114454E+00
         21   -1    0    0  501  502  0.00000000000E+00  0.00000000000E+00  0.72138082432E+02  0.72138082432E+02  0.00000000000E+00 0.  1.
         21   -1    0    0  502  503 -0.00000000000E+00 -0.00000000000E+00 -0.85578270324E+03  0.85578270324E+03  0.00000000000E+00 0.  1.
         -6    2    1    2    0  503  0.15767067557E+03 -0.85986695614E+02 -0.44783335509E+03  0.51264412033E+03  0.17319216615E+03 0.  0.
        -24    2    3    3    0    0  0.16574387944E+03 -0.38230287518E+02 -0.27413156176E+03  0.33225494620E+03  0.79452172216E+02 0.  0.
          6    2    1    2  501    0 -0.15767067557E+03  0.85986695614E+02 -0.33581126572E+03  0.41527666535E+03  0.16562532668E+03 0.  0.
         24    2    5    5    0    0 -0.16240671871E+02  0.63550955279E+00 -0.81326840508E+02  0.11184350370E+03  0.75038330461E+02 0.  0.
          5    1    5    5  501    0 -0.14143000370E+03  0.85351186061E+02 -0.25448442521E+03  0.30343316164E+03  0.47000000000E+01 0. -1.
        -13    1    6    6    0    0 -0.24981560573E+02  0.64134049644E+01  0.38036386774E+01  0.26070630969E+02  0.00000000000E+00 0.  1.
         14    1    6    6    0    0  0.87408887028E+01 -0.57778954116E+01 -0.85130479186E+02  0.85772872734E+02  0.00000000000E+00 0. -1.
         -5    1    3    3    0  503 -0.80732038641E+01 -0.47756408096E+02 -0.17370179333E+03  0.18038917412E+03  0.47000000000E+01 0.  1.
         13    1    4    4    0    0  0.14976177634E+03 -0.39640371862E+02 -0.18321093584E+03  0.23992956414E+03  0.00000000000E+00 0. -1.
        -14    1    4    4    0    0  0.15982103099E+02  0.14100843444E+01 -0.90920625915E+02  0.92325382068E+02  0.00000000000E+00 0.  1.
</event>
<event>
12    1  0.1061634E+000  0.2748956E+03  0.7818608E-02  0.1098624E+00
         21   -1    0    0  503  502  0.00000000000E+00  0.00000000000E+00  0.60428932536E+03  0.60428932536E+03  0.00000000000E+00 0.  1.
         21   -1    0    0  501  503 -0.00000000000E+00 -0.00000000000E+00 -0.12626958171E+03  0.12626958171E+03  0.00000000000E+00 0.  1.
          6    2    1    2  501    0  0.19858665469E+03 -0.80222493452E+02  0.19770008126E+03  0.33794367974E+03  0.17102134566E+03 0.  0.
         24    2    3    3    0    0  0.19083687408E+03 -0.11089400433E+03  0.14504128992E+03  0.27633329925E+03  0.81282985839E+02 0.  0.
         -6    2    1    2    0  502 -0.19858665469E+03  0.80222493452E+02  0.28031966239E+03  0.39261522733E+03  0.17232323039E+03 0.  0.
        -24    2    5    5    0    0 -0.21521918116E+02  0.57993000728E+02  0.55386380593E+02  0.10545126277E+03  0.65007203991E+02 0.  0.
          5    1    3    3  501    0  0.77497806108E+01  0.30671510881E+02  0.52658791337E+02  0.61610380492E+02  0.47000000000E+01 0. -1.
        -11    1    4    4    0    0  0.13279296583E+03 -0.53589983557E+02  0.51386195031E+02  0.15213940697E+03  0.00000000000E+00 0.  1.
         12    1    4    4    0    0  0.58043908246E+02 -0.57304020776E+02  0.93655094889E+02  0.12419389228E+03  0.00000000000E+00 0. -1.
         -5    1    5    5    0  502 -0.17706473657E+03  0.22229492723E+02  0.22493328179E+03  0.28716396456E+03  0.47000000000E+01 0.  1.
         13    1    6    6    0    0 -0.74512790045E+01  0.46670541598E+02  0.68436133962E+02  0.83169498276E+02  0.00000000000E+00 0. -1.
        -14    1    6    6    0    0 -0.14070639112E+02  0.11322459130E+02 -0.13049753369E+02  0.22281764489E+02  0.00000000000E+00 0.  1.
</event>
<event>
12    1  0.1061634E+000  0.2182817E+03  0.7818608E-02  0.1135484E+00
         21   -1    0    0  501  502  0.00000000000E+00  0.00000000000E+00  0.11455689792E+04  0.11455689792E+04  0.00000000000E+00 0.  1.
         21   -1    0    0  502  503 -0.00000000000E+00 -0.00000000000E+00 -0.51078844529E+02  0.51078844529E+02  0.00000000000E+00 0.  1.
         -6    2    1    2    0  503 -0.39068235696E+02  0.12634965538E+03  0.80766166591E+03  0.83620716830E+03  0.17156485441E+03 0.  0.
        -24    2    3    3    0    0 -0.29274130225E+02  0.15433408291E+03  0.53492862144E+03  0.56182703739E+03  0.69462263582E+02 0.  0.
          6    2    1    2  501    0  0.39068235696E+02 -0.12634965538E+03  0.28682846881E+03  0.36044065548E+03  0.17365578928E+03 0.  0.
         24    2    5    5    0    0 -0.17667922524E+02 -0.23653780526E+02  0.50839258052E+02  0.96853038255E+02  0.76968981028E+02 0.  0.
          5    1    5    5  501    0  0.56736158220E+02 -0.10269587486E+03  0.23598921075E+03  0.26358761723E+03  0.47000000000E+01 0. -1.
        -11    1    6    6    0    0 -0.32872459237E+02 -0.42523630765E+02  0.48693037572E+02  0.72524958860E+02  0.00000000000E+00 0.  1.
         12    1    6    6    0    0  0.15204536713E+02  0.18869850239E+02  0.21462204806E+01  0.24328079395E+02  0.00000000000E+00 0. -1.
         -5    1    3    3    0  503 -0.97941054710E+01 -0.27984427530E+02  0.27273304447E+03  0.27438013090E+03  0.47000000000E+01 0.  1.
         13    1    4    4    0    0 -0.32645352540E+02  0.83227539268E+02  0.39307615210E+03  0.40311462847E+03  0.00000000000E+00 0. -1.
        -14    1    4    4    0    0  0.33712223147E+01  0.71106543646E+02  0.14185246934E+03  0.15871240892E+03  0.00000000000E+00 0.  1.
</event>
<event>
12    1  0.1061634E+000  0.3104288E+03  0.7818608E-02  0.1080507E+00
         21   -1    0    0  501  502  0.00000000000E+00  0.00000000000E+00  0.15891441969E+03  0.15891441969E+03  0.00000000000E+00 0. -1.
         21   -1    0    0  502  503 -0.00000000000E+00 -0.00000000000E+00 -0.64745986058E+03  0.64745986058E+03  0.00000000000E+00 0. -1.
         -6    2    1    2    0  503 -0.25114434825E+03 -0.41925517424E+02 -0.13452869890E+03  0.33553049324E+03  0.17219613351E+03 0.  0.
        -24    2    3    3    0    0 -0.86595552765E+02 -0.72710707366E+02 -0.43072675187E+02  0.14471558740E+03  0.79383305335E+02 0.  0.
          6    2    1    2  501    0  0.25114434825E+03  0.41925517424E+02 -0.35401674198E+03  0.47084378703E+03  0.17758036351E+03 0.  0.
         24    2    5    5    0    0  0.23036082815E+03 -0.15303547925E+02 -0.31588993574E+03  0.39885167647E+03  0.77433187919E+02 0.  0.
          5    1    5    5  501    0  0.20783520099E+02  0.57229065349E+02 -0.38126806241E+02  0.71992110558E+02  0.47000000000E+01 0. -1.
        -11    1    6    6    0    0  0.67185617156E+02  0.10827809676E+01 -0.40869728629E+02  0.78647404823E+02  0.00000000000E+00 0.  1.
         12    1    6    6    0    0  0.16317521100E+03 -0.16386328892E+02 -0.27502020711E+03  0.32020427164E+03  0.00000000000E+00 0. -1.
         -5    1    3    3    0  503 -0.16454879549E+03  0.30785189941E+02 -0.91456023716E+02  0.19081490584E+03  0.47000000000E+01 0.  1.
         13    1    4    4    0    0  0.20710054567E+01  0.10230191602E+02 -0.17900406026E+02  0.20721255264E+02  0.00000000000E+00 0. -1.
        -14    1    4    4    0    0 -0.88666558221E+02 -0.82940898967E+02 -0.25172269161E+02  0.12399433214E+03  0.00000000000E+00 0.  1.
</event>
<event>
12    1  0.1061634E+000  0.1936389E+03  0.7818608E-02  0.1155721E+00
         21   -1    0    0  503  502  0.00000000000E+00  0.00000000000E+00  0.61830813611E+02  0.61830813611E+02  0.00000000000E+00 0. -1.
         21   -1    0    0  501  503 -0.00000000000E+00 -0.00000000000E+00 -0.70017681637E+03  0.70017681637E+03  0.00000000000E+00 0. -1.
          6    2    1    2  501    0  0.45917094752E+02 -0.73101430220E+02 -0.46213731589E+03  0.50019562293E+03  0.17079977685E+03 0.  0.
         24    2    3    3    0    0 -0.78057077096E+01 -0.45855909838E+02 -0.41248512711E+03  0.42199148151E+03  0.75954834200E+02 0.  0.
         -6    2    1    2    0  502 -0.45917094752E+02  0.73101430220E+02 -0.17620868687E+03  0.26181200705E+03  0.17333155228E+03 0.  0.
        -24    2    5    5    0    0 -0.29796986583E+01  0.66424627193E+02 -0.29409220163E+02  0.10864421308E+03  0.80731363821E+02 0.  0.
          5    1    3    3  501    0  0.53722802462E+02 -0.27245520382E+02 -0.49652188774E+02  0.78204141421E+02  0.47000000000E+01 0. -1.
        -13    1    4    4    0    0  0.27994611983E+02 -0.21547555451E+02 -0.91161804198E+02  0.97767428066E+02  0.00000000000E+00 0.  1.
         14    1    4    4    0    0 -0.35800319693E+02 -0.24308354387E+02 -0.32132332291E+03  0.32422405344E+03  0.00000000000E+00 0. -1.
         -5    1    5    5    0  502 -0.42937396094E+02  0.66768030274E+01 -0.14679946671E+03  0.15316779396E+03  0.47000000000E+01 0.  1.
         13    1    6    6    0    0 -0.13535099904E+02  0.34166592612E+02  0.25049105943E+02  0.44474854566E+02  0.00000000000E+00 0. -1.
        -14    1    6    6    0    0  0.10555401246E+02  0.32258034581E+02 -0.54458326106E+02  0.64169358519E+02  0.00000000000E+00 0.  1.
</event>
<event>
12    1  0.1061634E+000  0.1728177E+03  0.7818608E-02  0.1175064E+00
         21   -1    0    0  501  502  0.00000000000E+00  0.00000000000E+00  0.86955700756E+03  0.86955700756E+03  0.00000000000E+00 0.  1.
         21   -1    0    0  502  503 -0.00000000000E+00 -0.00000000000E+00 -0.34377983376E+02  0.34377983376E+02  0.00000000000E+00 0.  1.
         -6    2    1    2    0  503 -0.17320629293E+02 -0.13670687848E+02  0.39067263194E+03  0.42718971083E+03  0.17140318488E+03 0.  0.
        -24    2    3    3    0    0 -0.63148927071E+02  0.36958900312E+00  0.15208213608E+03  0.18378700549E+03  0.81613501865E+02 0.  0.
          6    2    1    2  501    0  0.17320629293E+02  0.13670687848E+02  0.44450639224E+03  0.47674528011E+03  0.17091880368E+03 0.  0.
         24    2    5    5    0    0 -0.29810383984E+02 -0.42409203329E+02  0.20657720990E+03  0.22774995401E+03  0.80676504517E+02 0.  0.
          5    1    5    5  501    0  0.47131013277E+02  0.56079891177E+02  0.23792918235E+03  0.24899532610E+03  0.47000000000E+01 0. -1.
        -11    1    6    6    0    0 -0.10507162245E+02 -0.34666465233E+02  0.22804994745E+02  0.42804579843E+02  0.00000000000E+00 0.  1.
         12    1    6    6    0    0 -0.19303221739E+02 -0.77427380956E+01  0.18377221515E+03  0.18494537416E+03  0.00000000000E+00 0. -1.
         -5    1    3    3    0  503  0.45828297778E+02 -0.14040276851E+02  0.23859049585E+03  0.24340270533E+03  0.47000000000E+01 0.  1.
         13    1    4    4    0    0  0.19988974245E+02  0.90493947319E+00  0.27432809844E+02  0.33954926929E+02  0.00000000000E+00 0. -1.
        -14    1    4    4    0    0 -0.83137901316E+02 -0.53535047008E+00  0.12464932624E+03  0.14983207857E+03  0.00000000000E+00 0.  1.
</event>
<event>
12    1  0.1061634E+000  0.3697499E+03  0.7818608E-02  0.1054814E+00
         21   -1    0    0  501  502  0.00000000000E+00  0.00000000000E+00  0.36642355139E+03  0.36642355139E+03  0.00000000000E+00 0.  1.
         21   -1    0    0  502  503 -0.00000000000E+00 -0.00000000000E+00 -0.46399415634E+03  0.46399415634E+03  0.00000000000E+00 0.  1.
         -6    2    1    2    0  503  0.10764445298E+02 -0.32704071276E+03 -0.23283688076E+03  0.43695309788E+03  0.17217286551E+03 0.  0.
        -24    2    3    3    0    0 -0.17407042805E+02 -0.63443489367E+02 -0.81756209914E+02  0.13178988249E+03  0.79727120761E+02 0.  0.
          6    2    1    2  501    0 -0.10764445298E+02  0.32704071276E+03  0.13526627581E+03  0.39346460985E+03  0.17159817232E+03 0.  0.
         24    2    5    5    0    0 -0.44087818679E+02  0.90033172158E+02  0.69319328542E+02  0.14516215039E+03  0.78849050422E+02 0.  0.
          5    1    5    5  501    0  0.33323373381E+02  0.23700754061E+03  0.65946947269E+02  0.24830245946E+03  0.47000000000E+01 0. -1.
        -11    1    6    6    0    0 -0.27115535336E+02 -0.30997517266E+01 -0.88169653181E+00  0.27306374825E+02  0.00000000000E+00 0.  1.
         12    1    6    6    0    0 -0.16972283343E+02  0.93132923885E+02  0.70201025074E+02  0.11785577557E+03  0.00000000000E+00 0. -1.
         -5    1    3    3    0  503  0.28171488103E+02 -0.26359722340E+03 -0.15108067085E+03  0.30516321539E+03  0.47000000000E+01 0.  1.
         13    1    4    4    0    0 -0.13223841055E+02 -0.67252454229E+02 -0.22316912094E+02  0.72081947376E+02  0.00000000000E+00 0. -1.
        -14    1    4    4    0    0 -0.41832017505E+01  0.38089648617E+01 -0.59439297821E+02  0.59707935115E+02  0.00000000000E+00 0.  1.
</event>
<event>
12    1  0.1061634E+000  0.2316059E+03  0.7818608E-02  0.1126529E+00
         21   -1    0    0  503  502  0.00000000000E+00  0.00000000000E+00  0.23913275824E+04  0.23913275824E+04  0.00000000000E+00 0.  1.
         21   -1    0    0  501  503 -0.00000000000E+00 -0.00000000000E+00 -0.22329577994E+02  0.22329577994E+02  0.00000000000E+00 0.  1.
          6    2    1    2  501    0 -0.13205971204E+03 -0.66252610882E+02  0.99859590194E+03  0.10238214793E+04  0.17084340837E+03 0.  0.
         24    2    3    3    0    0 -0.50821922266E+02 -0.16265660890E+02  0.27479143263E+03  0.29374389891E+03  0.89037672863E+02 0.  0.
         -6    2    1    2    0  502  0.13205971204E+03  0.66252610882E+02  0.13704021025E+04  0.13898356811E+04  0.17835952991E+03 0.  0.
        -24    2    5    5    0    0  0.13089184279E+03  0.13532045844E+02  0.69517929001E+03  0.71254050290E+03  0.84403389978E+02 0.  0.
          5    1    3    3  501    0 -0.81237789772E+02 -0.49986949993E+02  0.72380446931E+03  0.73007758043E+03  0.47000000000E+01 0. -1.
        -13    1    4    4    0    0 -0.49444355175E+02 -0.21376994845E+02  0.67383918496E+02  0.86268839329E+02  0.00000000000E+00 0.  1.
         14    1    4    4    0    0 -0.13775670910E+01  0.51113339554E+01  0.20740751414E+03  0.20747505958E+03  0.00000000000E+00 0. -1.
         -5    1    5    5    0  502  0.11678692469E+01  0.52720565039E+02  0.67522281245E+03  0.67729517815E+03  0.47000000000E+01 0.  1.
         11    1    6    6    0    0  0.92778466867E+02 -0.29971544160E+02  0.47403221792E+03  0.48395524690E+03  0.00000000000E+00 0. -1.
        -12    1    6    6    0    0  0.38113375925E+02  0.43503590004E+02  0.22114707209E+03  0.22858525600E+03  0.00000000000E+00 0.  1.
</event>
<event>
12    1  0.1061634E+000  0.2418163E+03  0.7818608E-02  0.1118778E+00
         21   -1    0    0  501  502  0.00000000000E+00  0.00000000000E+00  0.17232493549E+03  0.17232493549E+03  0.00000000000E+00 0. -1.
         21   -1    0    0  502  503 -0.00000000000E+00 -0.00000000000E+00 -0.55422935354E+03  0.55422935354E+03  0.00000000000E+00 0. -1.
         -6    2    1    2    0  503  0.20940876748E+02  0.16843727212E+03  0.35822004254E+02  0.24445515170E+03  0.17223666928E+03 0.  0.
        -24    2    3    3    0    0  0.29961190294E+02  0.51081062832E+02  0.70659488958E+02  0.12161547465E+03  0.79313380913E+02 0.  0.
          6    2    1    2  501    0 -0.20940876748E+02 -0.16843727212E+03 -0.41772642230E+03  0.48209913734E+03  0.17062994865E+03 0.  0.
         24    2    5    5    0    0 -0.58507586891E+02 -0.51934446391E+02 -0.14262800576E+03  0.18095897911E+03  0.79265879468E+02 0.  0.
          5    1    5    5  501    0  0.37566710143E+02 -0.11650282573E+03 -0.27509841654E+03  0.30114015823E+03  0.47000000000E+01 0. -1.
        -11    1    6    6    0    0 -0.35955584328E+02 -0.72406684510E+02 -0.10641035216E+03  0.13363642861E+03  0.00000000000E+00 0.  1.
         12    1    6    6    0    0 -0.22552002562E+02  0.20472238118E+02 -0.36217653600E+02  0.47322550496E+02  0.00000000000E+00 0. -1.
         -5    1    3    3    0  503 -0.90203135459E+01  0.11735620929E+03 -0.34837484704E+02  0.12283967704E+03  0.47000000000E+01 0.  1.
         11    1    4    4    0    0  0.46403365270E+02  0.45662373332E+02  0.79025254553E+02  0.10238806329E+03  0.00000000000E+00 0. -1.
        -12    1    4    4    0    0 -0.16442174976E+02  0.54186895008E+01 -0.83657655956E+01  0.19227411367E+02  0.00000000000E+00 0.  1.
</event>
<event>
12    1  0.1061634E+000  0.3567162E+03  0.7818608E-02  0.1060068E+00
         21   -1    0    0  503  502  0.00000000000E+00  0.00000000000E+00  0.82888051346E+03  0.82888051346E+03  0.00000000000E+00 0. -1.
         21   -1    0    0  501  503 -0.00000000000E+00 -0.00000000000E+00 -0.16492634359E+03  0.16492634359E+03  0.00000000000E+00 0. -1.
          6    2    1    2  501    0  0.13453301259E+03  0.28078709557E+03  0.19777556508E+03  0.40787452483E+03  0.17408598262E+03 0.  0.
         24    2    3    3    0    0  0.90551715389E+02  0.20673150758E+03  0.61191415048E+02  0.24633225588E+03  0.77444571309E+02 0.  0.
         -6    2    1    2    0  502 -0.13453301259E+03 -0.28078709557E+03  0.46617860479E+03  0.58593233222E+03  0.17045140617E+03 0.  0.
        -24    2    5    5    0    0 -0.51343313524E+02 -0.16633531785E+03  0.36201256371E+03  0.41017002236E+03  0.82962504490E+02 0.  0.
          5    1    3    3  501    0  0.43981297204E+02  0.74055587992E+02  0.13658415004E+03  0.16154226895E+03  0.47000000000E+01 0. -1.
        -11    1    4    4    0    0  0.81072518989E+02  0.17579785515E+03  0.79360119730E+02  0.20922635545E+03  0.00000000000E+00 0.  1.
         12    1    4    4    0    0  0.94791963999E+01  0.30933652431E+02 -0.18168704682E+02  0.37105900433E+02  0.00000000000E+00 0. -1.
         -5    1    5    5    0  502 -0.83189699069E+02 -0.11445177773E+03  0.10416604108E+03  0.17576230987E+03  0.47000000000E+01 0.  1.
         11    1    6    6    0    0 -0.51725250587E+01 -0.32869242689E+02  0.16163913401E+03  0.16502833628E+03  0.00000000000E+00 0. -1.
        -12    1    6    6    0    0 -0.46170788465E+02 -0.13346607516E+03  0.20037342969E+03  0.24514168608E+03  0.00000000000E+00 0.  1.
</event>
<event>
12    1  0.1061634E+000  0.1808775E+03  0.7818608E-02  0.1167034E+00
         21   -1    0    0  501  502  0.00000000000E+00  0.00000000000E+00  0.68933176927E+03  0.68933176927E+03  0.00000000000E+00 0.  1.
         21   -1    0    0  502  503 -0.00000000000E+00 -0.00000000000E+00 -0.55378021895E+02  0.55378021895E+02  0.00000000000E+00 0.  1.
         -6    2    1    2    0  503 -0.18513716005E+02 -0.54303360484E+02  0.45875339482E+03  0.49312407729E+03  0.17153735950E+03 0.  0.
        -24    2    3    3    0    0 -0.33879793849E+02 -0.81724811841E+01  0.41025130780E+03  0.42428573900E+03  0.10245790788E+03 0.  0.
          6    2    1    2  501    0  0.18513716005E+02  0.54303360484E+02  0.17520035255E+03  0.25158571387E+03  0.17119753284E+03 0.  0.
         24    2    5    5    0    0  0.13964921195E+02 -0.29666052851E+02  0.13606648118E+03  0.15871427694E+03  0.74840100799E+02 0.  0.
          5    1    5    5  501    0  0.45487948091E+01  0.83969413335E+02  0.39133871378E+02  0.92871436939E+02  0.47000000000E+01 0. -1.
        -13    1    6    6    0    0  0.51558028811E+01  0.12905717893E+02  0.10341459765E+03  0.10434423254E+03  0.00000000000E+00 0.  1.
         14    1    6    6    0    0  0.88091183144E+01 -0.42571770744E+02  0.32651883531E+02  0.54370044398E+02  0.00000000000E+00 0. -1.
         -5    1    3    3    0  503  0.15366077845E+02 -0.46130879300E+02  0.48502087026E+02  0.68838338295E+02  0.47000000000E+01 0.  1.
         13    1    4    4    0    0 -0.25703512512E+02 -0.29866416898E+02  0.51792103820E+02  0.65077610834E+02  0.00000000000E+00 0. -1.
        -14    1    4    4    0    0 -0.81762813371E+01  0.21693935714E+02  0.35845920398E+03  0.35920812816E+03  0.00000000000E+00 0.  1.
</event>
<event>
12    1  0.1061634E+000  0.2771925E+03  0.7818608E-02  0.1097263E+00
         21   -1    0    0  503  502  0.00000000000E+00  0.00000000000E+00  0.39183410285E+03  0.39183410285E+03  0.00000000000E+00 0.  1.
         21   -1    0    0  501  503 -0.00000000000E+00 -0.00000000000E+00 -0.20718888244E+03  0.20718888244E+03  0.00000000000E+00 0.  1.
          6    2    1    2  501    0  0.20081660184E+03  0.81705919877E+02  0.16216453548E+03  0.32114328012E+03  0.17272088722E+03 0.  0.
         24    2    3    3    0    0  0.42901397450E+02 -0.21791365366E+02  0.84191082590E+02  0.11681303472E+03  0.65128743159E+02 0.  0.
         -6    2    1    2    0  502 -0.20081660184E+03 -0.81705919877E+02  0.22480684936E+02  0.27787970517E+03  0.17236178356E+03 0.  0.
        -24    2    5    5    0    0 -0.72887231683E+02 -0.76594070358E+01 -0.44237809573E+02  0.11563835002E+03  0.77743354314E+02 0.  0.
          5    1    3    3  501    0  0.15791520439E+03  0.10349728524E+03  0.77973452886E+02  0.20433024540E+03  0.47000000000E+01 0. -1.
        -13    1    4    4    0    0  0.47114164007E+02 -0.15909328516E+02  0.92971949528E+02  0.10543545221E+03  0.00000000000E+00 0.  1.
         14    1    4    4    0    0 -0.42127665573E+01 -0.58820368496E+01 -0.87808669387E+01  0.11377582510E+02  0.00000000000E+00 0. -1.
         -5    1    5    5    0  502 -0.12792937015E+03 -0.74046512841E+02  0.66718494509E+02  0.16224135515E+03  0.47000000000E+01 0.  1.
         11    1    6    6    0    0 -0.32343760326E+02 -0.45042944804E+01  0.20955676353E+02  0.38801390081E+02  0.00000000000E+00 0. -1.
        -12    1    6    6    0    0 -0.40543471357E+02 -0.31551125555E+01 -0.65193485926E+02  0.76836959935E+02  0.00000000000E+00 0.  1.
</event>
<event>
12    1  0.1061634E+000  0.2495941E+03  0.7818608E-02  0.1113620E+00
         21   -1    0    0  501  502  0.00000000000E+00  0.00000000000E+00  0.28561485005E+03  0.28561485005E+03  0.00000000000E+00 0. -1.
         21   -1    0    0  502  503 -0.00000000000E+00 -0.00000000000E+00 -0.21780912936E+03  0.21780912936E+03  0.00000000000E+00 0.  1.
         -6    2    1    2    0  503  0.11353696592E+03 -0.14073818121E+03  0.31903364937E+02  0.25162479450E+03  0.17204457049E+03 0.  0.
        -24    2    3    3    0    0  0.11211640881E+03 -0.35918966214E+02  0.27474433092E+01  0.14271545799E+03  0.80621909215E+02 0.  0.
          6    2    1    2  501    0 -0.11353696592E+03  0.14073818121E+03  0.35902355754E+02  0.25179918490E+03  0.17151085123E+03 0.  0.
         24    2    5    5    0    0 -0.93511165575E+02  0.16919907629E+03  0.47254042925E+02  0.21489381903E+03  0.81078624660E+02 0.  0.
          5    1    5    5  501    0 -0.20025800341E+02 -0.28460895089E+02 -0.11351687171E+02  0.36905365872E+02  0.47000000000E+01 0. -1.
        -13    1    6    6    0    0 -0.15451671477E+02 -0.68504680801E+01  0.16043948764E+01  0.16978137332E+02  0.00000000000E+00 0.  1.
         14    1    6    6    0    0 -0.78059494098E+02  0.17604954437E+03  0.45649648049E+02  0.19791568169E+03  0.00000000000E+00 0. -1.
         -5    1    3    3    0  503  0.14205571038E+01 -0.10481921499E+03  0.29155921627E+02  0.10890933651E+03  0.47000000000E+01 0.  1.
         13    1    4    4    0    0  0.42146402411E+02 -0.30880293346E+02 -0.35160080749E+02  0.62977321566E+02  0.00000000000E+00 0. -1.
        -14    1    4    4    0    0  0.69970006402E+02 -0.50386728682E+01  0.37907524058E+02  0.79738136424E+02  0.00000000000E+00 0.  1.
</event>
<event>
12    1  0.1061634E+000  0.3670539E+03  0.7818608E-02  0.1055849E+00
         21   -1    0    0  501  502  0.00000000000E+00  0.00000000000E+00  0.16808730625E+03  0.16808730625E+03  0.00000000000E+00 0. -1.
         21   -1    0    0  502  503 -0.00000000000E+00 -0.00000000000E+00 -0.90471928424E+03  0.90471928424E+03  0.00000000000E+00 0. -1.
         -6    2    1    2    0  503 -0.13677673617E+03 -0.29402919211E+03 -0.18659349740E+03  0.41154199710E+03  0.17143115450E+03 0.  0.
        -24    2    3    3    0    0 -0.12028061414E+02 -0.64719064359E+02 -0.78386034252E+02  0.12891802143E+03  0.78372535561E+02 0.  0.
          6    2    1    2  501    0  0.13677673617E+03  0.29402919211E+03 -0.55003848059E+03  0.66126459340E+03  0.17195200197E+03 0.  0.
         24    2    5    5    0    0  0.15637731469E+03  0.27728541459E+03 -0.44422916354E+03  0.55225891309E+03  0.79431049699E+02 0.  0.
          5    1    5    5  501    0 -0.19600578521E+02  0.16743777517E+02 -0.10580931705E+03  0.10900568030E+03  0.47000000000E+01 0. -1.
        -13    1    6    6    0    0  0.74117037978E+02  0.17591692579E+03 -0.31655522636E+03  0.36965837125E+03  0.00000000000E+00 0.  1.
         14    1    6    6    0    0  0.82260276713E+02  0.10136848881E+03 -0.12767393718E+03  0.18260054184E+03  0.00000000000E+00 0. -1.
         -5    1    3    3    0  503 -0.12474867476E+03 -0.22931012775E+03 -0.10820746315E+03  0.28262397567E+03  0.47000000000E+01 0.  1.
         11    1    4    4    0    0 -0.34773512884E+01  0.13123900008E+02 -0.38928295538E+02  0.41227914292E+02  0.00000000000E+00 0. -1.
        -12    1    4    4    0    0 -0.85507101252E+01 -0.77842964367E+02 -0.39457738714E+02  0.87690107136E+02  0.00000000000E+00 0.  1.
</event>
<event>
12    1  0.1061634E+000  0.2452443E+03  0.7818608E-02  0.1116702E+00
         21   -1    0    0  503  502  0.00000000000E+00  0.00000000000E+00  0.15421451218E+04  0.15421451218E+04  0.00000000000E+00 0.  1.
         21   -1    0    0  501  503 -0.00000000000E+00 -0.00000000000E+00 -0.54017208521E+02  0.54017208521E+02  0.00000000000E+00 0. -1.
          6    2    1    2  501    0  0.15471392958E+03 -0.78619282855E+02  0.11672897155E+04  0.11923283129E+04  0.17018852571E+03 0.  0.
         24    2    3    3    0    0  0.55428792858E+02 -0.10188929177E+03  0.60719454088E+03  0.62300614903E+03  0.77444640859E+02 0.  0.
         -6    2    1    2    0  502 -0.15471392958E+03  0.78619282855E+02  0.32083819782E+03  0.40383401742E+03  0.17328408122E+03 0.  0.
        -24    2    5    5    0    0 -0.16648283745E+03  0.25874986763E+02  0.28105494338E+03  0.33656392528E+03  0.76794169684E+02 0.  0.
          5    1    3    3  501    0  0.99285136718E+02  0.23270008915E+02  0.56009517458E+03  0.56932216388E+03  0.47000000000E+01 0. -1.
        -13    1    4    4    0    0  0.51259375574E+02 -0.10744249824E+03  0.60352206074E+03  0.61515062531E+03  0.00000000000E+00 0.  1.
         14    1    4    4    0    0  0.41694172841E+01  0.55532064667E+01  0.36724801322E+01  0.78555237172E+01  0.00000000000E+00 0. -1.
         -5    1    5    5    0  502  0.11768907873E+02  0.52744296092E+02  0.39783254446E+02  0.67270092144E+02  0.47000000000E+01 0.  1.
         13    1    6    6    0    0 -0.15294220374E+03  0.31064557252E+02  0.19729715095E+03  0.25156011245E+03  0.00000000000E+00 0. -1.
        -14    1    6    6    0    0 -0.13540633705E+02 -0.51895704892E+01  0.83757792429E+02  0.85003812829E+02  0.00000000000E+00 0.  1.
</event>
<event>
12    1  0.1061634E+000  0.2612077E+03  0.7818608E-02  0.1106458E+00
         21   -1    0    0  501  502  0.00000000000E+00  0.00000000000E+00  0.12588830340E+03  0.12588830340E+03  0.00000000000E+00 0. -1.
         21   -1    0    0  502  503 -0.00000000000E+00 -0.00000000000E+00 -0.61874631789E+03  0.61874631789E+03  0.00000000000E+00 0. -1.
         -6    2    1    2    0  503  0.74507175219E+02  0.18182189518E+03 -0.11494594571E+03  0.28538048001E+03  0.17210150263E+03 0.  0.
        -24    2    3    3    0    0 -0.78416463989E+01  0.11865705209E+03 -0.20232625921E+02  0.14479659484E+03  0.80098110429E+02 0.  0.
          6    2    1    2  501    0 -0.74507175219E+02 -0.18182189518E+03 -0.37791206878E+03  0.45925414129E+03  0.17171579379E+03 0.  0.
         24    2    5    5    0    0 -0.10028071558E+03 -0.10861640069E+03 -0.32267045330E+03  0.36387570617E+03  0.80221965128E+02 0.  0.
          5    1    5    5  501    0  0.25773540361E+02 -0.73205494483E+02 -0.55241615480E+02  0.95378435121E+02  0.47000000000E+01 0. -1.
        -11    1    6    6    0    0 -0.89077055312E+02 -0.11755820218E+03 -0.25394370269E+03  0.29366997943E+03  0.00000000000E+00 0.  1.
         12    1    6    6    0    0 -0.11203660268E+02  0.89418014858E+01 -0.68726750613E+02  0.70205726739E+02  0.00000000000E+00 0. -1.
         -5    1    3    3    0  503  0.82348821618E+02  0.63164843081E+02 -0.94713319794E+02  0.14058388517E+03  0.47000000000E+01 0.  1.
         11    1    4    4    0    0 -0.11831542776E+01 -0.17440568245E+01  0.18133231050E+02  0.18255291194E+02  0.00000000000E+00 0. -1.
        -12    1    4    4    0    0 -0.66584921213E+01  0.12040110892E+03 -0.38365856971E+02  0.12654130364E+03  0.00000000000E+00 0.  1.
</event>
<event>
12    1  0.1061634E+000  0.2658020E+03  0.7818608E-02  0.1103804E+00
         21   -1    0    0  503  502  0.00000000000E+00  0.00000000000E+00  0.28373654004E+03  0.28373654004E+03  0.00000000000E+00 0. -1.
         21   -1    0    0  501  503 -0.00000000000E+00 -0.00000000000E+00 -0.25731193376E+03  0.25731193376E+03  0.00000000000E+00 0. -1.
          6    2    1    2  501    0 -0.54380106540E+02  0.19411696833E+03 -0.37183404412E+02  0.26839024094E+03  0.17324007183E+03 0.  0.
         24    2    3    3    0    0 -0.46968657153E+02  0.19651509051E+03 -0.73191548488E+02  0.23125054504E+03  0.85414145531E+02 0.  0.
         -6    2    1    2    0  502  0.54380106540E+02 -0.19411696833E+03  0.63608010690E+02  0.27265823287E+03  0.17221480640E+03 0.  0.
        -24    2    5    5    0    0  0.63586576199E+02 -0.50370417139E+02 -0.42023684542E+01  0.11338435685E+03  0.79107021694E+02 0.  0.
          5    1    3    3  501    0 -0.74114493870E+01 -0.23981221796E+01  0.36008144077E+02  0.37139695904E+02  0.47000000000E+01 0. -1.
        -11    1    4    4    0    0  0.93805073267E+01  0.10294710346E+03 -0.71698569051E+01  0.10362194206E+03  0.00000000000E+00 0.  1.
         12    1    4    4    0    0 -0.56349164480E+02  0.93567987053E+02 -0.66021691583E+02  0.12762860298E+03  0.00000000000E+00 0. -1.
         -5    1    5    5    0  502 -0.92064696586E+01 -0.14374655119E+03  0.67810379144E+02  0.15927387602E+03  0.47000000000E+01 0.  1.
         11    1    6    6    0    0  0.34452302833E+02 -0.30824650836E+02 -0.41539724379E+02  0.62150373862E+02  0.00000000000E+00 0. -1.
        -12    1    6    6    0    0  0.29134273366E+02 -0.19545766304E+02  0.37337355925E+02  0.51233982984E+02  0.00000000000E+00 0.  1.
</event>
<event>
12    1  0.1061634E+000  0.2181021E+03  0.7818608E-02  0.1135466E+00
         21   -1    0    0  503  502  0.00000000000E+00  0.00000000000E+00  0.97831606492E+02  0.97831606492E+02  0.00000000000E+00 0. -1.
         21   -1    0    0  501  503 -0.00000000000E+00 -0.00000000000E+00 -0.50550797450E+03  0.50550797450E+03  0.00000000000E+00 0. -1.
          6    2    1    2  501    0  0.75517965791E+02  0.10998761535E+03 -0.14248736000E+03  0.26052093180E+03  0.17253483549E+03 0.  0.
         24    2    3    3    0    0  0.61362781897E+02  0.57640414008E+02 -0.74147203597E+01  0.11489364487E+03  0.77831633828E+02 0.  0.
         -6    2    1    2    0  502 -0.75517965791E+02 -0.10998761535E+03 -0.26518900801E+03  0.34281864919E+03  0.17146188375E+03 0.  0.
        -24    2    5    5    0    0 -0.27957354525E+02 -0.74982298080E+02 -0.25996988903E+03  0.28334837776E+03  0.79359947601E+02 0.  0.
          5    1    3    3  501    0  0.14155183894E+02  0.52347201338E+02 -0.13507263964E+03  0.14562728693E+03  0.47000000000E+01 0. -1.
        -11    1    4    4    0    0  0.59887014439E+02  0.48530417650E+02 -0.35840671769E+02  0.85007115517E+02  0.00000000000E+00 0.  1.
         12    1    4    4    0    0  0.14757674577E+01  0.91099963585E+01  0.28425951409E+02  0.29886529353E+02  0.00000000000E+00 0. -1.
         -5    1    5    5    0  502 -0.47560611266E+02 -0.35005317267E+02 -0.52191189810E+01  0.59470271430E+02  0.47000000000E+01 0.  1.
         13    1    6    6    0    0  0.21645069969E+02 -0.13277276958E+02 -0.25982865481E+02  0.36330489069E+02  0.00000000000E+00 0. -1.
        -14    1    6    6    0    0 -0.49602424493E+02 -0.61705021122E+02 -0.23398702355E+03  0.24701788870E+03  0.00000000000E+00 0.  1.
</event>
<event>
12    1  0.1061634E+000  0.1862047E+03  0.7818608E-02  0.1162559E+00
         21   -1    0    0  503  502  0.00000000000E+00  0.00000000000E+00  0.13279427218E+03  0.13279427218E+03  0.00000000000E+00 0.  1.
         21   -1    0    0  501  503 -0.00000000000E+00 -0.00000000000E+00 -0.35864952225E+03  0.35864952225E+03  0.00000000000E+00 0.  1.
          6    2    1    2  501    0  0.30803518618E+02 -0.50051969556E+02  0.17082136428E+02  0.18698661998E+03  0.17668655934E+03 0.  0.
         24    2    3    3    0    0 -0.89701304160E+01 -0.21813713052E+02 -0.54057314397E+02  0.10060228256E+03  0.81500458282E+02 0.  0.
         -6    2    1    2    0  502 -0.30803518618E+02  0.50051969556E+02 -0.24293738651E+03  0.30445717444E+03  0.17384343788E+03 0.  0.
        -24    2    5    5    0    0 -0.31952347806E+01  0.67594169938E+02 -0.63285769038E+02  0.12179152417E+03  0.79050018738E+02 0.  0.
          5    1    3    3  501    0  0.39773649034E+02 -0.28238256504E+02  0.71139450825E+02  0.86384337420E+02  0.47000000000E+01 0. -1.
        -11    1    4    4    0    0  0.14453338157E+02  0.11817137486E+02  0.12479350143E+02  0.22456132843E+02  0.00000000000E+00 0.  1.
         12    1    4    4    0    0 -0.23423468573E+02 -0.33630850538E+02 -0.66536664540E+02  0.78146149720E+02  0.00000000000E+00 0. -1.
         -5    1    5    5    0  502 -0.27608283837E+02 -0.17542200383E+02 -0.17965161747E+03  0.18266565027E+03  0.47000000000E+01 0.  1.
         13    1    6    6    0    0  0.12345757321E+02  0.78352419766E+02 -0.65357349816E+02  0.10277695550E+03  0.00000000000E+00 0. -1.
        -14    1    6    6    0    0 -0.15540992102E+02 -0.10758249828E+02  0.20715807774E+01  0.19014568672E+02  0.00000000000E+00 0.  1.
</event>
<event>
12    1  0.1061634E+000  0.2823417E+03  0.7818608E-02  0.1094512E+00
         21   -1    0    0  503  502  0.00000000000E+00  0.00000000000E+00  0.40067071897E+03  0.40067071897E+03  0.00000000000E+00 0.  1.
         21   -1    0    0  501  503 -0.00000000000E+00 -0.00000000000E+00 -0.21856028575E+03  0.21856028575E+03  0.00000000000E+00 0.  1.
          6    2    1    2  501    0 -0.20317273972E+03  0.90798839820E+02 -0.29392962237E+01  0.28165102460E+03  0.17261248134E+03 0.  0.
         24    2    3    3    0    0 -0.54529428019E+02  0.52831466266E+02 -0.49952601623E+02  0.12112471381E+03  0.80070665914E+02 0.  0.
         -6    2    1    2    0  502  0.20317273972E+03 -0.90798839820E+02  0.18504972944E+03  0.33757998011E+03  0.17376204743E+03 0.  0.
        -24    2    5    5    0    0  0.49089573223E+02 -0.78617457754E+02  0.45709243918E+02  0.12942650507E+03  0.77919152787E+02 0.  0.
          5    1    3    3  501    0 -0.14864331170E+03  0.37967373554E+02  0.47013305399E+02  0.16052631078E+03  0.47000000000E+01 0. -1.
        -13    1    4    4    0    0 -0.27796830270E+01 -0.13975425019E+02  0.10090366501E+02  0.17460087008E+02  0.00000000000E+00 0.  1.
         14    1    4    4    0    0 -0.51749744992E+02  0.66806891285E+02 -0.60042968124E+02  0.10366462681E+03  0.00000000000E+00 0. -1.
         -5    1    5    5    0  502  0.15408316650E+03 -0.12181382066E+02  0.13934048553E+03  0.20815347505E+03  0.47000000000E+01 0.  1.
         13    1    6    6    0    0  0.39352306731E+02 -0.19073989266E+02 -0.12610631636E+02  0.45513175475E+02  0.00000000000E+00 0. -1.
        -14    1    6    6    0    0  0.97372664916E+01 -0.59543468488E+02  0.58319875554E+02  0.83913329590E+02  0.00000000000E+00 0.  1.
</event>
<event>
12    1  0.1061634E+000  0.1760173E+03  0.7818608E-02  0.1172067E+00
         21   -1    0    0  503  502  0.00000000000E+00  0.00000000000E+00  0.45852649846E+02  0.45852649846E+02  0.00000000000E+00 0. -1.
         21   -1    0    0  501  503 -0.00000000000E+00 -0.00000000000E+00 -0.67982570106E+03  0.67982570106E+03  0.00000000000E+00 0. -1.
          6    2    1    2  501    0  0.26974759576E+02 -0.83726213532E+01 -0.27524492343E+03  0.32671372945E+03  0.17373645183E+03 0.  0.
         24    2    3    3    0    0  0.58240805944E+02  0.17355464208E+02 -0.79406719455E+02  0.12667825215E+03  0.77773702874E+02 0.  0.
         -6    2    1    2    0  502 -0.26974759576E+02  0.83726213532E+01 -0.35872812778E+03  0.39896462145E+03  0.17230542959E+03 0.  0.
        -24    2    5    5    0    0 -0.59482590552E+02 -0.41700320635E+02 -0.27890302367E+03  0.29917386115E+03  0.80255886183E+02 0.  0.
          5    1    3    3  501    0 -0.31266046368E+02 -0.25728085561E+02 -0.19583820398E+03  0.20003547730E+03  0.47000000000E+01 0. -1.
        -13    1    4    4    0    0  0.46892900789E+02 -0.26092470185E+02 -0.46489389362E+02  0.71000172310E+02  0.00000000000E+00 0.  1.
         14    1    4    4    0    0  0.11347905155E+02  0.43447934393E+02 -0.32917330093E+02  0.55678079842E+02  0.00000000000E+00 0. -1.
         -5    1    5    5    0  502  0.32507830976E+02  0.50072941988E+02 -0.79825104114E+02  0.99790760299E+02  0.47000000000E+01 0.  1.
         13    1    6    6    0    0  0.82009744034E+01 -0.37910335603E+02 -0.12790955981E+03  0.13366115747E+03  0.00000000000E+00 0. -1.
        -14    1    6    6    0    0 -0.67683564956E+02 -0.37899850325E+01 -0.15099346386E+03  0.16551270368E+03  0.00000000000E+00 0.  1.
</event>
<event>
12    1  0.1061634E+000  0.2072759E+03  0.7818608E-02  0.1143755E+00
         21   -1    0    0  503  502  0.00000000000E+00  0.00000000000E+00  0.14579546089E+03  0.14579546089E+03  0.00000000000E+00 0. -1.
         21   -1    0    0  501  503 -0.00000000000E+00 -0.00000000000E+00 -0.36354983476E+03  0.36354983476E+03  0.00000000000E+00 0. -1.
          6    2    1    2  501    0 -0.99862139010E+02 -0.56591643084E+02 -0.21981203832E+03  0.30212685156E+03  0.17259270370E+03 0.  0.
         24    2    3    3    0    0 -0.80205763337E+02 -0.90673210521E+02 -0.21877487602E+03  0.26248984803E+03  0.79899176228E+02 0.  0.
         -6    2    1    2    0  502  0.99862139010E+02  0.56591643084E+02  0.20576644508E+01  0.20721844409E+03  0.17251141618E+03 0.  0.
        -24    2    5    5    0    0 -0.16146926465E+02  0.78347655979E+01 -0.37756519990E+01  0.81157133784E+02  0.79057687987E+02 0.  0.
          5    1    3    3  501    0 -0.19656375673E+02  0.34081567437E+02 -0.10371623036E+01  0.39637003535E+02  0.47000000000E+01 0. -1.
        -13    1    4    4    0    0 -0.36961519076E+01 -0.61583017536E+02 -0.11298066727E+03  0.12872746702E+03  0.00000000000E+00 0.  1.
         14    1    4    4    0    0 -0.76509611429E+02 -0.29090192985E+02 -0.10579420875E+03  0.13376238101E+03  0.00000000000E+00 0. -1.
         -5    1    5    5    0  502  0.11600906548E+03  0.48756877486E+02  0.58333164498E+01  0.12606131030E+03  0.47000000000E+01 0.  1.
         11    1    6    6    0    0  0.10252130663E+02 -0.29754308607E+02  0.10303476989E+02  0.33114750518E+02  0.00000000000E+00 0. -1.
        -12    1    6    6    0    0 -0.26399057129E+02  0.37589074205E+02 -0.14079128988E+02  0.48042383266E+02  0.00000000000E+00 0.  1.
</event>
<event>
12    1  0.1061634E+000  0.1787459E+03  0.7818608E-02  0.1169249E+00
         21   -1    0    0  501  502  0.00000000000E+00  0.00000000000E+00  0.63046075089E+02  0.63046075089E+02  0.00000000000E+00 0.  1.
         21   -1    0    0  502  503 -0.00000000000E+00 -0.00000000000E+00 -0.58779956963E+03  0.58779956963E+03  0.00000000000E+00 0.  1.
         -6    2    1    2    0  503  0.41572919135E+02  0.22352076053E+02 -0.13902810680E+03  0.22571723296E+03  0.17143958663E+03 0.  0.
        -24    2    3    3    0    0 -0.38060803796E+02 -0.13452111769E+02 -0.56932933206E+02  0.10577901044E+03  0.79487458569E+02 0.  0.
          6    2    1    2  501    0 -0.41572919135E+02 -0.22352076053E+02 -0.38572538774E+03  0.42512841176E+03  0.17240118569E+03 0.  0.
         24    2    5    5    0    0 -0.44433320851E+01  0.51586134391E+02 -0.22105910669E+03  0.24078487562E+03  0.80183260221E+02 0.  0.
          5    1    5    5  501    0 -0.37129587050E+02 -0.73938210444E+02 -0.16466628105E+03  0.18434353613E+03  0.47000000000E+01 0. -1.
        -11    1    6    6    0    0 -0.36653913532E+02  0.50953744391E+02 -0.13451622667E+03  0.14843991607E+03  0.00000000000E+00 0.  1.
         12    1    6    6    0    0  0.32210581447E+02  0.63239000093E+00 -0.86542880014E+02  0.92344959556E+02  0.00000000000E+00 0. -1.
         -5    1    3    3    0  503  0.79633722931E+02  0.35804187822E+02 -0.82095173597E+02  0.11993822252E+03  0.47000000000E+01 0.  1.
         13    1    4    4    0    0  0.14798560819E+02 -0.26368135440E+02 -0.51680251174E+01  0.30675469882E+02  0.00000000000E+00 0. -1.
        -14    1    4    4    0    0 -0.52859364615E+02  0.12916023670E+02 -0.51764908088E+02  0.75103540558E+02  0.00000000000E+00 0.  1.
</event>
<event>
12    1  0.1061634E+000  0.3526545E+03  0.7818608E-02  0.1061575E+00
         21   -1    0    0  501  502  0.00000000000E+00  0.00000000000E+00  0.42784531963E+03  0.42784531963E+03  0.00000000000E+00 0.  1.
         21   -1    0    0  502  503 -0.00000000000E+00 -0.00000000000E+00 -0.30803245859E+03  0.30803245859E+03  0.00000000000E+00 0.  1.
         -6    2    1    2    0  503  0.26137955195E+03 -0.16214870959E+03  0.14817407670E+03  0.38251892459E+03  0.17249259828E+03 0.  0.
        -24    2    3    3    0    0  0.28110342071E+03 -0.15000257551E+03  0.13476495380E+03  0.35534441173E+03  0.81167434257E+02 0.  0.
          6    2    1    2  501    0 -0.26137955195E+03  0.16214870959E+03 -0.28361215663E+02  0.35335885363E+03  0.17160025258E+03 0.  0.
         24    2    5    5    0    0 -0.22827284055E+03  0.94235780807E+02 -0.66664226474E+02  0.26852117997E+03  0.81673942489E+02 0.  0.
          5    1    5    5  501    0 -0.33106711402E+02  0.67912928782E+02  0.38303010811E+02  0.84837673664E+02  0.47000000000E+01 0. -1.
        -11    1    6    6    0    0 -0.43667197413E+02  0.32613586872E+02 -0.48673544639E+02  0.73072458056E+02  0.00000000000E+00 0.  1.
         12    1    6    6    0    0 -0.18460564314E+03  0.61622193935E+02 -0.17990681835E+02  0.19544872191E+03  0.00000000000E+00 0. -1.
         -5    1    3    3    0  503 -0.19723868758E+02 -0.12146134084E+02  0.13409122907E+02  0.27174512858E+02  0.47000000000E+01 0.  1.
         11    1    4    4    0    0  0.20312956042E+03 -0.65562057135E+02  0.96056734954E+02  0.23406601202E+03  0.00000000000E+00 0. -1.
        -12    1    4    4    0    0  0.77973860294E+02 -0.84440518370E+02  0.38708218841E+02  0.12127839972E+03  0.00000000000E+00 0.  1.
</event>
<event>
12    1  0.1061634E+000  0.2481449E+03  0.7818608E-02  0.1115058E+00
         21   -1    0    0  501  502  0.00000000000E+00  0.00000000000E+00  0.33385770315E+03  0.33385770315E+03  0.00000000000E+00 0. -1.
         21   -1    0    0  502  503 -0.00000000000E+00 -0.00000000000E+00 -0.24955162975E+03  0.24955162975E+03  0.00000000000E+00 0. -1.
         -6    2    1    2    0  503  0.77576004274E+02  0.15884406967E+03 -0.10962904166E+03  0.27128294537E+03  0.17414486718E+03 0.  0.
        -24    2    3    3    0    0 -0.18578977847E+02  0.10834315585E+03 -0.64242648387E+02  0.15347743795E+03  0.85701740072E+02 0.  0.
          6    2    1    2  501    0 -0.77576004274E+02 -0.15884406967E+03  0.19393511506E+03  0.31212638754E+03  0.16900466868E+03 0.  0.
         24    2    5    5    0    0  0.76777982512E+01 -0.13132822999E+03  0.10958812783E+03  0.18899297804E+03  0.80017094482E+02 0.  0.
          5    1    5    5  501    0 -0.85253802525E+02 -0.27515839675E+02  0.84346987235E+02  0.12313340949E+03  0.47000000000E+01 0. -1.
        -11    1    6    6    0    0  0.17302708193E+01 -0.14104346482E+03  0.93307141845E+02  0.16912266414E+03  0.00000000000E+00 0.  1.
         12    1    6    6    0    0  0.59475274319E+01  0.97152348235E+01  0.16280985981E+02  0.19870313906E+02  0.00000000000E+00 0. -1.
         -5    1    3    3    0  503  0.96154982121E+02  0.50500913821E+02 -0.45386393269E+02  0.11780550742E+03  0.47000000000E+01 0.  1.
         11    1    4    4    0    0 -0.27366425153E+02  0.93548109704E+01 -0.43054130212E+02  0.51866095305E+02  0.00000000000E+00 0. -1.
        -12    1    4    4    0    0  0.87874473057E+01  0.98988344879E+02 -0.21188518175E+02  0.10161134265E+03  0.00000000000E+00 0.  1.
</event>
<event>
12    1  0.1061634E+000  0.2733414E+03  0.7818608E-02  0.1099717E+00
         21   -1    0    0  503  502  0.00000000000E+00  0.00000000000E+00  0.26662964086E+03  0.26662964086E+03  0.00000000000E+00 0. -1.
         21   -1    0    0  501  503 -0.00000000000E+00 -0.00000000000E+00 -0.28463374111E+03  0.28463374111E+03  0.00000000000E+00 0. -1.
          6    2    1    2  501    0  0.12777254714E+03  0.16880939803E+03  0.33737167083E+02  0.27306795291E+03  0.16913152810E+03 0.  0.
         24    2    3    3    0    0  0.10756087041E+03  0.66151430725E+02 -0.25610880966E+02  0.15268751042E+03  0.81928053700E+02 0.  0.
         -6    2    1    2    0  502 -0.12777254714E+03 -0.16880939803E+03 -0.51741267340E+02  0.27819542906E+03  0.17289621551E+03 0.  0.
        -24    2    5    5    0    0 -0.10220136073E+03 -0.19777877815E+03 -0.44423848502E+02  0.23858804115E+03  0.73411251472E+02 0.  0.
          5    1    3    3  501    0  0.20211676726E+02  0.10265796731E+03  0.59348048049E+02  0.12038044249E+03  0.47000000000E+01 0. -1.
        -13    1    4    4    0    0  0.35933819810E+02  0.69346400446E+02 -0.20811871815E+02  0.80828810887E+02  0.00000000000E+00 0.  1.
         14    1    4    4    0    0  0.71627050601E+02 -0.31949697212E+01 -0.47990091509E+01  0.71858699530E+02  0.00000000000E+00 0. -1.
         -5    1    5    5    0  502 -0.25571186405E+02  0.28969380118E+02 -0.73174188376E+01  0.39607387910E+02  0.47000000000E+01 0.  1.
         13    1    6    6    0    0 -0.79105765599E+02 -0.12002006866E+03 -0.60390919515E+02  0.15591536868E+03  0.00000000000E+00 0. -1.
        -14    1    6    6    0    0 -0.23095595133E+02 -0.77758709491E+02  0.15967071012E+02  0.82672672467E+02  0.00000000000E+00 0.  1.
</event>
<event>
12    1  0.1061634E+000  0.1837743E+03  0.7818608E-02  0.1165279E+00
         21   -1    0    0  501  502  0.00000000000E+00  0.00000000000E+00  0.33082497789E+03  0.33082497789E+03  0.00000000000E+00 0.  1.
         21   -1    0    0  502  503 -0.00000000000E+00 -0.00000000000E+00 -0.14524419155E+03  0.14524419155E+03  0.00000000000E+00 0. -1.
         -6    2    1    2    0  503  0.31801689266E+02 -0.41663252146E+02  0.22702876135E+03  0.29208738494E+03  0.17614144299E+03 0.  0.
        -24    2    3    3    0    0  0.15946839845E+02  0.37422827716E+01  0.24700455682E+02  0.84068462419E+02  0.78670753659E+02 0.  0.
          6    2    1    2  501    0 -0.31801689266E+02  0.41663252146E+02 -0.41447975012E+02  0.18398178451E+03  0.17141816817E+03 0.  0.
         24    2    5    5    0    0  0.43010521032E+02  0.37974472175E+02  0.77813908719E+00  0.97867856371E+02  0.79281437637E+02 0.  0.
          5    1    5    5  501    0 -0.74812210297E+02  0.36887799715E+01 -0.42226114099E+02  0.86113928137E+02  0.47000000000E+01 0. -1.
        -11    1    6    6    0    0  0.47790365476E+02 -0.75514523915E+01  0.13731789300E+02  0.50294189554E+02  0.00000000000E+00 0.  1.
         12    1    6    6    0    0 -0.47798444446E+01  0.45525924566E+02 -0.12953650212E+02  0.47573666816E+02  0.00000000000E+00 0. -1.
         -5    1    3    3    0  503  0.15854849421E+02 -0.45405534918E+02  0.20232830567E+03  0.20801892252E+03  0.47000000000E+01 0.  1.
         13    1    4    4    0    0 -0.27878350725E+02  0.85874266982E+01 -0.67092448259E+01  0.29932595988E+02  0.00000000000E+00 0. -1.
        -14    1    4    4    0    0  0.43825190570E+02 -0.48451439266E+01  0.31409700508E+02  0.54135866431E+02  0.00000000000E+00 0.  1.
</event>
<event>
12    1  0.1061634E+000  0.2682167E+03  0.7818608E-02  0.1102370E+00
         21   -1    0    0  501  502  0.00000000000E+00  0.00000000000E+00  0.20844739967E+04  0.20844739967E+04  0.00000000000E+00 0.  1.
         21   -1    0    0  502  503 -0.00000000000E+00 -0.00000000000E+00 -0.34469371162E+02  0.34469371162E+02  0.00000000000E+00 0. -1.
         -6    2    1    2    0  503  0.15843349603E+03 -0.13132024979E+03  0.10460985823E+04  0.10798247414E+04  0.17132731151E+03 0.  0.
        -24    2    3    3    0    0  0.41596015153E+02 -0.76730734529E+02  0.29587476500E+03  0.31858307274E+03  0.79595625375E+02 0.  0.
          6    2    1    2  501    0 -0.15843349603E+03  0.13132024979E+03  0.10039060432E+04  0.10391186264E+04  0.17202905410E+03 0.  0.
         24    2    5    5    0    0 -0.17367115079E+03  0.12676001181E+03  0.73746646674E+03  0.77216334961E+03  0.78419893541E+02 0.  0.
          5    1    5    5  501    0  0.15237654757E+02  0.45602379797E+01  0.26643957650E+03  0.26695527681E+03  0.47000000000E+01 0. -1.
        -11    1    6    6    0    0 -0.10203650876E+03  0.81697555952E+02  0.56666094473E+03  0.58154154284E+03  0.00000000000E+00 0.  1.
         12    1    6    6    0    0 -0.71634642022E+02  0.45062455861E+02  0.17080552201E+03  0.19062180677E+03  0.00000000000E+00 0. -1.
         -5    1    3    3    0  503  0.11683748087E+03 -0.54589515263E+02  0.75022381729E+03  0.76124166869E+03  0.47000000000E+01 0.  1.
         11    1    4    4    0    0  0.51242481093E+02 -0.20494808470E+02  0.96098303841E+02  0.11081837864E+03  0.00000000000E+00 0. -1.
        -12    1    4    4    0    0 -0.96464659399E+01 -0.56235926059E+02  0.19977646116E+03  0.20776469411E+03  0.00000000000E+00 0.  1.
</event>
<event>
12    1  0.1061634E+000  0.2640920E+03  0.7818608E-02  0.1106338E+00
         21   -1    0    0  501  502  0.00000000000E+00  0.00000000000E+00  0.15320281233E+04  0.15320281233E+04  0.00000000000E+00 0.  1.
         21   -1    0    0  502  503 -0.00000000000E+00 -0.00000000000E+00 -0.45386003108E+02  0.45386003108E+02  0.00000000000E+00 0.  1.
         -6    2    1    2    0  503 -0.11844920354E+03 -0.14470881731E+03  0.57539595904E+03  0.62867065938E+03  0.17080817502E+03 0.  0.
        -24    2    3    3    0    0 -0.11525814572E+02 -0.10465741153E+03  0.39749825672E+03  0.41723175874E+03  0.70650252751E+02 0.  0.
          6    2    1    2  501    0  0.11844920354E+03  0.14470881731E+03  0.91124616118E+03  0.94874346706E+03  0.18647719537E+03 0.  0.
         24    2    5    5    0    0 -0.20138563638E+02  0.76787685176E+02  0.38635060980E+03  0.40160794522E+03  0.75632252566E+02 0.  0.
          5    1    5    5  501    0  0.13858776718E+03  0.67921132137E+02  0.52489555138E+03  0.54713552184E+03  0.47000000000E+01 0. -1.
        -11    1    6    6    0    0 -0.14095886684E+02  0.36382331400E+02  0.32836693910E+03  0.33067690387E+03  0.00000000000E+00 0.  1.
         12    1    6    6    0    0 -0.60426769548E+01  0.40405353776E+02  0.57983670699E+02  0.70931041345E+02  0.00000000000E+00 0. -1.
         -5    1    3    3    0  503 -0.10692338897E+03 -0.40051405780E+02  0.17789770232E+03  0.21143890064E+03  0.47000000000E+01 0.  1.
         13    1    4    4    0    0 -0.24240513439E+02 -0.94978484891E+02  0.38400139134E+03  0.39631500556E+03  0.00000000000E+00 0. -1.
        -14    1    4    4    0    0  0.12714698867E+02 -0.96789266424E+01  0.13496865376E+02  0.20916753170E+02  0.00000000000E+00 0.  1.
</event>
<event>
12    1  0.1061634E+000  0.2530996E+03  0.7818608E-02  0.1111602E+00
         21   -1    0    0  501  502  0.00000000000E+00  0.00000000000E+00  0.10663968365E+03  0.10663968365E+03  0.00000000000E+00 0.  1.
         21   -1    0    0  502  503 -0.00000000000E+00 -0.00000000000E+00 -0.59865211328E+03  0.59865211328E+03  0.00000000000E+00 0.  1.
         -6    2    1    2    0  503 -0.17658935026E+03 -0.60033098498E+02 -0.22852325822E+03  0.34100191084E+03  0.17108960258E+03 0.  0.
        -24    2    3    3    0    0 -0.10755593473E+03  0.23082483624E+02 -0.16905918172E+03  0.21758441272E+03  0.81614273175E+02 0.  0.
          6    2    1    2  501    0  0.17658935026E+03  0.60033098498E+02 -0.26348917141E+03  0.36428988609E+03  0.16879812237E+03 0.  0.
         24    2    5    5    0    0  0.14333169637E+03  0.13440346168E+02 -0.25927200234E+03  0.30669795413E+03  0.78211545039E+02 0.  0.
          5    1    5    5  501    0  0.33257653889E+02  0.46592752330E+02 -0.42171690639E+01  0.57591931959E+02  0.47000000000E+01 0. -1.
        -11    1    6    6    0    0 -0.88508514964E+01  0.77594448246E+00 -0.29495204905E+02  0.30804330449E+02  0.00000000000E+00 0.  1.
         12    1    6    6    0    0  0.15218254787E+03  0.12664401685E+02 -0.22977679744E+03  0.27589362368E+03  0.00000000000E+00 0. -1.
         -5    1    3    3    0  503 -0.69033415523E+02 -0.83115582122E+02 -0.59464076501E+02  0.12341749813E+03  0.47000000000E+01 0.  1.
         13    1    4    4    0    0 -0.45882478847E+02 -0.80206870035E+01 -0.13031178425E+03  0.13838603398E+03  0.00000000000E+00 0. -1.
        -14    1    4    4    0    0 -0.61673455887E+02  0.31103170627E+02 -0.38747397470E+02  0.79198378739E+02  0.00000000000E+00 0.  1.
</event>
<event>
12    1  0.1061634E+000  0.3052349E+03  0.7818608E-02  0.1082719E+00
         21   -1    0    0  501  502  0.00000000000E+00  0.00000000000E+00  0.25783147040E+03  0.25783147040E+03  0.00000000000E+00 0. -1.
         21   -1    0    0  502  503 -0.00000000000E+00 -0.00000000000E+00 -0.40416190790E+03  0.40416190790E+03  0.00000000000E+00 0. -1.
         -6    2    1    2    0  503  0.24939731807E+03  0.33445671847E+02  0.35421190941E+02  0.30674419913E+03  0.17181300215E+03 0.  0.
        -24    2    3    3    0    0  0.25023249051E+03 -0.82132612312E+01  0.21911729133E+02  0.26269014397E+03  0.76434487611E+02 0.  0.
          6    2    1    2  501    0 -0.24939731807E+03 -0.33445671847E+02 -0.18175162845E+03  0.35524917916E+03  0.17277352120E+03 0.  0.
         24    2    5    5    0    0 -0.14192305606E+03  0.36258470308E+02 -0.57662070682E+02  0.17684039918E+03  0.80565388830E+02 0.  0.
          5    1    5    5  501    0 -0.10747426201E+03 -0.69704142155E+02 -0.12408955776E+03  0.17840877998E+03  0.47000000000E+01 0. -1.
        -11    1    6    6    0    0 -0.39643378762E+02  0.17307925196E+02 -0.58574730831E+02  0.72815938133E+02  0.00000000000E+00 0.  1.
         12    1    6    6    0    0 -0.10227967730E+03  0.18950545112E+02  0.91266014858E+00  0.10402446105E+03  0.00000000000E+00 0. -1.
         -5    1    3    3    0  503 -0.83517243719E+00  0.41658933079E+02  0.13509461809E+02  0.44054055166E+02  0.47000000000E+01 0.  1.
         11    1    4    4    0    0  0.19504681571E+02 -0.67988165312E+00 -0.20135216008E+02  0.28041429456E+02  0.00000000000E+00 0. -1.
        -12    1    4    4    0    0  0.23072780894E+03 -0.75333795781E+01  0.42046945140E+02  0.23464871451E+03  0.00000000000E+00 0.  1.
</event>
<event>
12    1  0.1061634E+000  0.2263943E+03  0.7818608E-02  0.1129519E+00
         21   -1    0    0  503  502  0.00000000000E+00  0.00000000000E+00  0.97036903216E+02  0.97036903216E+02  0.00000000000E+00 0.  1.
         21   -1    0    0  501  503 -0.00000000000E+00 -0.00000000000E+00 -0.52531027097E+03  0.52531027097E+03  0.00000000000E+00 0.  1.
          6    2    1    2  501    0 -0.13184404349E+03  0.58559819286E+02 -0.19851459733E+03  0.29978949407E+03  0.17220218107E+03 0.  0.
         24    2    3    3    0    0 -0.28450854893E+02 -0.22586901950E+02 -0.42316094652E+02  0.95595948499E+02  0.77642219307E+02 0.  0.
         -6    2    1    2    0  502  0.13184404349E+03 -0.58559819286E+02 -0.22975877043E+03  0.32255768012E+03  0.17447710501E+03 0.  0.
        -24    2    5    5    0    0  0.15556599869E+03 -0.13917424071E+02 -0.17696146658E+03  0.24930933609E+03  0.80282686583E+02 0.  0.
          5    1    3    3  501    0 -0.10339318860E+03  0.81146721236E+02 -0.15619850268E+03  0.20419354557E+03  0.47000000000E+01 0. -1.
        -11    1    4    4    0    0 -0.63176481977E+01 -0.26823656008E+02 -0.60603145730E+02  0.66574488152E+02  0.00000000000E+00 0.  1.
         12    1    4    4    0    0 -0.22133206696E+02  0.42367540575E+01  0.18287051077E+02  0.29021460347E+02  0.00000000000E+00 0. -1.
         -5    1    5    5    0  502 -0.23721955199E+02 -0.44642395215E+02 -0.52797303854E+02  0.73248344031E+02  0.47000000000E+01 0.  1.
         13    1    6    6    0    0  0.32508085716E+02 -0.44606379672E+01 -0.96627766497E+02  0.10204703909E+03  0.00000000000E+00 0. -1.
        -14    1    6    6    0    0  0.12305791298E+03 -0.94567861035E+01 -0.80333700080E+02  0.14726229700E+03  0.00000000000E+00 0.  1.
</event>
<event>
12    1  0.1061634E+000  0.1857069E+03  0.7818608E-02  0.1162666E+00
         21   -1    0    0  503  502  0.00000000000E+00  0.00000000000E+00  0.12878479796E+03  0.12878479796E+03  0.00000000000E+00 0.  1.
         21   -1    0    0  501  503 -0.00000000000E+00 -0.00000000000E+00 -0.48209765007E+03  0.48209765007E+03  0.00000000000E+00 0.  1.
          6    2    1    2  501    0  0.61289030197E+02 -0.33547347274E+02  0.27485854961E+02  0.18772987868E+03  0.17206180691E+03 0.  0.
         24    2    3    3    0    0  0.43112949017E+02 -0.29161389444E+02  0.85267388232E+02  0.12681680833E+03  0.78120819064E+02 0.  0.
         -6    2    1    2    0  502 -0.61289030197E+02  0.33547347274E+02 -0.38079870707E+03  0.42315256934E+03  0.17078838339E+03 0.  0.
        -24    2    5    5    0    0 -0.14004891374E+02  0.46610668186E+02 -0.92636120285E+02  0.13080653027E+03  0.78486981142E+02 0.  0.
          5    1    3    3  501    0  0.18176081181E+02 -0.43859578300E+01 -0.57781533271E+02  0.60913070357E+02  0.47000000000E+01 0. -1.
        -11    1    4    4    0    0 -0.86036975186E+01 -0.15484394646E+02 -0.78905850848E+01  0.19392045316E+02  0.00000000000E+00 0.  1.
         12    1    4    4    0    0  0.51716646535E+02 -0.13676994798E+02  0.93157973317E+02  0.10742476301E+03  0.00000000000E+00 0. -1.
         -5    1    5    5    0  502 -0.47284138823E+02 -0.13063320912E+02 -0.28816258679E+03  0.29234603907E+03  0.47000000000E+01 0.  1.
         13    1    6    6    0    0 -0.46375370565E+02  0.22986336962E+02 -0.45282994610E+02  0.68772060336E+02  0.00000000000E+00 0. -1.
        -14    1    6    6    0    0  0.32370479191E+02  0.23624331224E+02 -0.47353125675E+02  0.62034469934E+02  0.00000000000E+00 0.  1.
</event>
<event>
12    1  0.1061634E+000  0.2141590E+03  0.7818608E-02  0.1139325E+00
         21   -1    0    0  503  502  0.00000000000E+00  0.00000000000E+00  0.42003729690E+03  0.42003729690E+03  0.00000000000E+00 0.  1.
         21   -1    0    0  501  503 -0.00000000000E+00 -0.00000000000E+00 -0.11731847776E+03  0.11731847776E+03  0.00000000000E+00 0.  1.
          6    2    1    2  501    0 -0.76305135082E+02 -0.94262162827E+02  0.68364633505E+02  0.21988774999E+03  0.17020302729E+03 0.  0.
         24    2    3    3    0    0 -0.10035491561E+03 -0.75318058576E+02  0.96621881814E+02  0.17796122961E+03  0.81181846268E+02 0.  0.
         -6    2    1    2    0  502  0.76305135082E+02  0.94262162827E+02  0.23435418564E+03  0.31746802467E+03  0.17651128400E+03 0.  0.
        -24    2    5    5    0    0  0.12138921932E+02  0.11977344491E+03  0.16181166645E+03  0.21720519250E+03  0.80635282097E+02 0.  0.
          5    1    3    3  501    0  0.24049780527E+02 -0.18944104250E+02 -0.28257248309E+02  0.41926520380E+02  0.47000000000E+01 0. -1.
        -13    1    4    4    0    0 -0.16094978489E+02 -0.59105264778E+02  0.56116924145E+02  0.83075807745E+02  0.00000000000E+00 0.  1.
         14    1    4    4    0    0 -0.84259937120E+02 -0.16212793799E+02  0.40504957669E+02  0.94885421862E+02  0.00000000000E+00 0. -1.
         -5    1    5    5    0  502  0.64166213150E+02 -0.25511282088E+02  0.72542519191E+02  0.10026283217E+03  0.47000000000E+01 0.  1.
         13    1    6    6    0    0  0.38845452548E+02  0.87661844705E+02  0.14107502994E+03  0.17057471171E+03  0.00000000000E+00 0. -1.
        -14    1    6    6    0    0 -0.26706530616E+02  0.32111600210E+02  0.20736636505E+02  0.46630480795E+02  0.00000000000E+00 0.  1.
</event>
<event>
12    1  0.1061634E+000  0.2668287E+03  0.7818608E-02  0.1103152E+00
         21   -1    0    0  501  502  0.00000000000E+00  0.00000000000E+00  0.13446000933E+03  0.13446000933E+03  0.00000000000E+00 0. -1.
         21   -1    0    0  502  503 -0.00000000000E+00 -0.00000000000E+00 -0.52902083035E+03  0.52902083035E+03  0.00000000000E+00 0. -1.
         -6    2    1    2    0  503  0.99940331293E+01  0.20372342919E+03 -0.20212663525E+03  0.33474282333E+03  0.17203041822E+03 0.  0.
        -24    2    3    3    0    0 -0.30153232396E+02  0.65909695668E+02 -0.32855432949E+02  0.11275350375E+03  0.79878455967E+02 0.  0.
          6    2    1    2  501    0 -0.99940331293E+01 -0.20372342919E+03 -0.19243418577E+03  0.32873801636E+03  0.17156529733E+03 0.  0.
         24    2    5    5    0    0  0.14867895866E+02 -0.13549291853E+03 -0.44660361115E+02  0.16401791634E+03  0.79548373487E+02 0.  0.
          5    1    5    5  501    0 -0.24861928996E+02 -0.68230510657E+02 -0.14777382465E+03  0.16472010002E+03  0.47000000000E+01 0. -1.
        -11    1    6    6    0    0 -0.95046114204E+01  0.46224349663E+01  0.70331295325E+01  0.12695253219E+02  0.00000000000E+00 0.  1.
         12    1    6    6    0    0  0.24372507287E+02 -0.14011535350E+03 -0.51693490648E+02  0.15132266312E+03  0.00000000000E+00 0. -1.
         -5    1    3    3    0  503  0.40147265525E+02  0.13781373352E+03 -0.16927120230E+03  0.22198931958E+03  0.47000000000E+01 0.  1.
         11    1    4    4    0    0  0.23878400903E+02  0.41454460168E+02 -0.21124193952E+02  0.52296098015E+02  0.00000000000E+00 0. -1.
        -12    1    4    4    0    0 -0.54031633299E+02  0.24455235500E+02 -0.11731238997E+02  0.60457405739E+02  0.00000000000E+00 0.  1.
</event>
<event>
12    1  0.1061634E+000  0.1789443E+03  0.7818608E-02  0.1168890E+00
         21   -1    0    0  501  502  0.00000000000E+00  0.00000000000E+00  0.30933413339E+03  0.30933413339E+03  0.00000000000E+00 0.  1.
         21   -1    0    0  502  503 -0.00000000000E+00 -0.00000000000E+00 -0.15796334960E+03  0.15796334960E+03  0.00000000000E+00 0.  1.
         -6    2    1    2    0  503  0.23348731356E+02 -0.41680159641E+02  0.21307809642E+03  0.27825051480E+03  0.17244905002E+03 0.  0.
        -24    2    3    3    0    0 -0.22536583544E+02 -0.21752533581E+02  0.21101554872E+03  0.22796218110E+03  0.80362453253E+02 0.  0.
          6    2    1    2  501    0 -0.23348731356E+02  0.41680159641E+02 -0.61707312620E+02  0.18904696819E+03  0.17218758604E+03 0.  0.
         24    2    5    5    0    0 -0.31993425224E+02 -0.11440150360E+02 -0.94472343061E+02  0.12586362160E+03  0.75908967459E+02 0.  0.
          5    1    5    5  501    0  0.86446938680E+01  0.53120310001E+02  0.32765030441E+02  0.63183346591E+02  0.47000000000E+01 0. -1.
        -13    1    6    6    0    0 -0.24849199651E+02 -0.13018380694E+02  0.29131487447E+01  0.28203676973E+02  0.00000000000E+00 0.  1.
         14    1    6    6    0    0 -0.71442255727E+01  0.15782303343E+01 -0.97385491806E+02  0.97659944625E+02  0.00000000000E+00 0. -1.
         -5    1    3    3    0  503  0.45885314899E+02 -0.19927626060E+02  0.20625476939E+01  0.50288333705E+02  0.47000000000E+01 0.  1.
         11    1    4    4    0    0 -0.51761968839E+02 -0.18437901304E+02  0.11339137644E+03  0.12600342008E+03  0.00000000000E+00 0. -1.
        -12    1    4    4    0    0  0.29225385296E+02 -0.33146322769E+01  0.97624172286E+02  0.10195876101E+03  0.00000000000E+00 0.  1.
</event>
<event>
12    1  0.1061634E+000  0.2016647E+03  0.7818608E-02  0.1148479E+00
         21   -1    0    0  501  502  0.00000000000E+00  0.00000000000E+00  0.86541163442E+02  0.86541163442E+02  0.00000000000E+00 0. -1.
         21   -1    0    0  502  503 -0.00000000000E+00 -0.00000000000E+00 -0.65483808504E+03  0.65483808504E+03  0.00000000000E+00 0. -1.
         -6    2    1    2    0  503  0.70560882911E+02 -0.77627413212E+02 -0.86690364641E+02  0.21950820146E+03  0.17223175580E+03 0.  0.
        -24    2    3    3    0    0 -0.19695182034E+02 -0.64272166277E+02 -0.69222027224E+02  0.12649340322E+03  0.81792911987E+02 0.  0.
          6    2    1    2  501    0 -0.70560882911E+02  0.77627413212E+02 -0.48160655695E+03  0.52187104702E+03  0.17146329210E+03 0.  0.
         24    2    5    5    0    0 -0.11480294641E+03  0.61331313641E+02 -0.39934747488E+03  0.42694175951E+03  0.76548114175E+02 0.  0.
          5    1    5    5  501    0  0.44242063495E+02  0.16296099571E+02 -0.82259082074E+02  0.94929287510E+02  0.47000000000E+01 0. -1.
        -11    1    6    6    0    0 -0.57951541408E+02  0.71774697758E+02 -0.26818322959E+03  0.28360577043E+03  0.00000000000E+00 0.  1.
         12    1    6    6    0    0 -0.56851404997E+02 -0.10443384117E+02 -0.13116424529E+03  0.14333598908E+03  0.00000000000E+00 0. -1.
         -5    1    3    3    0  503  0.90256064945E+02 -0.13355246936E+02 -0.17468337417E+02  0.93014798243E+02  0.47000000000E+01 0.  1.
         13    1    4    4    0    0 -0.21605370617E+02 -0.61556414865E+02 -0.86812234088E+02  0.10859257911E+03  0.00000000000E+00 0. -1.
        -14    1    4    4    0    0  0.19101885833E+01 -0.27157514118E+01  0.17590206864E+02  0.17900824106E+02  0.00000000000E+00 0.  1.
</event>
<event>
12    1  0.1061634E+000  0.2815878E+03  0.7818608E-02  0.1095006E+00
         21   -1    0    0  501  502  0.00000000000E+00  0.00000000000E+00  0.17744707783E+03  0.17744707783E+03  0.00000000000E+00 0.  1.
         21   -1    0    0  502  503 -0.00000000000E+00 -0.00000000000E+00 -0.57387857201E+03  0.57387857201E+03  0.00000000000E+00 0.  1.
         -6    2    1    2    0  503 -0.22184911021E+03 -0.87711832402E+01 -0.20374792530E+02  0.28232393240E+03  0.17319846790E+03 0.  0.
        -24    2    3    3    0    0 -0.21050682587E+03 -0.11069775252E+02  0.32794905670E+02  0.22770673963E+03  0.79619028981E+02 0.  0.
          6    2    1    2  501    0  0.22184911021E+03  0.87711832402E+01 -0.37605670165E+03  0.46900171743E+03  0.17102633349E+03 0.  0.
         24    2    5    5    0    0  0.13779897842E+03  0.87902901046E+01 -0.34350545294E+03  0.37874597628E+03  0.79916773566E+02 0.  0.
          5    1    5    5  501    0  0.84050131785E+02 -0.19106864401E-01 -0.32551248708E+02  0.90255741150E+02  0.47000000000E+01 0. -1.
        -13    1    6    6    0    0 -0.97794420902E+01 -0.40684069398E+01 -0.34077360141E+02  0.35685513823E+02  0.00000000000E+00 0.  1.
         14    1    6    6    0    0  0.14757842051E+03  0.12858697044E+02 -0.30942809280E+03  0.34306046246E+03  0.00000000000E+00 0. -1.
         -5    1    3    3    0  503 -0.11342284338E+02  0.22985920113E+01 -0.53169698200E+02  0.54617192768E+02  0.47000000000E+01 0.  1.
         11    1    4    4    0    0 -0.68029112207E+02  0.21572393310E+02  0.39148055579E+02  0.81399622336E+02  0.00000000000E+00 0. -1.
        -12    1    4    4    0    0 -0.14247771366E+03 -0.32642168561E+02 -0.63531499092E+01  0.14630711730E+03  0.00000000000E+00 0.  1.
</event>
<event>
12    1  0.1061634E+000  0.2069309E+03  0.7818608E-02  0.1144520E+00
         21   -1    0    0  501  502  0.00000000000E+00  0.00000000000E+00  0.15278729451E+04  0.15278729451E+04  0.00000000000E+00 0. -1.
         21   -1    0    0  502  503 -0.00000000000E+00 -0.00000000000E+00 -0.28451497434E+02  0.28451497434E+02  0.00000000000E+00 0.  1.
         -6    2    1    2    0  503 -0.46370119501E+01 -0.11215869932E+03  0.88110985542E+03  0.90508286644E+03  0.17383711370E+03 0.  0.
        -24    2    3    3    0    0 -0.42302700299E+02 -0.79469095735E+02  0.32520162690E+03  0.34692217023E+03  0.80585596909E+02 0.  0.
          6    2    1    2  501    0  0.46370119501E+01  0.11215869932E+03  0.61831159227E+03  0.65124157611E+03  0.17089555175E+03 0.  0.
         24    2    5    5    0    0 -0.29753569265E+02  0.81853334568E+02  0.57791301922E+03  0.58996138426E+03  0.80534054086E+02 0.  0.
          5    1    5    5  501    0  0.34390581215E+02  0.30305364753E+02  0.40398573043E+02  0.61280191849E+02  0.47000000000E+01 0. -1.
        -11    1    6    6    0    0  0.13126439793E+02 -0.10290844069E+02  0.67707082417E+02  0.69731297871E+02  0.00000000000E+00 0.  1.
         12    1    6    6    0    0 -0.42880009058E+02  0.92144178637E+02  0.51020593681E+03  0.52023008639E+03  0.00000000000E+00 0. -1.
         -5    1    3    3    0  503  0.37665688349E+02 -0.32689603586E+02  0.55590822852E+03  0.55816069621E+03  0.47000000000E+01 0.  1.
         13    1    4    4    0    0 -0.63687976470E+02 -0.64850586591E+02  0.28458571786E+03  0.29874870333E+03  0.00000000000E+00 0. -1.
        -14    1    4    4    0    0  0.21385276171E+02 -0.14618509144E+02  0.40615909033E+02  0.48173466899E+02  0.00000000000E+00 0.  1.
</event>
<event>
12    1  0.1061634E+000  0.1988573E+03  0.7818608E-02  0.1150730E+00
         21   -1    0    0  503  502  0.00000000000E+00  0.00000000000E+00  0.16033779099E+03  0.16033779099E+03  0.00000000000E+00 0. -1.
         21   -1    0    0  501  503 -0.00000000000E+00 -0.00000000000E+00 -0.25933661580E+03  0.25933661580E+03  0.00000000000E+00 0. -1.
          6    2    1    2  501    0 -0.84532901550E+02  0.51342907815E+02 -0.96205963460E+02  0.22090679429E+03  0.17251758963E+03 0.  0.
         24    2    3    3    0    0 -0.11434152383E+03  0.10569767928E+01 -0.70826433038E+02  0.15700499944E+03  0.80988177913E+02 0.  0.
         -6    2    1    2    0  502  0.84532901550E+02 -0.51342907815E+02 -0.27928613541E+01  0.19876761249E+03  0.17239158354E+03 0.  0.
        -24    2    5    5    0    0  0.72393162707E+02 -0.30671379410E+01 -0.59562612744E+02  0.12311830391E+03  0.79751078861E+02 0.  0.
          5    1    3    3  501    0  0.29808622277E+02  0.50285931022E+02 -0.25379530422E+02  0.63901794852E+02  0.47000000000E+01 0. -1.
        -11    1    4    4    0    0 -0.46864328830E+02  0.30332909919E+02 -0.61179308078E+02  0.82820640408E+02  0.00000000000E+00 0.  1.
         12    1    4    4    0    0 -0.67477194998E+02 -0.29275933126E+02 -0.96471249600E+01  0.74184359033E+02  0.00000000000E+00 0. -1.
         -5    1    5    5    0  502  0.12139738843E+02 -0.48275769874E+02  0.56769751389E+02  0.75649308582E+02  0.47000000000E+01 0.  1.
         13    1    6    6    0    0  0.24270706803E+02 -0.30649236168E+02  0.33590599797E+01  0.39239344672E+02  0.00000000000E+00 0. -1.
        -14    1    6    6    0    0  0.48122455904E+02  0.27582098227E+02 -0.62921672723E+02  0.83878959240E+02  0.00000000000E+00 0.  1.
</event>
<event>
12    1  0.1061634E+000  0.2168652E+03  0.7818608E-02  0.1136299E+00
         21   -1    0    0  501  502  0.00000000000E+00  0.00000000000E+00  0.86435586955E+02  0.86435586955E+02  0.00000000000E+00 0.  1.
         21   -1    0    0  502  503 -0.00000000000E+00 -0.00000000000E+00 -0.56554214488E+03  0.56554214488E+03  0.00000000000E+00 0.  1.
         -6    2    1    2    0  503 -0.75991726878E+02  0.10706617175E+03 -0.17483612563E+03  0.27833218990E+03  0.17223016409E+03 0.  0.
        -24    2    3    3    0    0 -0.52592135174E+02  0.44522464727E+01 -0.30906595835E+02  0.99964709400E+02  0.79069401658E+02 0.  0.
          6    2    1    2  501    0  0.75991726878E+02 -0.10706617175E+03 -0.30427043230E+03  0.37364554194E+03  0.17260529352E+03 0.  0.
         24    2    5    5    0    0  0.27739913885E+02  0.74097625189E+01 -0.17316439798E+03  0.19296942504E+03  0.80167841854E+02 0.  0.
          5    1    5    5  501    0  0.48251812994E+02 -0.11447593427E+03 -0.13110603432E+03  0.18067611690E+03  0.47000000000E+01 0. -1.
        -11    1    6    6    0    0  0.44337442265E+02  0.29370978007E+02 -0.81975562727E+02  0.97716201421E+02  0.00000000000E+00 0.  1.
         12    1    6    6    0    0 -0.16597528380E+02 -0.21961215488E+02 -0.91188835254E+02  0.95253223614E+02  0.00000000000E+00 0. -1.
         -5    1    3    3    0  503 -0.23399591704E+02  0.10261392528E+03 -0.14392952979E+03  0.17836748050E+03  0.47000000000E+01 0.  1.
         11    1    4    4    0    0 -0.82894519644E+01  0.15891320042E+02 -0.47909192928E+02  0.51152124428E+02  0.00000000000E+00 0. -1.
        -12    1    4    4    0    0 -0.44302683210E+02 -0.11439073569E+02  0.17002597093E+02  0.48812584972E+02  0.00000000000E+00 0.  1.
</event>
<event>
12    1  0.1061634E+000  0.2331272E+03  0.7818608E-02  0.1124869E+00
         21   -1    0    0  503  502  0.00000000000E+00  0.00000000000E+00  0.98019943548E+03  0.98019943548E+03  0.00000000000E+00 0.  1.
         21   -1    0    0  501  503 -0.00000000000E+00 -0.00000000000E+00 -0.95823455688E+02  0.95823455688E+02  0.00000000000E+00 0.  1.
          6    2    1    2  501    0  0.14639803440E+03 -0.54585627731E+02  0.91822728346E+02  0.25055882070E+03  0.17302119511E+03 0.  0.
         24    2    3    3    0    0  0.56386584891E+02  0.26057739014E+02  0.80987907440E+02  0.12913025328E+03  0.79102012879E+02 0.  0.
         -6    2    1    2    0  502 -0.14639803440E+03  0.54585627731E+02  0.79255325145E+03  0.82546407047E+03  0.16981843252E+03 0.  0.
        -24    2    5    5    0    0 -0.90965649863E+02  0.63491187584E+02  0.72329078356E+03  0.73618116220E+03  0.80667624462E+02 0.  0.
          5    1    3    3  501    0  0.90011449508E+02 -0.80643366745E+02  0.10834820906E+02  0.12142856742E+03  0.47000000000E+01 0. -1.
        -13    1    4    4    0    0  0.18144756724E+02  0.15183906449E+02 -0.13059339578E+02  0.27024610299E+02  0.00000000000E+00 0.  1.
         14    1    4    4    0    0  0.38241828167E+02  0.10873832565E+02  0.94047247018E+02  0.10210564298E+03  0.00000000000E+00 0. -1.
         -5    1    5    5    0  502 -0.55432384536E+02 -0.89055598531E+01  0.69262467890E+02  0.89282908274E+02  0.47000000000E+01 0.  1.
         11    1    6    6    0    0 -0.44930926830E+02 -0.14411252549E+01  0.12952727936E+03  0.13710645910E+03  0.00000000000E+00 0. -1.
        -12    1    6    6    0    0 -0.46034723033E+02  0.64932312839E+02  0.59376350420E+03  0.59907470310E+03  0.00000000000E+00 0.  1.
</event>
<event>
12    1  0.1061634E+000  0.1752782E+03  0.7818608E-02  0.1172869E+00
         21   -1    0    0  503  502  0.00000000000E+00  0.00000000000E+00  0.34959514868E+03  0.34959514868E+03  0.00000000000E+00 0.  1.
         21   -1    0    0  501  503 -0.00000000000E+00 -0.00000000000E+00 -0.89219756774E+02  0.89219756774E+02  0.00000000000E+00 0.  1.
          6    2    1    2  501    0 -0.20956643257E+02  0.13624572473E+02  0.95387806569E+02  0.19810065744E+03  0.17181451325E+03 0.  0.
         24    2    3    3    0    0 -0.23272691631E+02  0.55147155858E+02  0.11548597636E+03  0.15167312854E+03  0.78005770363E+02 0.  0.
         -6    2    1    2    0  502  0.20956643257E+02 -0.13624572473E+02  0.16498758534E+03  0.24071424802E+03  0.17348670269E+03 0.  0.
        -24    2    5    5    0    0  0.57149053339E+02  0.20117756366E+02  0.16202478854E+03  0.19092164347E+03  0.80797917191E+02 0.  0.
          5    1    3    3  501    0  0.23160483735E+01 -0.41522583385E+02 -0.20098169790E+02  0.46427528902E+02  0.47000000000E+01 0. -1.
        -13    1    4    4    0    0 -0.20217546440E+01 -0.16004919358E+02  0.22899781247E+01  0.16293831204E+02  0.00000000000E+00 0.  1.
         14    1    4    4    0    0 -0.21250936987E+02  0.71152075216E+02  0.11319599823E+03  0.13537929733E+03  0.00000000000E+00 0. -1.
         -5    1    5    5    0  502 -0.36192410081E+02 -0.33742328839E+02  0.29627967935E+01  0.49792604549E+02  0.47000000000E+01 0.  1.
         13    1    6    6    0    0 -0.17823204252E+02 -0.97128221507E+01  0.31936237041E+02  0.37840834561E+02  0.00000000000E+00 0. -1.
        -14    1    6    6    0    0  0.74972257591E+02  0.29830578517E+02  0.13008855150E+03  0.15308080891E+03  0.00000000000E+00 0.  1.
</event>
<event>
12    1  0.1061634E+000  0.2599547E+03  0.7818608E-02  0.1107186E+00
         21   -1    0    0  501  502  0.00000000000E+00  0.00000000000E+00  0.20797017718E+04  0.20797017718E+04  0.00000000000E+00 0.  1.
         21   -1    0    0  502  503 -0.00000000000E+00 -0.00000000000E+00 -0.42189885483E+02  0.42189885483E+02  0.00000000000E+00 0.  1.
         -6    2    1    2    0  503 -0.17280213690E+03 -0.89636397697E+02  0.15275689888E+04  0.15495122549E+04  0.17212190521E+03 0.  0.
        -24    2    3    3    0    0 -0.16066486541E+03 -0.12690826358E+03  0.13222813886E+04  0.13404629924E+04  0.80585712757E+02 0.  0.
          6    2    1    2  501    0  0.17280213690E+03  0.89636397697E+02  0.50994289746E+03  0.57237940232E+03  0.17228220808E+03 0.  0.
         24    2    5    5    0    0  0.20523104351E+02  0.32590489197E+02  0.25366572598E+03  0.26882838840E+03  0.80243779033E+02 0.  0.
          5    1    5    5  501    0  0.15227903255E+03  0.57045908499E+02  0.25627717147E+03  0.30355101391E+03  0.47000000000E+01 0. -1.
        -11    1    6    6    0    0  0.22453628926E+02 -0.23719489175E+02  0.91986539769E+02  0.97613027396E+02  0.00000000000E+00 0.  1.
         12    1    6    6    0    0 -0.19305245746E+01  0.56309978372E+02  0.16167918622E+03  0.17121536101E+03  0.00000000000E+00 0. -1.
         -5    1    3    3    0  503 -0.12137271487E+02  0.37271865880E+02  0.20528760022E+03  0.20904926250E+03  0.47000000000E+01 0.  1.
         11    1    4    4    0    0  0.58321441840E+01 -0.21662516346E+02  0.16888486675E+03  0.17036835604E+03  0.00000000000E+00 0. -1.
        -12    1    4    4    0    0 -0.16649700960E+03 -0.10524574723E+03  0.11533965219E+04  0.11700946364E+04  0.00000000000E+00 0.  1.
</event>
<event>
12    1  0.1061634E+000  0.2506826E+03  0.7818608E-02  0.1113137E+00
         21   -1    0    0  501  502  0.00000000000E+00  0.00000000000E+00  0.46746100866E+02  0.46746100866E+02  0.00000000000E+00 0. -1.
         21   -1    0    0  502  503 -0.00000000000E+00 -0.00000000000E+00 -0.15997326346E+04  0.15997326346E+04  0.00000000000E+00 0.  1.
         -6    2    1    2    0  503 -0.69329838486E+02 -0.16836083475E+03 -0.11132722373E+04  0.11411471579E+04  0.17230718006E+03 0.  0.
        -24    2    3    3    0    0 -0.49332201098E+02 -0.13091311666E+02 -0.36403947059E+03  0.37571893846E+03  0.77684850922E+02 0.  0.
          6    2    1    2  501    0  0.69329838486E+02  0.16836083475E+03 -0.43971429637E+03  0.50533157757E+03  0.16988038049E+03 0.  0.
         24    2    5    5    0    0  0.11184879414E+03  0.10627114263E+03 -0.29544893636E+03  0.34255081840E+03  0.79039741160E+02 0.  0.
          5    1    5    5  501    0 -0.42518955656E+02  0.62089692121E+02 -0.14426536000E+03  0.16278075917E+03  0.47000000000E+01 0. -1.
        -11    1    6    6    0    0  0.41810488682E+02  0.88233798732E+02 -0.20221943127E+03  0.22455738373E+03  0.00000000000E+00 0.  1.
         12    1    6    6    0    0  0.70038305460E+02  0.18037343897E+02 -0.93229505090E+02  0.11799343467E+03  0.00000000000E+00 0. -1.
         -5    1    3    3    0  503 -0.19997637388E+02 -0.15526952308E+03 -0.74923276674E+03  0.76542821940E+03  0.47000000000E+01 0.  1.
         13    1    4    4    0    0 -0.13050611563E+02  0.14547186230E+02 -0.17631440909E+02  0.26321223336E+02  0.00000000000E+00 0. -1.
        -14    1    4    4    0    0 -0.36281589535E+02 -0.27638497896E+02 -0.34640802968E+03  0.34939771512E+03  0.00000000000E+00 0.  1.
</event>
<event>
12    1  0.1061634E+000  0.2064204E+03  0.7818608E-02  0.1144464E+00
         21   -1    0    0  501  502  0.00000000000E+00  0.00000000000E+00  0.70600776822E+02  0.70600776822E+02  0.00000000000E+00 0. -1.
         21   -1    0    0  502  503 -0.00000000000E+00 -0.00000000000E+00 -0.74494915442E+03  0.74494915442E+03  0.00000000000E+00 0.  1.
         -6    2    1    2    0  503  0.76922418496E+02 -0.84597397035E+02 -0.15931759982E+03  0.26075176818E+03  0.17185927076E+03 0.  0.
        -24    2    3    3    0    0  0.63702317281E+02 -0.95556782455E+02 -0.55910975280E+02  0.15582370138E+03  0.89251917933E+02 0.  0.
          6    2    1    2  501    0 -0.76922418496E+02  0.84597397035E+02 -0.51503077778E+03  0.55479816306E+03  0.17166980404E+03 0.  0.
         24    2    5    5    0    0 -0.64915893194E+02  0.11075088280E+03 -0.28230472842E+03  0.32025250542E+03  0.79911678178E+02 0.  0.
          5    1    5    5  501    0 -0.12006525302E+02 -0.26153485760E+02 -0.23272604936E+03  0.23454565764E+03  0.47000000000E+01 0. -1.
        -11    1    6    6    0    0 -0.18650497070E+02  0.17850900720E+02 -0.80887051635E+01  0.27054072682E+02  0.00000000000E+00 0.  1.
         12    1    6    6    0    0 -0.46265396124E+02  0.92899982075E+02 -0.27421602326E+03  0.29319843274E+03  0.00000000000E+00 0. -1.
         -5    1    3    3    0  503  0.13220101215E+02  0.10959385419E+02 -0.10340662454E+03  0.10492806680E+03  0.47000000000E+01 0.  1.
         11    1    4    4    0    0  0.55243842455E+02 -0.10184402465E+03 -0.72130794036E+02  0.13648054416E+03  0.00000000000E+00 0. -1.
        -12    1    4    4    0    0  0.84584748253E+01  0.62872421933E+01  0.16219818756E+02  0.19343157220E+02  0.00000000000E+00 0.  1.
</event>
<event>
12    1  0.1061634E+000  0.2479752E+03  0.7818608E-02  0.1114712E+00
         21   -1    0    0  501  502  0.00000000000E+00  0.00000000000E+00  0.28028091133E+03  0.28028091133E+03  0.00000000000E+00 0. -1.
         21   -1    0    0  502  503 -0.00000000000E+00 -0.00000000000E+00 -0.23799743161E+03  0.23799743161E+03  0.00000000000E+00 0. -1.
         -6    2    1    2    0  503  0.11198910012E+03 -0.13791722077E+03  0.94910747995E+02  0.26551791152E+03  0.17299997954E+03 0.  0.
        -24    2    3    3    0    0  0.11710063335E+03 -0.15776543405E+03  0.11112851345E+03  0.23896258703E+03  0.78428827521E+02 0.  0.
          6    2    1    2  501    0 -0.11198910012E+03  0.13791722077E+03 -0.52627268268E+02  0.25276043143E+03  0.17191709629E+03 0.  0.
         24    2    5    5    0    0 -0.10014062447E+03  0.12058977101E+03  0.12862052630E+02  0.18382881283E+03  0.95171227200E+02 0.  0.
          5    1    5    5  501    0 -0.11848475649E+02  0.17327449766E+02 -0.65489320899E+02  0.68931618597E+02  0.47000000000E+01 0. -1.
        -11    1    6    6    0    0 -0.37767862861E+01  0.30145447427E+02 -0.32131223517E+02  0.44220217547E+02  0.00000000000E+00 0.  1.
         12    1    6    6    0    0 -0.96363838187E+02  0.90444323581E+02  0.44993276148E+02  0.13960859528E+03  0.00000000000E+00 0. -1.
         -5    1    3    3    0  503 -0.51115332270E+01  0.19848213274E+02 -0.16217765460E+02  0.26555324487E+02  0.47000000000E+01 0.  1.
         11    1    4    4    0    0 -0.53212851802E+01  0.90082430923E+00  0.16460944621E+02  0.17323113411E+02  0.00000000000E+00 0. -1.
        -12    1    4    4    0    0  0.12242191853E+03 -0.15866625836E+03  0.94667568833E+02  0.22163947362E+03  0.00000000000E+00 0.  1.
</event>
<event>
12    1  0.1061634E+000  0.2490970E+03  0.7818608E-02  0.1113981E+00
         21   -1    0    0  501  502  0.00000000000E+00  0.00000000000E+00  0.12360190049E+03  0.12360190049E+03  0.00000000000E+00 0. -1.
         21   -1    0    0  502  503 -0.00000000000E+00 -0.00000000000E+00 -0.52950296264E+03  0.52950296264E+03  0.00000000000E+00 0. -1.
         -6    2    1    2    0  503  0.10127184441E+03 -0.14796521522E+03 -0.12702611031E+03  0.27961570445E+03  0.17291506032E+03 0.  0.
        -24    2    3    3    0    0  0.89822312269E+02 -0.22726168117E+02 -0.81658129570E+02  0.14583882160E+03  0.77565361234E+02 0.  0.
          6    2    1    2  501    0 -0.10127184441E+03  0.14796521522E+03 -0.27887495184E+03  0.37348915869E+03  0.17196866432E+03 0.  0.
         24    2    5    5    0    0 -0.13199137919E+00  0.65647024770E+02 -0.18755312767E+03  0.21421794371E+03  0.80022511995E+02 0.  0.
          5    1    5    5  501    0 -0.10113985303E+03  0.82318190453E+02 -0.91321824171E+02  0.15927121498E+03  0.47000000000E+01 0. -1.
        -11    1    6    6    0    0  0.16449888896E+02 -0.87146292396E+01 -0.10278424437E+02  0.21264750560E+02  0.00000000000E+00 0.  1.
         12    1    6    6    0    0 -0.16581880276E+02  0.74361654010E+02 -0.17727470323E+03  0.19295319315E+03  0.00000000000E+00 0. -1.
         -5    1    3    3    0  503  0.11449532140E+02 -0.12523904711E+03 -0.45367980741E+02  0.13377688284E+03  0.47000000000E+01 0.  1.
         11    1    4    4    0    0  0.42935869652E+02  0.72218248627E+01  0.39749279476E+01  0.43720060720E+02  0.00000000000E+00 0. -1.
        -12    1    4    4    0    0  0.46886442617E+02 -0.29947992980E+02 -0.85633057517E+02  0.10211876088E+03  0.00000000000E+00 0.  1.
</event>
<event>
12    1  0.1061634E+000  0.1744886E+03  0.7818608E-02  0.1173249E+00
         21   -1    0    0  501  502  0.00000000000E+00  0.00000000000E+00  0.34958566074E+03  0.34958566074E+03  0.00000000000E+00 0.  1.
         21   -1    0    0  502  503 -0.00000000000E+00 -0.00000000000E+00 -0.92271024938E+02  0.92271024938E+02  0.00000000000E+00 0.  1.
         -6    2    1    2    0  503  0.58804351635E+01 -0.18786970492E+02  0.18102465828E+03  0.25141917475E+03  0.17336131272E+03 0.  0.
        -24    2    3    3    0    0 -0.35756120837E+02 -0.46221990812E+02  0.17453283237E+03  0.20091653186E+03  0.80565318759E+02 0.  0.
          6    2    1    2  501    0 -0.58804351635E+01  0.18786970492E+02  0.76289977518E+02  0.19043751092E+03  0.17337460921E+03 0.  0.
         24    2    5    5    0    0 -0.68005577563E+02  0.26997577674E+02  0.66823987324E+02  0.12688719732E+03  0.79254575783E+02 0.  0.
          5    1    5    5  501    0  0.62125142399E+02 -0.82106071816E+01  0.94659901940E+01  0.63550313601E+02  0.47000000000E+01 0. -1.
        -11    1    6    6    0    0  0.13571384284E+02  0.32116724395E+01  0.32273123053E+02  0.35157528110E+02  0.00000000000E+00 0.  1.
         12    1    6    6    0    0 -0.81576961846E+02  0.23785905234E+02  0.34550864271E+02  0.91729669212E+02  0.00000000000E+00 0. -1.
         -5    1    3    3    0  503  0.41636556000E+02  0.27435020319E+02  0.64918259085E+01  0.50502642892E+02  0.47000000000E+01 0.  1.
         13    1    4    4    0    0 -0.17684410987E+02  0.15756456924E+01  0.13538587601E+03  0.13654507122E+03  0.00000000000E+00 0. -1.
        -14    1    4    4    0    0 -0.18071709849E+02 -0.47797636504E+02  0.39146956356E+02  0.64371460635E+02  0.00000000000E+00 0.  1.
</event>
<event>
12    1  0.1061634E+000  0.2168340E+03  0.7818608E-02  0.1136492E+00
         21   -1    0    0  503  502  0.00000000000E+00  0.00000000000E+00  0.65882266158E+02  0.65882266158E+02  0.00000000000E+00 0. -1.
         21   -1    0    0  501  503 -0.00000000000E+00 -0.00000000000E+00 -0.71130242330E+03  0.71130242330E+03  0.00000000000E+00 0. -1.
          6    2    1    2  501    0  0.13025223409E+03 -0.23741113213E+02 -0.34174383020E+03  0.40472932256E+03  0.17171981281E+03 0.  0.
         24    2    3    3    0    0  0.10742991210E+03 -0.77977889184E+02 -0.27526795457E+03  0.31582702624E+03  0.79702738202E+02 0.  0.
         -6    2    1    2    0  502 -0.13025223409E+03  0.23741113213E+02 -0.30367632693E+03  0.37245536690E+03  0.17021869418E+03 0.  0.
        -24    2    5    5    0    0 -0.13468066448E+03  0.23129999863E+02 -0.14408974694E+03  0.21273701802E+03  0.76297479531E+02 0.  0.
          5    1    3    3  501    0  0.22822321997E+02  0.54236775971E+02 -0.66475875636E+02  0.88902296318E+02  0.47000000000E+01 0. -1.
        -11    1    4    4    0    0  0.32756801160E+02 -0.54641571284E+02 -0.18860681221E+03  0.19907596276E+03  0.00000000000E+00 0.  1.
         12    1    4    4    0    0  0.74673110936E+02 -0.23336317900E+02 -0.86661142355E+02  0.11675106348E+03  0.00000000000E+00 0. -1.
         -5    1    5    5    0  502  0.44284303861E+01  0.61111334981E+00 -0.15958657999E+03  0.15971834888E+03  0.47000000000E+01 0.  1.
         13    1    6    6    0    0 -0.47206862331E+02  0.45429600367E+02 -0.50625235807E+02  0.82796442805E+02  0.00000000000E+00 0. -1.
        -14    1    6    6    0    0 -0.87473802148E+02 -0.22299600503E+02 -0.93464511136E+02  0.12994057521E+03  0.00000000000E+00 0.  1.
</event>
<event>
12    1  0.1061634E+000  0.1822791E+03  0.7818608E-02  0.1165621E+00
         21   -1    0    0  503  502  0.00000000000E+00  0.00000000000E+00  0.93529465928E+03  0.93529465928E+03  0.00000000000E+00 0.  1.
         21   -1    0    0  501  503 -0.00000000000E+00 -0.00000000000E+00 -0.99037776853E+02  0.99037776853E+02  0.00000000000E+00 0.  1.
          6    2    1    2  501    0 -0.57955692260E+02 -0.14255465852E+02  0.39686561556E+01  0.18232234801E+03  0.17223126249E+03 0.  0.
         24    2    3    3    0    0  0.18867585827E+01  0.16947215242E+02  0.54952641905E+02  0.97609993340E+02  0.78848906049E+02 0.  0.
         -6    2    1    2    0  502  0.57955692260E+02  0.14255465852E+02  0.83228822627E+03  0.85201008812E+03  0.17220748563E+03 0.  0.
        -24    2    5    5    0    0 -0.94695659504E+01 -0.17614256987E+02  0.64478521982E+03  0.65016531582E+03  0.81037173377E+02 0.  0.
          5    1    3    3  501    0 -0.59842450843E+02 -0.31202681095E+02 -0.50983985750E+02  0.84712354667E+02  0.47000000000E+01 0. -1.
        -13    1    4    4    0    0 -0.23758048975E+02  0.39602787867E+02  0.35484951798E+02  0.58240943520E+02  0.00000000000E+00 0.  1.
         14    1    4    4    0    0  0.25644807558E+02 -0.22655572625E+02  0.19467690107E+02  0.39369049820E+02  0.00000000000E+00 0. -1.
         -5    1    5    5    0  502  0.67425258210E+02  0.31869722840E+02  0.18750300645E+03  0.20184477230E+03  0.47000000000E+01 0.  1.
         13    1    6    6    0    0  0.13811038585E+02 -0.36675470771E+02  0.53181045520E+03  0.53325246854E+03  0.00000000000E+00 0. -1.
        -14    1    6    6    0    0 -0.23280604535E+02  0.19061213784E+02  0.11297476462E+03  0.11691284728E+03  0.00000000000E+00 0.  1.
</event>
<event>
12    1  0.1061634E+000  0.1957349E+03  0.7818608E-02  0.1153588E+00
         21   -1    0    0  503  502  0.00000000000E+00  0.00000000000E+00  0.67469603393E+02  0.67469603393E+02  0.00000000000E+00 0. -1.
         21   -1    0    0  501  503 -0.00000000000E+00 -0.00000000000E+00 -0.69010960305E+03  0.69010960305E+03  0.00000000000E+00 0. -1.
          6    2    1    2  501    0 -0.71265421348E+02  0.58082448344E+02 -0.15075509050E+03  0.24706119913E+03  0.17279990660E+03 0.  0.
         24    2    3    3    0    0  0.17399062057E+02  0.48853636688E+02 -0.11902453065E+03  0.15232218916E+03  0.79660562617E+02 0.  0.
         -6    2    1    2    0  502  0.71265421348E+02 -0.58082448344E+02 -0.47188490916E+03  0.51051800732E+03  0.17175836868E+03 0.  0.
        -24    2    5    5    0    0  0.24583121681E+02 -0.79924709832E+01 -0.40762959279E+03  0.41650163312E+03  0.81507766568E+02 0.  0.
          5    1    3    3  501    0 -0.88664483405E+02  0.92288116565E+01 -0.31730559847E+02  0.94739009971E+02  0.47000000000E+01 0. -1.
        -11    1    4    4    0    0 -0.27616777587E+02  0.70423761221E+01 -0.16879559327E+02  0.33124024345E+02  0.00000000000E+00 0.  1.
         12    1    4    4    0    0  0.45015839644E+02  0.41811260566E+02 -0.10214497132E+03  0.11919816482E+03  0.00000000000E+00 0. -1.
         -5    1    5    5    0  502  0.46682299667E+02 -0.50089977361E+02 -0.64255316375E+02  0.94016374195E+02  0.47000000000E+01 0.  1.
         13    1    6    6    0    0 -0.29130101342E+02  0.45522351828E+00 -0.10226439650E+03  0.10633332885E+03  0.00000000000E+00 0. -1.
        -14    1    6    6    0    0  0.53713223023E+02 -0.84476945015E+01 -0.30536519629E+03  0.31016830427E+03  0.00000000000E+00 0.  1.
</event>
<event>
12    1  0.1061634E+000  0.2461103E+03  0.7818608E-02  0.1116016E+00
         21   -1    0    0  503  502  0.00000000000E+00  0.00000000000E+00  0.18903819538E+03  0.18903819538E+03  0.00000000000E+00 0. -1.
         21   -1    0    0  501  503 -0.00000000000E+00 -0.00000000000E+00 -0.80421099239E+03  0.80421099239E+03  0.00000000000E+00 0. -1.
          6    2    1    2  501    0  0.17498655358E+03 -0.26399817629E+02  0.77982511183E+02  0.25816959927E+03  0.17103515904E+03 0.  0.
         24    2    3    3    0    0  0.92790516024E+02  0.31476518712E+02  0.92737874510E+02  0.15645593428E+03  0.79229381589E+02 0.  0.
         -6    2    1    2    0  502 -0.17498655358E+03  0.26399817629E+02 -0.69315530820E+03  0.73507958851E+03  0.16899844925E+03 0.  0.
        -24    2    5    5    0    0 -0.99485014995E+02 -0.13077812220E+01 -0.21299804270E+03  0.24821073248E+03  0.79633052315E+02 0.  0.
          5    1    3    3  501    0  0.82196037560E+02 -0.57876336341E+02 -0.14755363327E+02  0.10171366499E+03  0.47000000000E+01 0. -1.
        -13    1    4    4    0    0  0.71203904054E+02 -0.13487032500E+02  0.72859241294E+02  0.10276363676E+03  0.00000000000E+00 0.  1.
         14    1    4    4    0    0  0.21586611970E+02  0.44963551212E+02  0.19878633216E+02  0.53692297515E+02  0.00000000000E+00 0. -1.
         -5    1    5    5    0  502 -0.75501538589E+02  0.27707598851E+02 -0.48015726550E+03  0.48686885603E+03  0.47000000000E+01 0.  1.
         13    1    6    6    0    0 -0.10546696017E+02 -0.29986477328E+02 -0.35753095571E+02  0.47840416619E+02  0.00000000000E+00 0. -1.
        -14    1    6    6    0    0 -0.88938318978E+02  0.28678696106E+02 -0.17724494713E+03  0.20037031586E+03  0.00000000000E+00 0.  1.
</event>
<event>
12    1  0.1061634E+000  0.2519772E+03  0.7818608E-02  0.1112124E+00
         21   -1    0    0  501  502  0.00000000000E+00  0.00000000000E+00  0.45244453817E+02  0.45244453817E+02  0.00000000000E+00 0.  1.
         21   -1    0    0  502  503 -0.00000000000E+00 -0.00000000000E+00 -0.17882923797E+04  0.17882923797E+04  0.00000000000E+00 0.  1.
         -6    2    1    2    0  503 -0.78393796391E+02 -0.16619291587E+03 -0.12986480456E+04  0.13228678206E+04  0.17241476668E+03 0.  0.
        -24    2    3    3    0    0 -0.10503481189E+03 -0.15649893665E+03 -0.12476537686E+04  0.12643338712E+04  0.79849751117E+02 0.  0.
          6    2    1    2  501    0  0.78393796391E+02  0.16619291587E+03 -0.44439988021E+03  0.51066901287E+03  0.17183106406E+03 0.  0.
         24    2    5    5    0    0  0.26791291795E+02  0.17968319129E+03 -0.34199047144E+03  0.39510698184E+03  0.78410598722E+02 0.  0.
          5    1    5    5  501    0  0.51602504596E+02 -0.13490275421E+02 -0.10240940877E+03  0.11556203103E+03  0.47000000000E+01 0. -1.
        -13    1    6    6    0    0  0.20976661512E+02  0.20953944237E+02 -0.19114159439E+02  0.35276609791E+02  0.00000000000E+00 0.  1.
         14    1    6    6    0    0  0.58146302836E+01  0.15872924706E+03 -0.32287631200E+03  0.35983037205E+03  0.00000000000E+00 0. -1.
         -5    1    3    3    0  503  0.26641015499E+02 -0.96939792195E+01 -0.50994277061E+02  0.58533949405E+02  0.47000000000E+01 0.  1.
         11    1    4    4    0    0 -0.22060246128E+02 -0.28170752668E+02 -0.49680938799E+03  0.49809618927E+03  0.00000000000E+00 0. -1.
        -12    1    4    4    0    0 -0.82974565762E+02 -0.12832818398E+03 -0.75084438058E+03  0.76623768193E+03  0.00000000000E+00 0.  1.
</event>
<event>
12    1  0.1061634E+000  0.4639426E+03  0.7818608E-02  0.1023664E+00
         21   -1    0    0  503  502  0.00000000000E+00  0.00000000000E+00  0.57698871344E+03  0.57698871344E+03  0.00000000000E+00 0. -1.
         21   -1    0    0  501  503 -0.00000000000E+00 -0.00000000000E+00 -0.41881922495E+03  0.41881922495E+03  0.00000000000E+00 0. -1.
          6    2    1    2  501    0  0.39644062081E+03  0.16820702694E+03 -0.85939608909E+02  0.47156368959E+03  0.17183692041E+03 0.  0.
         24    2    3    3    0    0  0.25517058654E+03  0.85944380554E+02 -0.11932157843E+03  0.30464810774E+03  0.77938217115E+02 0.  0.
         -6    2    1    2    0  502 -0.39644062081E+03 -0.16820702694E+03  0.24410909740E+03  0.52424424880E+03  0.17258044854E+03 0.  0.
        -24    2    5    5    0    0 -0.33576271834E+03 -0.17960286605E+03  0.24934705160E+03  0.46210570068E+03  0.79836920893E+02 0.  0.
          5    1    3    3  501    0  0.14127003427E+03  0.82262646384E+02  0.33381969522E+02  0.16691558185E+03  0.47000000000E+01 0. -1.
        -13    1    4    4    0    0  0.14298760900E+03  0.11123327400E+02 -0.43120671089E+02  0.14976173415E+03  0.00000000000E+00 0.  1.
         14    1    4    4    0    0  0.11218297754E+03  0.74821053154E+02 -0.76200907342E+02  0.15488637359E+03  0.00000000000E+00 0. -1.
         -5    1    5    5    0  502 -0.60677902479E+02  0.11395839116E+02 -0.52379541975E+01  0.62138548121E+02  0.47000000000E+01 0.  1.
         13    1    6    6    0    0 -0.46963426677E+02  0.19313204237E+01  0.20137406069E+02  0.51135198904E+02  0.00000000000E+00 0. -1.
        -14    1    6    6    0    0 -0.28879929166E+03 -0.18153418648E+03  0.22920964553E+03  0.41097050177E+03  0.00000000000E+00 0.  1.
</event>
<event>
12    1  0.1061634E+000  0.2196951E+03  0.7818608E-02  0.1134366E+00
         21   -1    0    0  503  502  0.00000000000E+00  0.00000000000E+00  0.75364304860E+03  0.75364304860E+03  0.00000000000E+00 0.  1.
         21   -1    0    0  501  503 -0.00000000000E+00 -0.00000000000E+00 -0.19996865930E+03  0.19996865930E+03  0.00000000000E+00 0. -1.
          6    2    1    2  501    0 -0.13393080776E+03  0.26369176815E+02 -0.11656814411E+03  0.24870474983E+03  0.17214274778E+03 0.  0.
         24    2    3    3    0    0 -0.10220075106E+03  0.36471473853E+02 -0.63848032718E+01  0.13350357144E+03  0.77506618769E+02 0.  0.
         -6    2    1    2    0  502  0.13393080776E+03 -0.26369176815E+02  0.67024253341E+03  0.70490695807E+03  0.17039944599E+03 0.  0.
        -24    2    5    5    0    0  0.15338726023E+03 -0.24662762655E+01  0.63289227394E+03  0.65625478361E+03  0.81141706149E+02 0.  0.
          5    1    3    3  501    0 -0.31730056700E+02 -0.10102297038E+02 -0.11018334084E+03  0.11520117838E+03  0.47000000000E+01 0. -1.
        -13    1    4    4    0    0  0.22573597172E+01  0.27231878044E+02  0.57939646536E+01  0.27932792219E+02  0.00000000000E+00 0.  1.
         14    1    4    4    0    0 -0.10445811078E+03  0.92395958080E+01 -0.12178767925E+02  0.10557077922E+03  0.00000000000E+00 0. -1.
         -5    1    5    5    0  502 -0.19456452470E+02 -0.23902900549E+02  0.37350259466E+02  0.48652174459E+02  0.47000000000E+01 0.  1.
         11    1    6    6    0    0  0.51664783701E+02 -0.36426843513E+02  0.17799085606E+03  0.18888332283E+03  0.00000000000E+00 0. -1.
        -12    1    6    6    0    0  0.10172247653E+03  0.33960567247E+02  0.45490141788E+03  0.46737146078E+03  0.00000000000E+00 0.  1.
</event>
<event>
12    1  0.1061634E+000  0.1797084E+03  0.7818608E-02  0.1168596E+00
         21   -1    0    0  503  502  0.00000000000E+00  0.00000000000E+00  0.88498537658E+02  0.88498537658E+02  0.00000000000E+00 0. -1.
         21   -1    0    0  501  503 -0.00000000000E+00 -0.00000000000E+00 -0.51730188823E+03  0.51730188823E+03  0.00000000000E+00 0. -1.
          6    2    1    2  501    0  0.52296802837E+02  0.31795625649E+01 -0.38018814167E+03  0.41963239329E+03  0.16971522391E+03 0.  0.
         24    2    3    3    0    0  0.14416612893E+02 -0.20788220082E+02 -0.77548560623E+02  0.11365499312E+03  0.79143473425E+02 0.  0.
         -6    2    1    2    0  502 -0.52296802837E+02 -0.31795625649E+01 -0.48615208893E+02  0.18616803259E+03  0.17190122925E+03 0.  0.
        -24    2    5    5    0    0 -0.67734502177E+02 -0.30278024373E+02 -0.84160744050E+02  0.13864725542E+03  0.81457406366E+02 0.  0.
          5    1    3    3  501    0  0.37880189945E+02  0.23967782646E+02 -0.30263958105E+03  0.30597740017E+03  0.47000000000E+01 0. -1.
        -11    1    4    4    0    0  0.67318786568E-01 -0.48396652111E+02 -0.62625483335E+02  0.79146646362E+02  0.00000000000E+00 0.  1.
         12    1    4    4    0    0  0.14349294106E+02  0.27608432030E+02 -0.14923077288E+02  0.34508346762E+02  0.00000000000E+00 0. -1.
         -5    1    5    5    0  502  0.15437699340E+02  0.27098461808E+02  0.35545535157E+02  0.47520777170E+02  0.47000000000E+01 0.  1.
         13    1    6    6    0    0  0.18665023448E+02 -0.67756406802E+01 -0.92547530117E+01  0.21907598231E+02  0.00000000000E+00 0. -1.
        -14    1    6    6    0    0 -0.86399525625E+02 -0.23502383693E+02 -0.74905991039E+02  0.11673965719E+03  0.00000000000E+00 0.  1.
</event>
<event>
12    1  0.1061634E+000  0.1985722E+03  0.7818608E-02  0.1150960E+00
         21   -1    0    0  503  502  0.00000000000E+00  0.00000000000E+00  0.30534828140E+03  0.30534828140E+03  0.00000000000E+00 0.  1.
         21   -1    0    0  501  503 -0.00000000000E+00 -0.00000000000E+00 -0.13267748708E+03  0.13267748708E+03  0.00000000000E+00 0.  1.
          6    2    1    2  501    0  0.15357395212E+02  0.97728341135E+02  0.12230090310E+03  0.23321324248E+03  0.17217499041E+03 0.  0.
         24    2    3    3    0    0  0.59784212326E+02  0.10998712310E+02  0.59723617180E+02  0.11730906953E+03  0.80618754818E+02 0.  0.
         -6    2    1    2    0  502 -0.15357395212E+02 -0.97728341135E+02  0.50369891210E+02  0.20481252600E+03  0.17211730481E+03 0.  0.
        -24    2    5    5    0    0  0.31477703203E+02 -0.95525315632E+02 -0.85617268040E+01  0.12935786831E+03  0.80896373233E+02 0.  0.
          5    1    3    3  501    0 -0.44426817114E+02  0.86729628825E+02  0.62577285924E+02  0.11590417296E+03  0.47000000000E+01 0. -1.
        -11    1    4    4    0    0  0.54239339805E+02 -0.99595647464E+01  0.14849037205E+01  0.55166147695E+02  0.00000000000E+00 0.  1.
         12    1    4    4    0    0  0.55448725208E+01  0.20958277056E+02  0.58238713460E+02  0.62142921832E+02  0.00000000000E+00 0. -1.
         -5    1    5    5    0  502 -0.46835098415E+02 -0.22030255033E+01  0.58931618014E+02  0.75454657687E+02  0.47000000000E+01 0.  1.
         13    1    6    6    0    0  0.44352193939E+02 -0.10376168215E+03 -0.23714647004E+01  0.11286818699E+03  0.00000000000E+00 0. -1.
        -14    1    6    6    0    0 -0.12874490736E+02  0.82363665170E+01 -0.61902621036E+01  0.16489681320E+02  0.00000000000E+00 0.  1.
</event>
<event>
12    1  0.1061634E+000  0.1995946E+03  0.7818608E-02  0.1150118E+00
         21   -1    0    0  501  502  0.00000000000E+00  0.00000000000E+00  0.13889454393E+03  0.13889454393E+03  0.00000000000E+00 0.  1.
         21   -1    0    0  502  503 -0.00000000000E+00 -0.00000000000E+00 -0.45425761656E+03  0.45425761656E+03  0.00000000000E+00 0.  1.
         -6    2    1    2    0  503 -0.78446886083E+02 -0.62959761938E+02  0.22551780121E+02  0.20069269490E+03  0.17219503314E+03 0.  0.
        -24    2    3    3    0    0  0.22998660178E+02 -0.10817585498E+02 -0.30434287520E+01  0.83700344134E+02  0.79690191514E+02 0.  0.
          6    2    1    2  501    0  0.78446886083E+02  0.62959761938E+02 -0.33791485275E+03  0.39245946560E+03  0.17239529827E+03 0.  0.
         24    2    5    5    0    0  0.10978220916E+02  0.56413409274E+01 -0.26420670034E+03  0.27716677763E+03  0.82848633394E+02 0.  0.
          5    1    5    5  501    0  0.67468665167E+02  0.57318421011E+02 -0.73708152413E+02  0.11529268797E+03  0.47000000000E+01 0. -1.
        -11    1    6    6    0    0 -0.20745837429E+02  0.28862307822E+01 -0.22795565398E+03  0.22891592404E+03  0.00000000000E+00 0.  1.
         12    1    6    6    0    0  0.31724058345E+02  0.27551101452E+01 -0.36251046361E+02  0.48250853589E+02  0.00000000000E+00 0. -1.
         -5    1    3    3    0  503 -0.10144554626E+03 -0.52142176440E+02  0.25595208873E+02  0.11699235076E+03  0.47000000000E+01 0.  1.
         13    1    4    4    0    0  0.25022075230E+02 -0.43711520956E+02 -0.54266967920E+01  0.50658171613E+02  0.00000000000E+00 0. -1.
        -14    1    4    4    0    0 -0.20234150521E+01  0.32893935458E+02  0.23832680400E+01  0.33042172521E+02  0.00000000000E+00 0.  1.
</event>
<event>
12    1  0.1061634E+000  0.1743034E+03  0.7818608E-02  0.1173888E+00
         21   -1    0    0  503  502  0.00000000000E+00  0.00000000000E+00  0.22223040347E+03  0.22223040347E+03  0.00000000000E+00 0. -1.
         21   -1    0    0  501  503 -0.00000000000E+00 -0.00000000000E+00 -0.13969960414E+03  0.13969960414E+03  0.00000000000E+00 0. -1.
          6    2    1    2  501    0  0.11805813796E+02  0.12619403472E+02  0.73555889787E+02  0.18918810946E+03  0.17344464609E+03 0.  0.
         24    2    3    3    0    0  0.20405865813E+02 -0.66214876841E+02  0.81231701342E+01  0.86269037137E+02  0.50749892619E+02 0.  0.
         -6    2    1    2    0  502 -0.11805813796E+02 -0.12619403472E+02  0.89749095421E+01  0.17274189815E+03  0.17164086865E+03 0.  0.
        -24    2    5    5    0    0 -0.32164463043E+01  0.12349628385E+02 -0.57906955162E+02  0.10068286948E+03  0.81369317943E+02 0.  0.
          5    1    3    3  501    0 -0.86000520162E+01  0.78834280313E+02  0.65432719653E+02  0.10291907233E+03  0.47000000000E+01 0. -1.
        -13    1    4    4    0    0 -0.58166913285E+01 -0.97028175026E+01 -0.15886691250E+02  0.19502961939E+02  0.00000000000E+00 0.  1.
         14    1    4    4    0    0  0.26222557141E+02 -0.56512059339E+02  0.24009861384E+02  0.66766075198E+02  0.00000000000E+00 0. -1.
         -5    1    5    5    0  502 -0.85893674921E+01 -0.24969031857E+02  0.66881864705E+02  0.72059028665E+02  0.47000000000E+01 0.  1.
         11    1    6    6    0    0  0.15035980432E+02  0.80990979509E+00 -0.72870996386E+02  0.74410474906E+02  0.00000000000E+00 0. -1.
        -12    1    6    6    0    0 -0.18252426736E+02  0.11539718590E+02  0.14964041224E+02  0.26272394574E+02  0.00000000000E+00 0.  1.
</event>
<event>
12    1  0.1061634E+000  0.2338701E+03  0.7818608E-02  0.1124772E+00
         21   -1    0    0  501  502  0.00000000000E+00  0.00000000000E+00  0.83423786104E+03  0.83423786104E+03  0.00000000000E+00 0. -1.
         21   -1    0    0  502  503 -0.00000000000E+00 -0.00000000000E+00 -0.77540972665E+02  0.77540972665E+02  0.00000000000E+00 0. -1.
         -6    2    1    2    0  503  0.13118832148E+03  0.74582859390E+02  0.57037725736E+03  0.61646204575E+03  0.17866801487E+03 0.  0.
        -24    2    3    3    0    0  0.97116727213E+02  0.76100670958E+02  0.22026336138E+03  0.26465953376E+03  0.79408750268E+02 0.  0.
          6    2    1    2  501    0 -0.13118832148E+03 -0.74582859390E+02  0.18631963102E+03  0.29531678796E+03  0.17240655944E+03 0.  0.
         24    2    5    5    0    0 -0.44277677869E+02 -0.12047344927E+01  0.18713251483E+02  0.92704355840E+02  0.79258738748E+02 0.  0.
          5    1    5    5  501    0 -0.86910643611E+02 -0.73378124898E+02  0.16760637954E+03  0.20261243212E+03  0.47000000000E+01 0. -1.
        -13    1    6    6    0    0 -0.24794265865E+02  0.71319183466E+01  0.49212583281E+02  0.55565261020E+02  0.00000000000E+00 0.  1.
         14    1    6    6    0    0 -0.19483412004E+02 -0.83366528393E+01 -0.30499331798E+02  0.37139094819E+02  0.00000000000E+00 0. -1.
         -5    1    3    3    0  503  0.34071594267E+02 -0.15178115677E+01  0.35011389598E+03  0.35180251199E+03  0.47000000000E+01 0.  1.
         13    1    4    4    0    0  0.36984214201E+02 -0.12992798857E+02  0.61593537420E+02  0.73009648500E+02  0.00000000000E+00 0. -1.
        -14    1    4    4    0    0  0.60132513012E+02  0.89093469815E+02  0.15866982396E+03  0.19164988526E+03  0.00000000000E+00 0.  1.
</event>
<event>
12    1  0.1061634E+000  0.2304024E+03  0.7818608E-02  0.1126663E+00
         21   -1    0    0  503  502  0.00000000000E+00  0.00000000000E+00  0.49161620147E+03  0.49161620147E+03  0.00000000000E+00 0.  1.
         21   -1    0    0  501  503 -0.00000000000E+00 -0.00000000000E+00 -0.11511177790E+03  0.11511177790E+03  0.00000000000E+00 0.  1.
          6    2    1    2  501    0 -0.72462828462E+02 -0.13381857461E+03  0.10922300154E+03  0.25498026392E+03  0.17299421524E+03 0.  0.
         24    2    3    3    0    0 -0.68124133327E+02 -0.73397790181E+02 -0.17669157457E+01  0.12844826321E+03  0.80422019277E+02 0.  0.
         -6    2    1    2    0  502  0.72462828462E+02  0.13381857461E+03  0.26728142202E+03  0.35174771545E+03  0.17067168583E+03 0.  0.
        -24    2    5    5    0    0  0.43501235833E+02  0.14961238186E+03  0.26911118064E+03  0.31837622744E+03  0.68310850739E+02 0.  0.
          5    1    3    3  501    0 -0.43386951347E+01 -0.60420784426E+02  0.11098991729E+03  0.12653200072E+03  0.47000000000E+01 0. -1.
        -11    1    4    4    0    0 -0.18516753673E+01 -0.44976760796E+02 -0.26474812054E+02  0.52223111615E+02  0.00000000000E+00 0.  1.
         12    1    4    4    0    0 -0.66272457960E+02 -0.28421029385E+02  0.24707896309E+02  0.76225151592E+02  0.00000000000E+00 0. -1.
         -5    1    5    5    0  502  0.28961592629E+02 -0.15793807251E+02 -0.18297586194E+01  0.33371488005E+02  0.47000000000E+01 0.  1.
         13    1    6    6    0    0  0.40098385245E+02  0.76316870337E+02  0.19908395606E+03  0.21694830434E+03  0.00000000000E+00 0. -1.
        -14    1    6    6    0    0  0.34028505879E+01  0.73295511522E+02  0.70027224588E+02  0.10142792310E+03  0.00000000000E+00 0.  1.
</event>
<event>
12    1  0.1061634E+000  0.1988919E+03  0.7818608E-02  0.1152551E+00
         21   -1    0    0  503  502  0.00000000000E+00  0.00000000000E+00  0.28694105695E+03  0.28694105695E+03  0.00000000000E+00 0. -1.
         21   -1    0    0  501  503 -0.00000000000E+00 -0.00000000000E+00 -0.13631088627E+03  0.13631088627E+03  0.00000000000E+00 0. -1.
          6    2    1    2  501    0 -0.22984672554E+02 -0.96492883825E+02  0.35879452001E+02  0.19363114612E+03  0.16237768896E+03 0.  0.
         24    2    3    3    0    0 -0.28543890131E+02 -0.17458541660E+02  0.46992658799E+02  0.11348798979E+03  0.97732591828E+02 0.  0.
         -6    2    1    2    0  502  0.22984672554E+02  0.96492883825E+02  0.11475071867E+03  0.22962079709E+03  0.17239144764E+03 0.  0.
        -24    2    5    5    0    0  0.18742783824E+02  0.10082458724E+03  0.14729254543E+03  0.19618701533E+03  0.79229803156E+02 0.  0.
          5    1    3    3  501    0  0.55592175772E+01 -0.79034342165E+02 -0.11113206797E+02  0.80143156332E+02  0.47000000000E+01 0. -1.
        -13    1    4    4    0    0  0.33422528580E+02 -0.59400423645E+01 -0.14765726163E+01  0.33978372337E+02  0.00000000000E+00 0.  1.
         14    1    4    4    0    0 -0.61966418711E+02 -0.11518499296E+02  0.48469231415E+02  0.79509617455E+02  0.00000000000E+00 0. -1.
         -5    1    5    5    0  502  0.42418887301E+01 -0.43317034139E+01 -0.32541826754E+02  0.33433781763E+02  0.47000000000E+01 0.  1.
         11    1    6    6    0    0 -0.22506019385E+02  0.80491560091E+02  0.93129152420E+02  0.12513373320E+03  0.00000000000E+00 0. -1.
        -12    1    6    6    0    0  0.41248803209E+02  0.20333027148E+02  0.54163393007E+02  0.71053282128E+02  0.00000000000E+00 0.  1.
</event>
<event>
12    1  0.1061634E+000  0.2169868E+03  0.7818608E-02  0.1136565E+00
         21   -1    0    0  501  502  0.00000000000E+00  0.00000000000E+00  0.10818553131E+03  0.10818553131E+03  0.00000000000E+00 0.  1.
         21   -1    0    0  502  503 -0.00000000000E+00 -0.00000000000E+00 -0.52230224889E+03  0.52230224889E+03  0.00000000000E+00 0.  1.
         -6    2    1    2    0  503  0.10708424808E+02 -0.12993171515E+03 -0.74291261034E+02  0.22729474748E+03  0.17072430935E+03 0.  0.
        -24    2    3    3    0    0 -0.54914093883E+02 -0.11209165697E+03 -0.52120532545E+02  0.15561341213E+03  0.76934302194E+02 0.  0.
          6    2    1    2  501    0 -0.10708424808E+02  0.12993171515E+03 -0.33982545654E+03  0.40319303272E+03  0.17345420074E+03 0.  0.
         24    2    5    5    0    0 -0.49398218610E+02  0.56347031808E+02 -0.68074272446E+02  0.11897058142E+03  0.62487764224E+02 0.  0.
          5    1    5    5  501    0  0.38689793802E+02  0.73584683337E+02 -0.27175118410E+03  0.28422245130E+03  0.47000000000E+01 0. -1.
        -13    1    6    6    0    0 -0.10830724129E+02  0.56559655914E+02 -0.30676988411E+02  0.65248577611E+02  0.00000000000E+00 0.  1.
         14    1    6    6    0    0 -0.38567494481E+02 -0.21262410549E+00 -0.37397284035E+02  0.53722003804E+02  0.00000000000E+00 0. -1.
         -5    1    3    3    0  503  0.65622518691E+02 -0.17840058176E+02 -0.22170728489E+02  0.71681335345E+02  0.47000000000E+01 0.  1.
         11    1    4    4    0    0 -0.29939749743E+02  0.17817730876E+01 -0.12359445829E+02  0.32439470267E+02  0.00000000000E+00 0. -1.
        -12    1    4    4    0    0 -0.24974344140E+02 -0.11387343006E+03 -0.39761086716E+02  0.12317394187E+03  0.00000000000E+00 0.  1.
</event>
<event>
12    1  0.1061634E+000  0.2323741E+03  0.7818608E-02  0.1125615E+00
         21   -1    0    0  501  502  0.00000000000E+00  0.00000000000E+00  0.88387822021E+03  0.88387822021E+03  0.00000000000E+00 0.  1.
         21   -1    0    0  502  503 -0.00000000000E+00 -0.00000000000E+00 -0.61307400049E+02  0.61307400049E+02  0.00000000000E+00 0.  1.
         -6    2    1    2    0  503  0.97821913756E+02  0.12013838402E+03  0.34293165180E+03  0.41222085246E+03  0.16829009261E+03 0.  0.
        -24    2    3    3    0    0  0.89127358856E+02  0.85326476593E+02  0.12994146168E+03  0.19617832130E+03  0.79855222615E+02 0.  0.
          6    2    1    2  501    0 -0.97821913756E+02 -0.12013838402E+03  0.47963916836E+03  0.53296476780E+03  0.17319166771E+03 0.  0.
         24    2    5    5    0    0 -0.41918573343E+02 -0.82172546051E+02  0.43499466288E+03  0.45183641153E+03  0.80164156151E+02 0.  0.
          5    1    5    5  501    0 -0.55903340413E+02 -0.37965837971E+02  0.44644505486E+02  0.81128356278E+02  0.47000000000E+01 0. -1.
        -13    1    6    6    0    0 -0.38040761476E+02  0.10688324696E+01  0.16180068594E+03  0.16621583531E+03  0.00000000000E+00 0.  1.
         14    1    6    6    0    0 -0.38778118665E+01 -0.83241378521E+02  0.27319397693E+03  0.28562057621E+03  0.00000000000E+00 0. -1.
         -5    1    3    3    0  503  0.86945548998E+01  0.34811907429E+02  0.21299019012E+03  0.21604253117E+03  0.47000000000E+01 0.  1.
         11    1    4    4    0    0  0.89313151757E+02  0.41196804523E+02  0.65855817639E+02  0.11836808901E+03  0.00000000000E+00 0. -1.
        -12    1    4    4    0    0 -0.18579290101E+00  0.44129672070E+02  0.64085644038E+02  0.77810232282E+02  0.00000000000E+00 0.  1.
</event>
<event>
12    1  0.1061634E+000  0.1856249E+03  0.7818608E-02  0.1162702E+00
         21   -1    0    0  501  502  0.00000000000E+00  0.00000000000E+00  0.10694323139E+03  0.10694323139E+03  0.00000000000E+00 0.  1.
         21   -1    0    0  502  503 -0.00000000000E+00 -0.00000000000E+00 -0.34892694472E+03  0.34892694472E+03  0.00000000000E+00 0.  1.
         -6    2    1    2    0  503 -0.62646671386E+02  0.30062401749E+02 -0.56179682955E+02  0.19394005533E+03  0.17212854165E+03 0.  0.
        -24    2    3    3    0    0 -0.45694109901E+02 -0.44559213136E+02 -0.67883639252E+01  0.10274045476E+03  0.80224958741E+02 0.  0.
          6    2    1    2  501    0  0.62646671386E+02 -0.30062401749E+02 -0.18580403037E+03  0.26193012078E+03  0.17104355303E+03 0.  0.
         24    2    5    5    0    0  0.94894330527E+02  0.17571897195E+02 -0.14335084900E+03  0.19028306526E+03  0.79652203222E+02 0.  0.
          5    1    5    5  501    0 -0.32247659140E+02 -0.47634298944E+02 -0.42453181370E+02  0.71647055517E+02  0.47000000000E+01 0. -1.
        -11    1    6    6    0    0 -0.18526994691E+01  0.27777275028E+02 -0.30907632954E+02  0.41596770045E+02  0.00000000000E+00 0.  1.
         12    1    6    6    0    0  0.96747029996E+02 -0.10205377833E+02 -0.11244321605E+03  0.14868629522E+03  0.00000000000E+00 0. -1.
         -5    1    3    3    0  503 -0.16952561486E+02  0.74621614885E+02 -0.49391319030E+02  0.91199600572E+02  0.47000000000E+01 0.  1.
         11    1    4    4    0    0 -0.25710179023E+01  0.19535565983E+02  0.12219168731E+02  0.23185265921E+02  0.00000000000E+00 0. -1.
        -12    1    4    4    0    0 -0.43123091998E+02 -0.64094779120E+02 -0.19007532656E+02  0.79555188841E+02  0.00000000000E+00 0.  1.
</event>
<event>
12    1  0.1061634E+000  0.1732510E+03  0.7818608E-02  0.1174807E+00
         21   -1    0    0  501  502  0.00000000000E+00  0.00000000000E+00  0.11261362559E+04  0.11261362559E+04  0.00000000000E+00 0.  1.
         21   -1    0    0  502  503 -0.00000000000E+00 -0.00000000000E+00 -0.30143901029E+02  0.30143901029E+02  0.00000000000E+00 0.  1.
         -6    2    1    2    0  503 -0.13968968525E+02 -0.11928418587E+02  0.75154462333E+03  0.77125562069E+03  0.17227446804E+03 0.  0.
        -24    2    3    3    0    0 -0.57063385327E+02 -0.12084616293E+01  0.67754183142E+03  0.68482328041E+03  0.81622924084E+02 0.  0.
          6    2    1    2  501    0  0.13968968525E+02  0.11928418587E+02  0.34444773153E+03  0.38502453623E+03  0.17106207788E+03 0.  0.
         24    2    5    5    0    0  0.10569538893E+02 -0.17345258075E+02  0.69570863381E+02  0.10853242619E+03  0.80787433266E+02 0.  0.
          5    1    5    5  501    0  0.33994296314E+01  0.29273676663E+02  0.27487686815E+03  0.27649211004E+03  0.47000000000E+01 0. -1.
        -11    1    6    6    0    0  0.18472535701E+01  0.11954661910E+02  0.76280883587E+02  0.77234056529E+02  0.00000000000E+00 0.  1.
         12    1    6    6    0    0  0.87222853234E+01 -0.29299919986E+02 -0.67100202064E+01  0.31298369664E+02  0.00000000000E+00 0. -1.
         -5    1    3    3    0  503  0.43094416802E+02 -0.10719956958E+02  0.74002791902E+02  0.86432340279E+02  0.47000000000E+01 0.  1.
         13    1    4    4    0    0 -0.56791026409E+02  0.28067110041E+02  0.56482637017E+03  0.56836767306E+03  0.00000000000E+00 0. -1.
        -14    1    4    4    0    0 -0.27235891760E+00 -0.29275571670E+02  0.11271546126E+03  0.11645560735E+03  0.00000000000E+00 0.  1.
</event>
<event>
12    1  0.1061634E+000  0.2570738E+03  0.7818608E-02  0.1110672E+00
         21   -1    0    0  501  502  0.00000000000E+00  0.00000000000E+00  0.12005706075E+04  0.12005706075E+04  0.00000000000E+00 0.  1.
         21   -1    0    0  502  503 -0.00000000000E+00 -0.00000000000E+00 -0.53092098555E+02  0.53092098555E+02  0.00000000000E+00 0.  1.
         -6    2    1    2    0  503  0.13275857460E+03 -0.11548471012E+03  0.61745833218E+03  0.66458859878E+03  0.17164398109E+03 0.  0.
        -24    2    3    3    0    0  0.29779970798E+02 -0.11334165556E+03  0.37050443191E+03  0.39697412910E+03  0.81127970275E+02 0.  0.
          6    2    1    2  501    0 -0.13275857460E+03  0.11548471012E+03  0.53002017677E+03  0.58907410729E+03  0.18741760507E+03 0.  0.
         24    2    5    5    0    0 -0.66731283936E+02  0.14523954565E+03  0.31440981309E+03  0.36157713527E+03  0.79604675149E+02 0.  0.
          5    1    5    5  501    0 -0.66027290664E+02 -0.29754835531E+02  0.21561036369E+03  0.22749697202E+03  0.47000000000E+01 0. -1.
        -11    1    6    6    0    0 -0.72458358497E+01  0.19544206079E+02  0.12430290351E+03  0.12603844632E+03  0.00000000000E+00 0.  1.
         12    1    6    6    0    0 -0.59485448087E+02  0.12569533957E+03  0.19010690957E+03  0.23553868895E+03  0.00000000000E+00 0. -1.
         -5    1    3    3    0  503  0.10297860380E+03 -0.21430545577E+01  0.24695390027E+03  0.26761446968E+03  0.47000000000E+01 0.  1.
         13    1    4    4    0    0  0.16292330258E+01 -0.50348101810E+02  0.57454796166E+02  0.76410989776E+02  0.00000000000E+00 0. -1.
        -14    1    4    4    0    0  0.28150737773E+02 -0.62993553750E+02  0.31304963575E+03  0.32056313932E+03  0.00000000000E+00 0.  1.
</event>
<event>
12    1  0.1061634E+000  0.1982539E+03  0.7818608E-02  0.1151478E+00
         21   -1    0    0  503  502  0.00000000000E+00  0.00000000000E+00  0.11055729710E+04  0.11055729710E+04  0.00000000000E+00 0.  1.
         21   -1    0    0  501  503 -0.00000000000E+00 -0.00000000000E+00 -0.35422991861E+02  0.35422991861E+02  0.00000000000E+00 0.  1.
          6    2    1    2  501    0  0.18951610469E+01 -0.99011280915E+02  0.50511881464E+03  0.54219314355E+03  0.17035716194E+03 0.  0.
         24    2    3    3    0    0  0.62967288654E+02 -0.80435418193E+02  0.38177026487E+03  0.40322616123E+03  0.80050396715E+02 0.  0.
         -6    2    1    2    0  502 -0.18951610469E+01  0.99011280915E+02  0.56503116447E+03  0.59880281928E+03  0.17174916063E+03 0.  0.
        -24    2    5    5    0    0 -0.38525929095E+02  0.10449703346E+03  0.26165234463E+03  0.29313518120E+03  0.71150599362E+02 0.  0.
          5    1    3    3  501    0 -0.61072127608E+02 -0.18575862721E+02  0.12334854977E+03  0.13896698232E+03  0.47000000000E+01 0. -1.
        -13    1    4    4    0    0  0.16309931579E+02 -0.72269851789E+01  0.21008038601E+03  0.21083645740E+03  0.00000000000E+00 0.  1.
         14    1    4    4    0    0  0.46657357075E+02 -0.73208433014E+02  0.17168987886E+03  0.19238970382E+03  0.00000000000E+00 0. -1.
         -5    1    5    5    0  502  0.36630768048E+02 -0.54857525418E+01  0.30337881983E+03  0.30566763809E+03  0.47000000000E+01 0.  1.
         11    1    6    6    0    0 -0.54173881946E+02  0.44919888557E+02  0.13171535341E+03  0.14933700210E+03  0.00000000000E+00 0. -1.
        -12    1    6    6    0    0  0.15647952851E+02  0.59577144899E+02  0.12993699123E+03  0.14379817910E+03  0.00000000000E+00 0.  1.
</event>
<event>
12    1  0.1061634E+000  0.1894966E+03  0.7818608E-02  0.1158946E+00
         21   -1    0    0  503  502  0.00000000000E+00  0.00000000000E+00  0.68448544929E+03  0.68448544929E+03  0.00000000000E+00 0.  1.
         21   -1    0    0  501  503 -0.00000000000E+00 -0.00000000000E+00 -0.55641295460E+02  0.55641295460E+02  0.00000000000E+00 0.  1.
          6    2    1    2  501    0  0.77301499311E+02  0.24199511152E+02  0.40329666653E+03  0.44554122255E+03  0.17116553865E+03 0.  0.
         24    2    3    3    0    0  0.73866735584E+02  0.61679723100E+02  0.38229978803E+03  0.40218775906E+03  0.79631543655E+02 0.  0.
         -6    2    1    2    0  502 -0.77301499311E+02 -0.24199511152E+02  0.22554748730E+03  0.29458552220E+03  0.17131206241E+03 0.  0.
        -24    2    5    5    0    0 -0.98567367547E+02 -0.35673425584E+02  0.97390110737E+02  0.16408536499E+03  0.80318454273E+02 0.  0.
          5    1    3    3  501    0  0.34347637270E+01 -0.37480211948E+02  0.20996878501E+02  0.43353463487E+02  0.47000000000E+01 0. -1.
        -11    1    4    4    0    0  0.42603350981E+02  0.65895377816E+02  0.16614103580E+03  0.18373919046E+03  0.00000000000E+00 0.  1.
         12    1    4    4    0    0  0.31263384603E+02 -0.42156547152E+01  0.21615875223E+03  0.21844856861E+03  0.00000000000E+00 0. -1.
         -5    1    5    5    0  502  0.21265868236E+02  0.11473914432E+02  0.12815737656E+03  0.13050015721E+03  0.47000000000E+01 0.  1.
         13    1    6    6    0    0 -0.93316641884E+02 -0.46878870600E+02  0.10616275318E+03  0.14891660191E+03  0.00000000000E+00 0. -1.
        -14    1    6    6    0    0 -0.52507256632E+01  0.11205445016E+02 -0.87726424433E+01  0.15168763082E+02  0.00000000000E+00 0.  1.
</event>
<event>
12    1  0.1061634E+000  0.2194865E+03  0.7818608E-02  0.1134423E+00
         21   -1    0    0  501  502  0.00000000000E+00  0.00000000000E+00  0.74232312212E+02  0.74232312212E+02  0.00000000000E+00 0. -1.
         21   -1    0    0  502  503 -0.00000000000E+00 -0.00000000000E+00 -0.71970539941E+03  0.71970539941E+03  0.00000000000E+00 0. -1.
         -6    2    1    2    0  503  0.13177971326E+03 -0.30923488177E+02 -0.19558129969E+03  0.29336110347E+03  0.17171644444E+03 0.  0.
        -24    2    3    3    0    0  0.32943605105E+02  0.11906281523E+02 -0.23171058414E+02  0.90013256798E+02  0.79614369270E+02 0.  0.
          6    2    1    2  501    0 -0.13177971326E+03  0.30923488177E+02 -0.44989178751E+03  0.50057660816E+03  0.17277779144E+03 0.  0.
         24    2    5    5    0    0 -0.15143526817E+03  0.14684904579E+02 -0.28977151780E+03  0.33837111131E+03  0.85902209347E+02 0.  0.
          5    1    5    5  501    0  0.19655554908E+02  0.16238583598E+02 -0.16012026971E+03  0.16220549685E+03  0.47000000000E+01 0. -1.
        -11    1    6    6    0    0 -0.75923053625E+02  0.45955378921E+02 -0.18758888307E+03  0.20752300107E+03  0.00000000000E+00 0.  1.
         12    1    6    6    0    0 -0.75512214547E+02 -0.31270474342E+02 -0.10218263474E+03  0.13084811024E+03  0.00000000000E+00 0. -1.
         -5    1    3    3    0  503  0.98836108159E+02 -0.42829769700E+02 -0.17241024127E+03  0.20334784667E+03  0.47000000000E+01 0.  1.
         13    1    4    4    0    0 -0.92878380174E+01 -0.90026422717E+01  0.21493567940E+02  0.25085552928E+02  0.00000000000E+00 0. -1.
        -14    1    4    4    0    0  0.42231443122E+02  0.20908923794E+02 -0.44664626354E+02  0.64927703870E+02  0.00000000000E+00 0.  1.
</event>
<event>
12    1  0.1061634E+000  0.1994500E+03  0.7818608E-02  0.1150284E+00
         21   -1    0    0  501  502  0.00000000000E+00  0.00000000000E+00  0.17636098740E+03  0.17636098740E+03  0.00000000000E+00 0. -1.
         21   -1    0    0  502  503 -0.00000000000E+00 -0.00000000000E+00 -0.22532750020E+03  0.22532750020E+03  0.00000000000E+00 0. -1.
         -6    2    1    2    0  503  0.63414082379E+02  0.77875363985E+02 -0.18570437799E+02  0.19993563453E+03  0.17188216497E+03 0.  0.
        -24    2    3    3    0    0  0.78523362863E+02  0.67469066555E+01 -0.37494457236E+02  0.12465113207E+03  0.88997927718E+02 0.  0.
          6    2    1    2  501    0 -0.63414082379E+02 -0.77875363985E+02 -0.30396075003E+02  0.20175285307E+03  0.17232055648E+03 0.  0.
         24    2    5    5    0    0 -0.45006150490E+02  0.15253573138E+02 -0.52842869355E+02  0.10409119497E+03  0.76055131011E+02 0.  0.
          5    1    5    5  501    0 -0.18407931889E+02 -0.93128937123E+02  0.22446794352E+02  0.97661658100E+02  0.47000000000E+01 0. -1.
        -13    1    6    6    0    0 -0.41119514558E+02 -0.11668602009E+01 -0.69255759658E+02  0.80551451173E+02  0.00000000000E+00 0.  1.
         14    1    6    6    0    0 -0.38866359319E+01  0.16420433339E+02  0.16412890303E+02  0.23539743797E+02  0.00000000000E+00 0. -1.
         -5    1    3    3    0  503 -0.15109280484E+02  0.71128457330E+02  0.18924019436E+02  0.75284502459E+02  0.47000000000E+01 0.  1.
         13    1    4    4    0    0  0.41346186757E+02 -0.38008991791E+02 -0.35485889761E+02  0.66433718761E+02  0.00000000000E+00 0. -1.
        -14    1    4    4    0    0  0.37177176106E+02  0.44755898447E+02 -0.20085674741E+01  0.58217413308E+02  0.00000000000E+00 0.  1.
</event>
<event>
12    1  0.1061634E+000  0.1898396E+03  0.7818608E-02  0.1158708E+00
         21   -1    0    0  503  502  0.00000000000E+00  0.00000000000E+00  0.93419847880E+02  0.93419847880E+02  0.00000000000E+00 0. -1.
         21   -1    0    0  501  503 -0.00000000000E+00 -0.00000000000E+00 -0.39270130753E+03  0.39270130753E+03  0.00000000000E+00 0. -1.
          6    2    1    2  501    0  0.56067995799E+02  0.54247004603E+02 -0.11511943389E+03  0.22163156752E+03  0.17257378132E+03 0.  0.
         24    2    3    3    0    0  0.26164064716E+02  0.93081513392E+02 -0.39451991512E+02  0.13135412845E+03  0.79678861749E+02 0.  0.
         -6    2    1    2    0  502 -0.56067995799E+02 -0.54247004603E+02 -0.18416202576E+03  0.26448958790E+03  0.17306857806E+03 0.  0.
        -24    2    5    5    0    0 -0.86645918393E+02 -0.86171840051E+01 -0.67677112469E+02  0.13561788851E+03  0.78931926990E+02 0.  0.
          5    1    3    3  501    0  0.29903931082E+02 -0.38834508789E+02 -0.75667442382E+02  0.90277439063E+02  0.47000000000E+01 0. -1.
        -13    1    4    4    0    0  0.44430778898E+02  0.30218397232E+02 -0.38112320720E+02  0.65877117692E+02  0.00000000000E+00 0.  1.
         14    1    4    4    0    0 -0.18266714182E+02  0.62863116160E+02 -0.13396707920E+01  0.65477010761E+02  0.00000000000E+00 0. -1.
         -5    1    5    5    0  502  0.30577922594E+02 -0.45629820598E+02 -0.11648491329E+03  0.12887169938E+03  0.47000000000E+01 0.  1.
         11    1    6    6    0    0  0.69013790343E+00  0.86932893297E+01 -0.42083181459E+02  0.42977246671E+02  0.00000000000E+00 0. -1.
        -12    1    6    6    0    0 -0.87336056296E+02 -0.17310473335E+02 -0.25593931010E+02  0.92640641843E+02  0.00000000000E+00 0.  1.
</event>
<event>
12    1  0.1061634E+000  0.2260844E+03  0.7818608E-02  0.1129637E+00
         21   -1    0    0  503  502  0.00000000000E+00  0.00000000000E+00  0.53891102073E+03  0.53891102073E+03  0.00000000000E+00 0.  1.
         21   -1    0    0  501  503 -0.00000000000E+00 -0.00000000000E+00 -0.15597393657E+03  0.15597393657E+03  0.00000000000E+00 0. -1.
          6    2    1    2  501    0  0.20447283716E+02  0.14387249956E+03 -0.27207304870E+02  0.22655539958E+03  0.17166748120E+03 0.  0.
         24    2    3    3    0    0  0.51640614348E+02  0.32945694573E+02 -0.39452230399E+02  0.11058209170E+03  0.83185026782E+02 0.  0.
         -6    2    1    2    0  502 -0.20447283716E+02 -0.14387249956E+03  0.41014438902E+03  0.46832955772E+03  0.17319574834E+03 0.  0.
        -24    2    5    5    0    0 -0.70423807624E+02 -0.14005087480E+03  0.31290142696E+03  0.35882822700E+03  0.79225206129E+02 0.  0.
          5    1    3    3  501    0 -0.31193330632E+02  0.11092680498E+03  0.12244925530E+02  0.11597330788E+03  0.47000000000E+01 0. -1.
        -11    1    4    4    0    0  0.19516379874E+02 -0.54116940505E+01  0.22943818306E+02  0.30603828427E+02  0.00000000000E+00 0.  1.
         12    1    4    4    0    0  0.32124234474E+02  0.38357388624E+02 -0.62396048705E+02  0.79978263276E+02  0.00000000000E+00 0. -1.
         -5    1    5    5    0  502  0.49976523907E+02 -0.38216247585E+01  0.97242962069E+02  0.10950133072E+03  0.47000000000E+01 0.  1.
         11    1    6    6    0    0  0.55062113427E+01 -0.19261129689E+02  0.68778090051E+01  0.21180503700E+02  0.00000000000E+00 0. -1.
        -12    1    6    6    0    0 -0.75930018966E+02 -0.12078974511E+03  0.30602361795E+03  0.33764772330E+03  0.00000000000E+00 0.  1.
</event>
<event>
12    1  0.1061634E+000  0.3570279E+03  0.7818608E-02  0.1059853E+00
         21   -1    0    0  501  502  0.00000000000E+00  0.00000000000E+00  0.34936670725E+03  0.34936670725E+03  0.00000000000E+00 0. -1.
         21   -1    0    0  502  503 -0.00000000000E+00 -0.00000000000E+00 -0.55427318591E+03  0.55427318591E+03  0.00000000000E+00 0. -1.
         -6    2    1    2    0  503  0.21907472369E+03 -0.22362123262E+03 -0.36726813987E+03  0.51220580284E+03  0.17166452067E+03 0.  0.
        -24    2    3    3    0    0  0.19579665893E+03 -0.22362473103E+03 -0.37684589260E+03  0.48659932596E+03  0.80135667918E+02 0.  0.
          6    2    1    2  501    0 -0.21907472369E+03  0.22362123262E+03  0.16236166121E+03  0.39143409033E+03  0.16987980399E+03 0.  0.
         24    2    5    5    0    0 -0.22200523461E+03  0.15382486256E+03  0.10419492627E+03  0.30040892776E+03  0.80252904491E+02 0.  0.
          5    1    5    5  501    0  0.29305109213E+01  0.69796370058E+02  0.58166734948E+02  0.91025162576E+02  0.47000000000E+01 0. -1.
        -11    1    6    6    0    0 -0.65793757097E+02  0.91583922311E+02  0.30532034246E+02  0.11682738726E+03  0.00000000000E+00 0.  1.
         12    1    6    6    0    0 -0.15621147751E+03  0.62240940253E+02  0.73662892019E+02  0.18358154050E+03  0.00000000000E+00 0. -1.
         -5    1    3    3    0  503  0.23278064753E+02  0.34984092205E-02  0.95777527275E+01  0.25606476880E+02  0.47000000000E+01 0.  1.
         11    1    4    4    0    0  0.31161450454E+02 -0.74228390972E+02 -0.14188594119E+03  0.16313341266E+03  0.00000000000E+00 0. -1.
        -12    1    4    4    0    0  0.16463520848E+03 -0.14939634006E+03 -0.23495995141E+03  0.32346591329E+03  0.00000000000E+00 0.  1.
</event>
<event>
12    1  0.1061634E+000  0.2842130E+03  0.7818608E-02  0.1093720E+00
         21   -1    0    0  501  502  0.00000000000E+00  0.00000000000E+00  0.47269544671E+03  0.47269544671E+03  0.00000000000E+00 0. -1.
         21   -1    0    0  502  503 -0.00000000000E+00 -0.00000000000E+00 -0.17697560788E+03  0.17697560788E+03  0.00000000000E+00 0. -1.
         -6    2    1    2    0  503 -0.20871451840E+03 -0.82401258488E+02  0.80526422560E+02  0.29318089637E+03  0.17064236189E+03 0.  0.
        -24    2    3    3    0    0 -0.53650115862E+02 -0.23331186672E+02 -0.19333959519E+02  0.99458341589E+02  0.78073558375E+02 0.  0.
          6    2    1    2  501    0  0.20871451840E+03  0.82401258488E+02  0.21519341627E+03  0.35649015822E+03  0.17442852091E+03 0.  0.
         24    2    5    5    0    0  0.20145728330E+03  0.49143078380E+02  0.11195006982E+03  0.24767815249E+03  0.76233653575E+02 0.  0.
          5    1    5    5  501    0  0.72572351010E+01  0.33258180108E+02  0.10324334645E+03  0.10881200573E+03  0.47000000000E+01 0. -1.
        -11    1    6    6    0    0  0.11207194255E+03  0.45430077408E+02  0.26156313600E+02  0.12372616934E+03  0.00000000000E+00 0.  1.
         12    1    6    6    0    0  0.89385340758E+02  0.37130009717E+01  0.85793756220E+02  0.12395198314E+03  0.00000000000E+00 0. -1.
         -5    1    3    3    0  503 -0.15506440254E+03 -0.59070071816E+02  0.99860382079E+02  0.19372255478E+03  0.47000000000E+01 0.  1.
         13    1    4    4    0    0  0.10027502889E+02 -0.31600369005E+02 -0.36121629048E+01  0.33349390643E+02  0.00000000000E+00 0. -1.
        -14    1    4    4    0    0 -0.63677618751E+02  0.82691823326E+01 -0.15721796614E+02  0.66108950945E+02  0.00000000000E+00 0.  1.
</event>
<event>
12    1  0.1061634E+000  0.2585695E+03  0.7818608E-02  0.1109252E+00
         21   -1    0    0  503  502  0.00000000000E+00  0.00000000000E+00  0.92795466709E+02  0.92795466709E+02  0.00000000000E+00 0. -1.
         21   -1    0    0  501  503 -0.00000000000E+00 -0.00000000000E+00 -0.91312893577E+03  0.91312893577E+03  0.00000000000E+00 0. -1.
          6    2    1    2  501    0 -0.17533671004E+03 -0.46958295725E+02 -0.16112583398E+03  0.29781924554E+03  0.17258831134E+03 0.  0.
         24    2    3    3    0    0 -0.43407086616E+02 -0.55939617996E+02 -0.11814932917E+03  0.15869642335E+03  0.78815447541E+02 0.  0.
         -6    2    1    2    0  502  0.17533671004E+03  0.46958295725E+02 -0.65920763509E+03  0.70810515695E+03  0.18414712518E+03 0.  0.
        -24    2    5    5    0    0  0.13154542797E+03  0.38210141351E+02 -0.23874424342E+03  0.28525085542E+03  0.74866696390E+02 0.  0.
          5    1    3    3  501    0 -0.13192962343E+03  0.89813222715E+01 -0.42976504811E+02  0.13912282219E+03  0.47000000000E+01 0. -1.
        -13    1    4    4    0    0 -0.59702341283E+02 -0.54365572688E+02 -0.66785967931E+02  0.10478716792E+03  0.00000000000E+00 0.  1.
         14    1    4    4    0    0  0.16295254668E+02 -0.15740453084E+01 -0.51363361237E+02  0.53909255428E+02  0.00000000000E+00 0. -1.
         -5    1    5    5    0  502  0.43791282071E+02  0.87481543737E+01 -0.42046339166E+03  0.42285430152E+03  0.47000000000E+01 0.  1.
         11    1    6    6    0    0 -0.86467760226E+01  0.55958711318E+01 -0.29786954050E+02  0.31517346666E+02  0.00000000000E+00 0. -1.
        -12    1    6    6    0    0  0.14019220399E+03  0.32614270219E+02 -0.20895728938E+03  0.25373350876E+03  0.00000000000E+00 0.  1.
</event>
<event>
12    1  0.1061634E+000  0.1988795E+03  0.7818608E-02  0.1152253E+00
         21   -1    0    0  501  502  0.00000000000E+00  0.00000000000E+00  0.13768428485E+03  0.13768428485E+03  0.00000000000E+00 0.  1.
         21   -1    0    0  502  503 -0.00000000000E+00 -0.00000000000E+00 -0.30321807739E+03  0.30321807739E+03  0.00000000000E+00 0.  1.
         -6    2    1    2    0  503  0.56110701536E+02  0.80246571453E+02 -0.16477975751E+02  0.19236527610E+03  0.16475725388E+03 0.  0.
        -24    2    3    3    0    0  0.21036132062E+02  0.62631912775E+01  0.41944429384E+02  0.91672508792E+02  0.78503294801E+02 0.  0.
          6    2    1    2  501    0 -0.56110701536E+02 -0.80246571453E+02 -0.14905581679E+03  0.24853708614E+03  0.17310437201E+03 0.  0.
         24    2    5    5    0    0 -0.55041653494E+02 -0.82949790327E+02 -0.33561003580E+02  0.13291013368E+03  0.81415670108E+02 0.  0.
          5    1    5    5  501    0 -0.10690480420E+01  0.27032188739E+01 -0.11549481321E+03  0.11562695246E+03  0.47000000000E+01 0. -1.
        -11    1    6    6    0    0 -0.61430557657E+01 -0.64260406202E+02  0.93432383252E+01  0.65226015069E+02  0.00000000000E+00 0.  1.
         12    1    6    6    0    0 -0.48898597728E+02 -0.18689384125E+02 -0.42904241905E+02  0.67684118611E+02  0.00000000000E+00 0. -1.
         -5    1    3    3    0  503  0.35074569474E+02  0.73983380175E+02 -0.58422405135E+02  0.10069276731E+03  0.47000000000E+01 0.  1.
         13    1    4    4    0    0  0.28194802978E+02  0.15514323464E+02 -0.13579980364E+02  0.34929314540E+02  0.00000000000E+00 0. -1.
        -14    1    4    4    0    0 -0.71586709163E+01 -0.92511321870E+01  0.55524409748E+02  0.56743194251E+02  0.00000000000E+00 0.  1.
</event>
<event>
12    1  0.1061634E+000  0.2456648E+03  0.7818608E-02  0.1116142E+00
         21   -1    0    0  501  502  0.00000000000E+00  0.00000000000E+00  0.23957733119E+04  0.23957733119E+04  0.00000000000E+00 0. -1.
         21   -1    0    0  502  503 -0.00000000000E+00 -0.00000000000E+00 -0.39488091923E+02  0.39488091923E+02  0.00000000000E+00 0. -1.
         -6    2    1    2    0  503  0.16846172129E+03  0.46140692761E+02  0.44501558573E+03  0.50832082613E+03  0.17275090640E+03 0.  0.
        -24    2    3    3    0    0  0.22501042642E+02  0.19757701543E+02  0.24798701537E+03  0.26165723036E+03  0.77912019085E+02 0.  0.
          6    2    1    2  501    0 -0.16846172129E+03 -0.46140692761E+02  0.19112696342E+04  0.19269405777E+04  0.17216288833E+03 0.  0.
         24    2    5    5    0    0 -0.73368044796E+02 -0.90341577291E+02  0.10634437658E+04  0.10726412632E+04  0.78116361726E+02 0.  0.
          5    1    5    5  501    0 -0.95093676495E+02  0.44200884531E+02  0.84782586842E+03  0.85429931445E+03  0.47000000000E+01 0. -1.
        -11    1    6    6    0    0 -0.66298803174E+02 -0.19748947492E+02  0.51172417943E+03  0.51637891905E+03  0.00000000000E+00 0.  1.
         12    1    6    6    0    0 -0.70692416219E+01 -0.70592629799E+02  0.55171958638E+03  0.55626234418E+03  0.00000000000E+00 0. -1.
         -5    1    3    3    0  503  0.14596067865E+03  0.26382991218E+02  0.19702857037E+03  0.24666359577E+03  0.47000000000E+01 0.  1.
         13    1    4    4    0    0 -0.12157006093E+01  0.39829983424E+02  0.66464127202E+02  0.77494423749E+02  0.00000000000E+00 0. -1.
        -14    1    4    4    0    0  0.23716743251E+02 -0.20072281881E+02  0.18152288816E+03  0.18416280661E+03  0.00000000000E+00 0.  1.
</event>
<event>
12    1  0.1061634E+000  0.2224441E+03  0.7818608E-02  0.1132114E+00
         21   -1    0    0  501  502  0.00000000000E+00  0.00000000000E+00  0.19098193945E+03  0.19098193945E+03  0.00000000000E+00 0.  1.
         21   -1    0    0  502  503 -0.00000000000E+00 -0.00000000000E+00 -0.25921484841E+03  0.25921484841E+03  0.00000000000E+00 0.  1.
         -6    2    1    2    0  503 -0.49939425337E-01 -0.14074735620E+03 -0.42727042358E+02  0.22629516742E+03  0.17197116583E+03 0.  0.
        -24    2    3    3    0    0 -0.35121611813E+02 -0.13936529516E+03 -0.72438522064E+02  0.18006969476E+03  0.80756067130E+02 0.  0.
          6    2    1    2  501    0  0.49939425337E-01  0.14074735620E+03 -0.25505866604E+02  0.22390162044E+03  0.17225436318E+03 0.  0.
         24    2    5    5    0    0 -0.35144443582E+02  0.15787039053E+03 -0.12416461215E+02  0.18236530581E+03  0.83335131444E+02 0.  0.
          5    1    5    5  501    0  0.35194383007E+02 -0.17123034328E+02 -0.13089405389E+02  0.41536314633E+02  0.47000000000E+01 0. -1.
        -13    1    6    6    0    0 -0.22256734903E+02  0.76920467898E+01 -0.20775974479E+02  0.31403358863E+02  0.00000000000E+00 0.  1.
         14    1    6    6    0    0 -0.12887708679E+02  0.15017834374E+03  0.83595132640E+01  0.15096194694E+03  0.00000000000E+00 0. -1.
         -5    1    3    3    0  503  0.35071672387E+02 -0.13820610361E+01  0.29711479706E+02  0.46225472664E+02  0.47000000000E+01 0.  1.
         11    1    4    4    0    0 -0.14396730440E+02 -0.80834015273E+02 -0.83381295239E+02  0.11702070017E+03  0.00000000000E+00 0. -1.
        -12    1    4    4    0    0 -0.20724881373E+02 -0.58531279892E+02  0.10942773175E+02  0.63048994587E+02  0.00000000000E+00 0.  1.
</event>
<event>
12    1  0.1061634E+000  0.2986488E+03  0.7818608E-02  0.1086643E+00
         21   -1    0    0  501  502  0.00000000000E+00  0.00000000000E+00  0.46782965503E+03  0.46782965503E+03  0.00000000000E+00 0.  1.
         21   -1    0    0  502  503 -0.00000000000E+00 -0.00000000000E+00 -0.18707913023E+03  0.18707913023E+03  0.00000000000E+00 0.  1.
         -6    2    1    2    0  503  0.95183976074E+02 -0.21634313207E+03  0.14463314251E+03  0.32670296987E+03  0.17306572310E+03 0.  0.
        -24    2    3    3    0    0  0.38082388516E+02 -0.17261484085E+03  0.16201921770E+03  0.25256040203E+03  0.79311904356E+02 0.  0.
          6    2    1    2  501    0 -0.95183976074E+02  0.21634313207E+03  0.13611738229E+03  0.32820581540E+03  0.18255622532E+03 0.  0.
         24    2    5    5    0    0 -0.78387153923E+02  0.14486234476E+03  0.11443292629E+02  0.18343926255E+03  0.79933530324E+02 0.  0.
          5    1    5    5  501    0 -0.16796822151E+02  0.71480787315E+02  0.12467408966E+03  0.14476655285E+03  0.47000000000E+01 0. -1.
        -13    1    6    6    0    0 -0.23772826754E+01  0.19922820338E+02 -0.25648982940E+02  0.32564406473E+02  0.00000000000E+00 0.  1.
         14    1    6    6    0    0 -0.76009871248E+02  0.12493952442E+03  0.37092275569E+02  0.15087485608E+03  0.00000000000E+00 0. -1.
         -5    1    3    3    0  503  0.57101587558E+02 -0.43728291224E+02 -0.17386075192E+02  0.74142567837E+02  0.47000000000E+01 0.  1.
         13    1    4    4    0    0  0.42663496667E+02 -0.35508312086E+02  0.35118599971E+02  0.65683561406E+02  0.00000000000E+00 0. -1.
        -14    1    4    4    0    0 -0.45811081503E+01 -0.13710652876E+03  0.12690061773E+03  0.18687684062E+03  0.00000000000E+00 0.  1.
</event>
<event>
12    1  0.1061634E+000  0.2458470E+03  0.7818608E-02  0.1116106E+00
         21   -1    0    0  503  502  0.00000000000E+00  0.00000000000E+00  0.96702293319E+03  0.96702293319E+03  0.00000000000E+00 0.  1.
         21   -1    0    0  501  503 -0.00000000000E+00 -0.00000000000E+00 -0.82541340551E+02  0.82541340551E+02  0.00000000000E+00 0. -1.
          6    2    1    2  501    0  0.11197084465E+03  0.13295627645E+03  0.70293200413E+03  0.74468391286E+03  0.17385593502E+03 0.  0.
         24    2    3    3    0    0  0.62448896577E+02  0.48682207179E+02  0.17674338477E+03  0.20947265061E+03  0.79816948791E+02 0.  0.
         -6    2    1    2    0  502 -0.11197084465E+03 -0.13295627645E+03  0.18154958850E+03  0.30488036088E+03  0.17255996021E+03 0.  0.
        -24    2    5    5    0    0 -0.12420115091E+03 -0.15670811184E+03  0.15268791904E+03  0.26527207842E+03  0.84097067501E+02 0.  0.
          5    1    3    3  501    0  0.49521948071E+02  0.84274069268E+02  0.52618861936E+03  0.53521126225E+03  0.47000000000E+01 0. -1.
        -11    1    4    4    0    0  0.16195593090E+02  0.21963704740E+02  0.27066498209E+01  0.27423120076E+02  0.00000000000E+00 0.  1.
         12    1    4    4    0    0  0.46253303487E+02  0.26718502439E+02  0.17403673495E+03  0.18204953054E+03  0.00000000000E+00 0. -1.
         -5    1    5    5    0  502  0.12230306260E+02  0.23751835392E+02  0.28861669459E+02  0.39608282463E+02  0.47000000000E+01 0.  1.
         11    1    6    6    0    0 -0.12040275238E+03 -0.10821889645E+03  0.87758536228E+02  0.18414590142E+03  0.00000000000E+00 0. -1.
        -12    1    6    6    0    0 -0.37983985231E+01 -0.48489215389E+02  0.64929382816E+02  0.81126176991E+02  0.00000000000E+00 0.  1.
</event>
<event>
12    1  0.1061634E+000  0.1773141E+03  0.7818608E-02  0.1170444E+00
         21   -1    0    0  503  502  0.00000000000E+00  0.00000000000E+00  0.75561382458E+02  0.75561382458E+02  0.00000000000E+00 0. -1.
         21   -1    0    0  501  503 -0.00000000000E+00 -0.00000000000E+00 -0.42780981524E+03  0.42780981524E+03  0.00000000000E+00 0. -1.
          6    2    1    2  501    0 -0.35852569628E+02 -0.11221081323E+02 -0.21808611367E+03  0.28107266144E+03  0.17328868577E+03 0.  0.
         24    2    3    3    0    0 -0.25061127555E+02  0.58505009460E+02 -0.97387142180E+02  0.14118515421E+03  0.79988099504E+02 0.  0.
         -6    2    1    2    0  502  0.35852569628E+02  0.11221081323E+02 -0.13416231911E+03  0.22229853626E+03  0.17322179984E+03 0.  0.
        -24    2    5    5    0    0  0.18974546210E+02 -0.34916587984E+02 -0.10909593992E+02  0.89532288846E+02  0.79484652510E+02 0.  0.
          5    1    3    3  501    0 -0.10791442073E+02 -0.69726090782E+02 -0.12069897149E+03  0.13988750722E+03  0.47000000000E+01 0. -1.
        -11    1    4    4    0    0 -0.43156343456E+02  0.62702230617E+01 -0.61071338815E+02  0.75043281527E+02  0.00000000000E+00 0.  1.
         12    1    4    4    0    0  0.18095215900E+02  0.52234786398E+02 -0.36315803365E+02  0.66141872687E+02  0.00000000000E+00 0. -1.
         -5    1    5    5    0  502  0.16878023418E+02  0.46137669307E+02 -0.12325272512E+03  0.13276624741E+03  0.47000000000E+01 0.  1.
         11    1    6    6    0    0 -0.26578039796E+02 -0.34176544697E+02 -0.60471043790E+01  0.43714938845E+02  0.00000000000E+00 0. -1.
        -12    1    6    6    0    0  0.45552586006E+02 -0.74004328656E+00 -0.48624896130E+01  0.45817350002E+02  0.00000000000E+00 0.  1.
</event>
<event>
12    1  0.1061634E+000  0.1804569E+03  0.7818608E-02  0.1167907E+00
         21   -1    0    0  501  502  0.00000000000E+00  0.00000000000E+00  0.76895395275E+03  0.76895395275E+03  0.00000000000E+00 0.  1.
         21   -1    0    0  502  503 -0.00000000000E+00 -0.00000000000E+00 -0.60375191022E+02  0.60375191022E+02  0.00000000000E+00 0.  1.
         -6    2    1    2    0  503 -0.77945429222E-01  0.51676679274E+02  0.12289821600E+03  0.21647810975E+03  0.17055296905E+03 0.  0.
        -24    2    3    3    0    0  0.91907109308E+00 -0.35488755878E+02  0.90573069163E+02  0.12338776522E+03  0.75899692117E+02 0.  0.
          6    2    1    2  501    0  0.77945429222E-01 -0.51676679274E+02  0.58568054573E+03  0.61285103402E+03  0.17289940137E+03 0.  0.
         24    2    5    5    0    0  0.16502668788E+02 -0.94895470889E+02  0.33038443186E+03  0.35335954814E+03  0.80197312755E+02 0.  0.
          5    1    5    5  501    0 -0.16424723359E+02  0.43218791615E+02  0.25529611388E+03  0.25949148589E+03  0.47000000000E+01 0. -1.
        -11    1    6    6    0    0 -0.25808611275E+02 -0.42934270569E+02  0.20676385100E+03  0.21274568406E+03  0.00000000000E+00 0.  1.
         12    1    6    6    0    0  0.42311280063E+02 -0.51961200319E+02  0.12362058085E+03  0.14061386407E+03  0.00000000000E+00 0. -1.
         -5    1    3    3    0  503 -0.99701652230E+00  0.87165435152E+02  0.32325146835E+02  0.93090344532E+02  0.47000000000E+01 0.  1.
         11    1    4    4    0    0  0.13307390383E+02 -0.87149987882E+01  0.92467786279E+02  0.93826058971E+02  0.00000000000E+00 0. -1.
        -12    1    4    4    0    0 -0.12388319290E+02 -0.26773757090E+02 -0.18947171160E+01  0.29561706251E+02  0.00000000000E+00 0.  1.
</event>
<event>
12    1  0.1061634E+000  0.2173964E+03  0.7818608E-02  0.1135977E+00
         21   -1    0    0  501  502  0.00000000000E+00  0.00000000000E+00  0.74769533663E+03  0.74769533663E+03  0.00000000000E+00 0. -1.
         21   -1    0    0  502  503 -0.00000000000E+00 -0.00000000000E+00 -0.63275717831E+02  0.63275717831E+02  0.00000000000E+00 0. -1.
         -6    2    1    2    0  503 -0.11907911287E+03 -0.56031677708E+02  0.36963346053E+03  0.42882407337E+03  0.17303700972E+03 0.  0.
        -24    2    3    3    0    0 -0.10289179698E+03 -0.10218946981E+03  0.26146131748E+03  0.31001383181E+03  0.81958195151E+02 0.  0.
          6    2    1    2  501    0  0.11907911287E+03  0.56031677708E+02  0.31478615827E+03  0.38214698109E+03  0.17212380919E+03 0.  0.
         24    2    5    5    0    0  0.13883181284E+03  0.45790823419E+02  0.31818346716E+03  0.35915402651E+03  0.79873801801E+02 0.  0.
          5    1    5    5  501    0 -0.19752699974E+02  0.10240854288E+02 -0.33973088895E+01  0.22992954584E+02  0.47000000000E+01 0. -1.
        -11    1    6    6    0    0  0.61005239751E+02  0.21940617135E+02  0.59607817704E+02  0.88068847436E+02  0.00000000000E+00 0.  1.
         12    1    6    6    0    0  0.77826573093E+02  0.23850206284E+02  0.25857564946E+03  0.27108517907E+03  0.00000000000E+00 0. -1.
         -5    1    3    3    0  503 -0.16187315888E+02  0.46157792100E+02  0.10817214305E+03  0.11881024156E+03  0.47000000000E+01 0.  1.
         13    1    4    4    0    0 -0.84273472709E+02 -0.84650799854E+02  0.25786135549E+03  0.28418348786E+03  0.00000000000E+00 0. -1.
        -14    1    4    4    0    0 -0.18618324273E+02 -0.17538669954E+02  0.35999619925E+01  0.25830343955E+02  0.00000000000E+00 0.  1.
</event>
<event>
12    1  0.1061634E+000  0.2464746E+03  0.7818608E-02  0.1115631E+00
         21   -1    0    0  503  502  0.00000000000E+00  0.00000000000E+00  0.10185896599E+04  0.10185896599E+04  0.00000000000E+00 0.  1.
         21   -1    0    0  501  503 -0.00000000000E+00 -0.00000000000E+00 -0.98058032688E+02  0.98058032688E+02  0.00000000000E+00 0.  1.
          6    2    1    2  501    0  0.17187819878E+03 -0.39885567114E+02  0.80999072975E+03  0.84651993970E+03  0.17140026940E+03 0.  0.
         24    2    3    3    0    0  0.43087894812E+02  0.34124826183E+02  0.35918573857E+03  0.37184983238E+03  0.78973619692E+02 0.  0.
         -6    2    1    2    0  502 -0.17187819878E+03  0.39885567114E+02  0.11054089747E+03  0.27012775290E+03  0.17209514575E+03 0.  0.
        -24    2    5    5    0    0 -0.18236696532E+03 -0.55605202654E+01  0.87410184354E+02  0.21785461476E+03  0.80817469753E+02 0.  0.
          5    1    3    3  501    0  0.12879030397E+03 -0.74010393297E+02  0.45080499118E+03  0.47467010732E+03  0.47000000000E+01 0. -1.
        -13    1    4    4    0    0  0.58418466660E+02  0.46695064656E+02  0.30823058286E+03  0.31717383013E+03  0.00000000000E+00 0.  1.
         14    1    4    4    0    0 -0.15330571847E+02 -0.12570238472E+02  0.50955155710E+02  0.54676002248E+02  0.00000000000E+00 0. -1.
         -5    1    5    5    0  502  0.10488766537E+02  0.45446087379E+02  0.23130713118E+02  0.52273138139E+02  0.47000000000E+01 0.  1.
         11    1    6    6    0    0 -0.81738983553E+02  0.35741753200E+02  0.25910337001E+02  0.92898223436E+02  0.00000000000E+00 0. -1.
        -12    1    6    6    0    0 -0.10062798176E+03 -0.41302273465E+02  0.61499847353E+02  0.12495639132E+03  0.00000000000E+00 0.  1.
</event>
<event>
12    1  0.1061634E+000  0.1905275E+03  0.7818608E-02  0.1158021E+00
         21   -1    0    0  501  502  0.00000000000E+00  0.00000000000E+00  0.49154898620E+03  0.49154898620E+03  0.00000000000E+00 0.  1.
         21   -1    0    0  502  503 -0.00000000000E+00 -0.00000000000E+00 -0.11569738532E+03  0.11569738532E+03  0.00000000000E+00 0.  1.
         -6    2    1    2    0  503  0.74524042964E+02  0.32672092796E+02  0.37070570025E+03  0.41680142847E+03  0.17227714866E+03 0.  0.
        -24    2    3    3    0    0  0.43375132126E+02  0.86775332617E+02  0.21683516495E+03  0.25068205321E+03  0.80078977286E+02 0.  0.
          6    2    1    2  501    0 -0.74524042964E+02 -0.32672092796E+02  0.51459006353E+01  0.19044494305E+03  0.17210896959E+03 0.  0.
         24    2    5    5    0    0 -0.45453775176E+02 -0.62962881983E+02  0.55382552131E+02  0.12480636040E+03  0.80492424060E+02 0.  0.
          5    1    5    5  501    0 -0.29070267788E+02  0.30290789187E+02 -0.50236651496E+02  0.65638582650E+02  0.47000000000E+01 0. -1.
        -13    1    6    6    0    0  0.21149116721E+02 -0.31902727719E+02  0.21217701464E+02  0.43763683910E+02  0.00000000000E+00 0.  1.
         14    1    6    6    0    0 -0.66602891897E+02 -0.31060154264E+02  0.34164850668E+02  0.81042676492E+02  0.00000000000E+00 0. -1.
         -5    1    3    3    0  503  0.31148910838E+02 -0.54103239820E+02  0.15387053530E+03  0.16611937527E+03  0.47000000000E+01 0.  1.
         11    1    4    4    0    0  0.58231578001E+02  0.33944787375E+02  0.14816935096E+03  0.16277997982E+03  0.00000000000E+00 0. -1.
        -12    1    4    4    0    0 -0.14856445875E+02  0.52830545242E+02  0.68665813988E+02  0.87902073384E+02  0.00000000000E+00 0.  1.
</event>
<event>
12    1  0.1061634E+000  0.1812735E+03  0.7818608E-02  0.1166921E+00
         21   -1    0    0  501  502  0.00000000000E+00  0.00000000000E+00  0.40255415548E+02  0.40255415548E+02  0.00000000000E+00 0.  1.
         21   -1    0    0  502  503 -0.00000000000E+00 -0.00000000000E+00 -0.84173202891E+03  0.84173202891E+03  0.00000000000E+00 0.  1.
         -6    2    1    2    0  503  0.52805792347E+02 -0.46257004993E+01 -0.48503090242E+03  0.51729857183E+03  0.17185164331E+03 0.  0.
        -24    2    3    3    0    0  0.52275828037E+02 -0.40350055611E+02 -0.46437488430E+03  0.47576218423E+03  0.79653836010E+02 0.  0.
          6    2    1    2  501    0 -0.52805792347E+02  0.46257004993E+01 -0.31644571094E+03  0.36468887263E+03  0.17335004192E+03 0.  0.
         24    2    5    5    0    0 -0.56484865264E+02 -0.13237690753E+02 -0.32803034420E+03  0.34257710987E+03  0.79933678967E+02 0.  0.
          5    1    5    5  501    0  0.36790729170E+01  0.17863391252E+02  0.11584633254E+02  0.22111762756E+02  0.47000000000E+01 0. -1.
        -11    1    6    6    0    0  0.74385187938E+01  0.15318396750E+02 -0.15480044338E+03  0.15573426762E+03  0.00000000000E+00 0.  1.
         12    1    6    6    0    0 -0.63923384058E+02 -0.28556087503E+02 -0.17322990082E+03  0.18684284225E+03  0.00000000000E+00 0. -1.
         -5    1    3    3    0  503  0.52996431003E+00  0.35724355112E+02 -0.20656018120E+02  0.41536387601E+02  0.47000000000E+01 0.  1.
         11    1    4    4    0    0 -0.13115376305E+02 -0.13089028846E+02 -0.23417969073E+03  0.23491160747E+03  0.00000000000E+00 0. -1.
        -12    1    4    4    0    0  0.65391204342E+02 -0.27261026765E+02 -0.23019519357E+03  0.24085057677E+03  0.00000000000E+00 0.  1.
</event>
<event>
12    1  0.1061634E+000  0.2355771E+03  0.7818608E-02  0.1122785E+00
         21   -1    0    0  501  502  0.00000000000E+00  0.00000000000E+00  0.95004405971E+02  0.95004405971E+02  0.00000000000E+00 0. -1.
         21   -1    0    0  502  503 -0.00000000000E+00 -0.00000000000E+00 -0.85961876164E+03  0.85961876164E+03  0.00000000000E+00 0. -1.
         -6    2    1    2    0  503 -0.11257559085E+03  0.11510635563E+03 -0.65254783503E+03  0.69374874690E+03  0.17188923777E+03 0.  0.
        -24    2    3    3    0    0 -0.72455496038E+02  0.60733819283E+02 -0.58580394555E+03  0.59865494321E+03  0.79265898712E+02 0.  0.
          6    2    1    2  501    0  0.11257559085E+03 -0.11510635563E+03 -0.11206652064E+03  0.26087442071E+03  0.17197040899E+03 0.  0.
         24    2    5    5    0    0  0.82584256981E+02 -0.42487407941E+02  0.21042604353E+01  0.12220196879E+03  0.79394923822E+02 0.  0.
          5    1    5    5  501    0  0.29991333874E+02 -0.72618947693E+02 -0.11417078108E+03  0.13867245193E+03  0.47000000000E+01 0. -1.
        -13    1    6    6    0    0 -0.15421434659E+02 -0.11537207766E+02  0.25265113936E+01  0.19424496642E+02  0.00000000000E+00 0.  1.
         14    1    6    6    0    0  0.98005691639E+02 -0.30950200175E+02 -0.42225095829E+00  0.10277747214E+03  0.00000000000E+00 0. -1.
         -5    1    3    3    0  503 -0.40120094817E+02  0.54372536350E+02 -0.66743889480E+02  0.95093803690E+02  0.47000000000E+01 0.  1.
         11    1    4    4    0    0 -0.38266525218E+02  0.49184593530E+02 -0.16614862928E+03  0.17745088956E+03  0.00000000000E+00 0. -1.
        -12    1    4    4    0    0 -0.34188970820E+02  0.11549225753E+02 -0.41965531627E+03  0.42120405365E+03  0.00000000000E+00 0.  1.
</event>
<event>
12    1  0.1061634E+000  0.2261434E+03  0.7818608E-02  0.1130161E+00
         21   -1    0    0  503  502  0.00000000000E+00  0.00000000000E+00  0.12266599262E+03  0.12266599262E+03  0.00000000000E+00 0. -1.
         21   -1    0    0  501  503 -0.00000000000E+00 -0.00000000000E+00 -0.52207890263E+03  0.52207890263E+03  0.00000000000E+00 0. -1.
          6    2    1    2  501    0  0.10121468272E+02 -0.13880209044E+03 -0.34819497546E+03  0.41287403816E+03  0.17279110515E+03 0.  0.
         24    2    3    3    0    0 -0.13356862674E+02 -0.91932368403E+02 -0.99978329901E+02  0.15913875090E+03  0.81850531135E+02 0.  0.
         -6    2    1    2    0  502 -0.10121468272E+02  0.13880209044E+03 -0.51217934548E+02  0.23187085709E+03  0.17824801014E+03 0.  0.
        -24    2    5    5    0    0  0.62688976106E+02  0.88851142839E+02 -0.51203457788E+02  0.14344830236E+03  0.78301903234E+02 0.  0.
          5    1    3    3  501    0  0.23478330947E+02 -0.46869722037E+02 -0.24821664556E+03  0.25373528726E+03  0.47000000000E+01 0. -1.
        -11    1    4    4    0    0 -0.18421836604E+02 -0.12048258264E+02 -0.70470867966E+02  0.73828638230E+02  0.00000000000E+00 0.  1.
         12    1    4    4    0    0  0.50649739302E+01 -0.79884110139E+02 -0.29507461935E+02  0.85310112669E+02  0.00000000000E+00 0. -1.
         -5    1    5    5    0  502 -0.72810444379E+02  0.49950947601E+02 -0.14476759392E-01  0.88422554739E+02  0.47000000000E+01 0.  1.
         11    1    6    6    0    0  0.37006851563E+02  0.73126703067E+01  0.91336638542E+01  0.38812446779E+02  0.00000000000E+00 0. -1.
        -12    1    6    6    0    0  0.25682124544E+02  0.81538472532E+02 -0.60337121643E+02  0.10463585558E+03  0.00000000000E+00 0.  1.
</event>
<event>
12    1  0.1061634E+000  0.1891864E+03  0.7818608E-02  0.1159830E+00
         21   -1    0    0  501  502  0.00000000000E+00  0.00000000000E+00  0.32040212250E+03  0.32040212250E+03  0.00000000000E+00 0.  1.
         21   -1    0    0  502  503 -0.00000000000E+00 -0.00000000000E+00 -0.14397259926E+03  0.14397259926E+03  0.00000000000E+00 0.  1.
         -6    2    1    2    0  503 -0.70949099691E+02 -0.15262180923E+02  0.20136814556E+03  0.27629808357E+03  0.17471345692E+03 0.  0.
        -24    2    3    3    0    0 -0.97124385261E+02 -0.27717478572E+02  0.80347235338E+02  0.15176523359E+03  0.79847373595E+02 0.  0.
          6    2    1    2  501    0  0.70949099691E+02  0.15262180923E+02 -0.24938622322E+02  0.18807663819E+03  0.17170957468E+03 0.  0.
         24    2    5    5    0    0  0.40409098543E+02  0.64831232166E+02  0.23052636871E+02  0.11247879781E+03  0.79272138740E+02 0.  0.
          5    1    5    5  501    0  0.30540001148E+02 -0.49569051242E+02 -0.47991259193E+02  0.75597840380E+02  0.47000000000E+01 0. -1.
        -13    1    6    6    0    0  0.27647167444E+02 -0.29324174067E+01  0.32623058896E+02  0.42862908339E+02  0.00000000000E+00 0.  1.
         14    1    6    6    0    0  0.12761931098E+02  0.67763649572E+02 -0.95704220255E+01  0.69615889468E+02  0.00000000000E+00 0. -1.
         -5    1    3    3    0  503  0.26175285570E+02  0.12455297649E+02  0.12102091022E+03  0.12453284998E+03  0.47000000000E+01 0.  1.
         11    1    4    4    0    0 -0.42747173512E+02 -0.15375816401E+02  0.84409045847E+02  0.95857308506E+02  0.00000000000E+00 0. -1.
        -12    1    4    4    0    0 -0.54377211749E+02 -0.12341662172E+02 -0.40618105092E+01  0.55907925085E+02  0.00000000000E+00 0.  1.
</event>
<event>
12    1  0.1061634E+000  0.2153695E+03  0.7818608E-02  0.1137543E+00
         21   -1    0    0  503  502  0.00000000000E+00  0.00000000000E+00  0.29408466903E+03  0.29408466903E+03  0.00000000000E+00 0. -1.
         21   -1    0    0  501  503 -0.00000000000E+00 -0.00000000000E+00 -0.19566004878E+03  0.19566004878E+03  0.00000000000E+00 0. -1.
          6    2    1    2  501    0 -0.26995166094E+02  0.12677914005E+03 -0.59552135529E+02  0.22264797490E+03  0.17095021070E+03 0.  0.
         24    2    3    3    0    0  0.38280303522E+02  0.49505774056E+02 -0.65815713241E+02  0.12119166691E+03  0.80246549560E+02 0.  0.
         -6    2    1    2    0  502  0.26995166094E+02 -0.12677914005E+03  0.15797675578E+03  0.26709674290E+03  0.17199513179E+03 0.  0.
        -24    2    5    5    0    0 -0.37601086919E+02 -0.23826153554E+02  0.86651747400E+02  0.12609553669E+03  0.80062673676E+02 0.  0.
          5    1    3    3  501    0 -0.65275469615E+02  0.77273365994E+02  0.62635777115E+01  0.10145630799E+03  0.47000000000E+01 0. -1.
        -11    1    4    4    0    0  0.57569383095E+02  0.48872993560E+02 -0.31504419246E+02  0.81825007189E+02  0.00000000000E+00 0.  1.
         12    1    4    4    0    0 -0.19289079573E+02  0.63278049635E+00 -0.34311293995E+02  0.39366659720E+02  0.00000000000E+00 0. -1.
         -5    1    5    5    0  502  0.64596253013E+02 -0.10295298650E+03  0.71325008378E+02  0.14100120621E+03  0.47000000000E+01 0.  1.
         13    1    6    6    0    0 -0.31865580976E+02 -0.18468797349E+02 -0.22012625920E+01  0.36896575498E+02  0.00000000000E+00 0. -1.
        -14    1    6    6    0    0 -0.57355059432E+01 -0.53573562052E+01  0.88853009992E+02  0.89198961197E+02  0.00000000000E+00 0.  1.
</event>
<event>
12    1  0.1061634E+000  0.2108327E+03  0.7818608E-02  0.1141264E+00
         21   -1    0    0  501  502  0.00000000000E+00  0.00000000000E+00  0.66501682783E+03  0.66501682783E+03  0.00000000000E+00 0.  1.
         21   -1    0    0  502  503 -0.00000000000E+00 -0.00000000000E+00 -0.85148795292E+02  0.85148795292E+02  0.00000000000E+00 0.  1.
         -6    2    1    2    0  503  0.27577034417E+02 -0.11850017166E+03  0.46750676908E+03  0.51284795378E+03  0.17218496173E+03 0.  0.
        -24    2    3    3    0    0 -0.49253612473E+02 -0.85975333026E+02  0.27104825266E+03  0.29935591153E+03  0.79555831122E+02 0.  0.
          6    2    1    2  501    0 -0.27577034417E+02  0.11850017166E+03  0.11236126345E+03  0.23731766934E+03  0.16997599579E+03 0.  0.
         24    2    5    5    0    0 -0.13699269796E+01  0.14475494729E+03  0.11255438023E+03  0.19992444780E+03  0.79658175061E+02 0.  0.
          5    1    5    5  501    0 -0.26207107437E+02 -0.26254775628E+02 -0.19311677165E+00  0.37393221546E+02  0.47000000000E+01 0. -1.
        -13    1    6    6    0    0  0.32085972026E+01  0.25978316908E+00 -0.99342796980E+01  0.10442820329E+02  0.00000000000E+00 0.  1.
         14    1    6    6    0    0 -0.45785241821E+01  0.14449516412E+03  0.12248865992E+03  0.18948162747E+03  0.00000000000E+00 0. -1.
         -5    1    3    3    0  503  0.76830646889E+02 -0.32524838637E+02  0.19645851642E+03  0.21349204225E+03  0.47000000000E+01 0.  1.
         13    1    4    4    0    0 -0.33695898562E+01 -0.41067222781E+02  0.32968497408E+02  0.52771135521E+02  0.00000000000E+00 0. -1.
        -14    1    4    4    0    0 -0.45884022616E+02 -0.44908110244E+02  0.23807975526E+03  0.24658477601E+03  0.00000000000E+00 0.  1.
</event>
<event>
12    1  0.1061634E+000  0.1846299E+03  0.7818608E-02  0.1163616E+00
         21   -1    0    0  501  502  0.00000000000E+00  0.00000000000E+00  0.66199876863E+02  0.66199876863E+02  0.00000000000E+00 0. -1.
         21   -1    0    0  502  503 -0.00000000000E+00 -0.00000000000E+00 -0.51689797218E+03  0.51689797218E+03  0.00000000000E+00 0. -1.
         -6    2    1    2    0  503  0.39196844337E+01  0.66539715412E+02 -0.25222110759E+03  0.31202345950E+03  0.17117317112E+03 0.  0.
        -24    2    3    3    0    0 -0.88080114483E+01 -0.10256141311E+02 -0.47795588001E+02  0.93227936437E+02  0.78893982025E+02 0.  0.
          6    2    1    2  501    0 -0.39196844337E+01 -0.66539715412E+02 -0.19847698773E+03  0.27107438955E+03  0.17217814135E+03 0.  0.
         24    2    5    5    0    0  0.67273856869E+02 -0.43828412902E+02 -0.13941688846E+03  0.17570925488E+03  0.70639732916E+02 0.  0.
          5    1    5    5  501    0 -0.71193541303E+02 -0.22711302510E+02 -0.59060099272E+02  0.95365134671E+02  0.47000000000E+01 0. -1.
        -13    1    6    6    0    0  0.33279494980E+02 -0.13056817520E+02 -0.12121294158E+03  0.12637476993E+03  0.00000000000E+00 0.  1.
         14    1    6    6    0    0  0.33994361889E+02 -0.30771595381E+02 -0.18203946880E+02  0.49334484943E+02  0.00000000000E+00 0. -1.
         -5    1    3    3    0  503  0.12727695882E+02  0.76795856723E+02 -0.20442551959E+03  0.21879552306E+03  0.47000000000E+01 0.  1.
         13    1    4    4    0    0  0.27779686412E+02  0.15790608519E+02 -0.33015339616E+02  0.45946348544E+02  0.00000000000E+00 0. -1.
        -14    1    4    4    0    0 -0.36587697860E+02 -0.26046749830E+02 -0.14780248384E+02  0.47281587893E+02  0.00000000000E+00 0.  1.
</event>
<event>
12    1  0.1061634E+000  0.2040286E+03  0.7818608E-02  0.1146727E+00
         21   -1    0    0  501  502  0.00000000000E+00  0.00000000000E+00  0.23122954327E+04  0.23122954327E+04  0.00000000000E+00 0. -1.
         21   -1    0    0  502  503 -0.00000000000E+00 -0.00000000000E+00 -0.18258342585E+02  0.18258342585E+02  0.00000000000E+00 0. -1.
         -6    2    1    2    0  503 -0.97408062126E+02  0.41444150949E+02  0.96952088626E+03  0.99041541402E+03  0.17247027342E+03 0.  0.
        -24    2    3    3    0    0 -0.88432080872E+02 -0.10296693918E+02  0.86611233419E+03  0.87434172230E+03  0.79978854027E+02 0.  0.
          6    2    1    2  501    0  0.97408062126E+02 -0.41444150949E+02  0.13245162039E+04  0.13401383613E+04  0.17441818957E+03 0.  0.
         24    2    5    5    0    0  0.90075304220E+02  0.15923220098E+02  0.11549253821E+04  0.11608957284E+04  0.73886025268E+02 0.  0.
          5    1    5    5  501    0  0.73327579061E+01 -0.57367371047E+02  0.16959082181E+03  0.17924263288E+03  0.47000000000E+01 0. -1.
        -13    1    6    6    0    0  0.30702936089E+02  0.14518244119E+01  0.81107062279E+03  0.81165284034E+03  0.00000000000E+00 0.  1.
         14    1    6    6    0    0  0.59372368131E+02  0.14471395686E+02  0.34385475930E+03  0.34924288810E+03  0.00000000000E+00 0. -1.
         -5    1    3    3    0  503 -0.89759812543E+01  0.51740844867E+02  0.10340855207E+03  0.11607369171E+03  0.47000000000E+01 0.  1.
         13    1    4    4    0    0 -0.89978868617E+02 -0.17717830695E+02  0.51199435393E+03  0.52014261196E+03  0.00000000000E+00 0. -1.
        -14    1    4    4    0    0  0.15467877453E+01  0.74211367773E+01  0.35411798026E+03  0.35419911035E+03  0.00000000000E+00 0.  1.
</event>
<event>
12    1  0.1061634E+000  0.3472546E+03  0.7818608E-02  0.1063805E+00
         21   -1    0    0  503  502  0.00000000000E+00  0.00000000000E+00  0.10030777227E+03  0.10030777227E+03  0.00000000000E+00 0. -1.
         21   -1    0    0  501  503 -0.00000000000E+00 -0.00000000000E+00 -0.12023977669E+04  0.12023977669E+04  0.00000000000E+00 0.  1.
          6    2    1    2  501    0  0.16027934456E+03  0.25566204435E+03 -0.57813897720E+03  0.67412742073E+03  0.17073533086E+03 0.  0.
         24    2    3    3    0    0  0.10949577484E+03  0.63677490375E+02 -0.22421992629E+03  0.26827298313E+03  0.75177594034E+02 0.  0.
         -6    2    1    2    0  502 -0.16027934456E+03 -0.25566204435E+03 -0.52395101743E+03  0.62857811844E+03  0.17185235843E+03 0.  0.
        -24    2    5    5    0    0 -0.38639779414E+02 -0.88566723591E+02 -0.11517729971E+03  0.17050053513E+03  0.80420924085E+02 0.  0.
          5    1    3    3  501    0  0.50783569719E+02  0.19198455398E+03 -0.35391905091E+03  0.40585443759E+03  0.47000000000E+01 0. -1.
        -11    1    4    4    0    0  0.43568307695E+02  0.68486532045E+02 -0.12589133273E+03  0.14979062108E+03  0.00000000000E+00 0.  1.
         12    1    4    4    0    0  0.65927467146E+02 -0.48090416698E+01 -0.98328593559E+02  0.11848236205E+03  0.00000000000E+00 0. -1.
         -5    1    5    5    0  502 -0.12163956515E+03 -0.16709532076E+03 -0.40877371772E+03  0.45807758331E+03  0.47000000000E+01 0.  1.
         11    1    6    6    0    0 -0.30483561786E+02 -0.84038926303E+02 -0.45701568367E+02  0.10040130489E+03  0.00000000000E+00 0. -1.
        -12    1    6    6    0    0 -0.81562176283E+01 -0.45277972881E+01 -0.69475731339E+02  0.70099230233E+02  0.00000000000E+00 0.  1.
</event>
<event>
12    1  0.1061634E+000  0.4029907E+03  0.7818608E-02  0.1042803E+00
         21   -1    0    0  503  502  0.00000000000E+00  0.00000000000E+00  0.63662006540E+03  0.63662006540E+03  0.00000000000E+00 0. -1.
         21   -1    0    0  501  503 -0.00000000000E+00 -0.00000000000E+00 -0.25471110929E+03  0.25471110929E+03  0.00000000000E+00 0. -1.
          6    2    1    2  501    0  0.78671299162E+01  0.36442255142E+03  0.18821157784E+03  0.44477537846E+03  0.17185997653E+03 0.  0.
         24    2    3    3    0    0 -0.11928296882E+02  0.33406677316E+03  0.11531035716E+03  0.36322778393E+03  0.83036445943E+02 0.  0.
         -6    2    1    2    0  502 -0.78671299162E+01 -0.36442255142E+03  0.19369737827E+03  0.44655579623E+03  0.17037522438E+03 0.  0.
        -24    2    5    5    0    0 -0.29193124261E+01 -0.10119151887E+03  0.19833343915E+02  0.13101522857E+03  0.80767460722E+02 0.  0.
          5    1    3    3  501    0  0.19795426799E+02  0.30355778253E+02  0.72901220685E+02  0.81547594525E+02  0.47000000000E+01 0. -1.
        -11    1    4    4    0    0  0.22204295689E+02  0.16009411689E+03  0.22717282743E+02  0.16321529324E+03  0.00000000000E+00 0.  1.
         12    1    4    4    0    0 -0.34132592571E+02  0.17397265627E+03  0.92593074413E+02  0.20001249070E+03  0.00000000000E+00 0. -1.
         -5    1    5    5    0  502 -0.49478174901E+01 -0.26323103255E+03  0.17386403435E+03  0.31554056766E+03  0.47000000000E+01 0.  1.
         11    1    6    6    0    0 -0.83841917833E+01 -0.49092298623E+02  0.49994611371E+02  0.70567766169E+02  0.00000000000E+00 0. -1.
        -12    1    6    6    0    0  0.54648793572E+01 -0.52099220244E+02 -0.30161267456E+02  0.60447462403E+02  0.00000000000E+00 0.  1.
</event>
<event>
12    1  0.1061634E+000  0.1852785E+03  0.7818608E-02  0.1162882E+00
         21   -1    0    0  503  502  0.00000000000E+00  0.00000000000E+00  0.33797275257E+03  0.33797275257E+03  0.00000000000E+00 0.  1.
         21   -1    0    0  501  503 -0.00000000000E+00 -0.00000000000E+00 -0.13654940554E+03  0.13654940554E+03  0.00000000000E+00 0.  1.
          6    2    1    2  501    0 -0.49865283169E+02  0.47745807067E+02  0.22124519244E+03  0.28857848029E+03  0.17193573088E+03 0.  0.
         24    2    3    3    0    0 -0.46257628348E+02  0.82246702338E+01  0.36129599846E+02  0.99198417851E+02  0.79545991341E+02 0.  0.
         -6    2    1    2    0  502  0.49865283169E+02 -0.47745807067E+02 -0.19821845407E+02  0.18594367781E+03  0.17151074953E+03 0.  0.
        -24    2    5    5    0    0  0.86421862991E+02  0.89798842657E+01 -0.38985976285E+01  0.11644671813E+03  0.77429079646E+02 0.  0.
          5    1    3    3  501    0 -0.36076548210E+01  0.39521136833E+02  0.18511559259E+03  0.18938006244E+03  0.47000000000E+01 0. -1.
        -13    1    4    4    0    0 -0.55189782719E+02  0.11568587204E+02 -0.53443758902E+01  0.56641916283E+02  0.00000000000E+00 0.  1.
         14    1    4    4    0    0  0.89321543717E+01 -0.33439169706E+01  0.41473975736E+02  0.42556501569E+02  0.00000000000E+00 0. -1.
         -5    1    5    5    0  502 -0.36556579822E+02 -0.56725691333E+02 -0.15923247779E+02  0.69496959684E+02  0.47000000000E+01 0.  1.
         13    1    6    6    0    0  0.37382741187E+02 -0.15498728989E+02 -0.34933884160E+02  0.53460791253E+02  0.00000000000E+00 0. -1.
        -14    1    6    6    0    0  0.49039121804E+02  0.24478613254E+02  0.31035286531E+02  0.62985926874E+02  0.00000000000E+00 0.  1.
</event>
<event>
12    1  0.1061634E+000  0.2295685E+03  0.7818608E-02  0.1126957E+00
         21   -1    0    0  501  502  0.00000000000E+00  0.00000000000E+00  0.30433868621E+03  0.30433868621E+03  0.00000000000E+00 0. -1.
         21   -1    0    0  502  503 -0.00000000000E+00 -0.00000000000E+00 -0.18294724631E+03  0.18294724631E+03  0.00000000000E+00 0. -1.
         -6    2    1    2    0  503 -0.15163732199E+03  0.15210685284E+02  0.41943003827E+01  0.22953244309E+03  0.17158761001E+03 0.  0.
        -24    2    3    3    0    0 -0.45921606793E+02 -0.40792907697E+02  0.33625612238E+02  0.10624210696E+03  0.79898987501E+02 0.  0.
          6    2    1    2  501    0  0.15163732199E+03 -0.15210685284E+02  0.11719713952E+03  0.25775348944E+03  0.17168706835E+03 0.  0.
         24    2    5    5    0    0  0.45190043279E+02 -0.64736747429E+02  0.52789149294E+02  0.12375970906E+03  0.79352283040E+02 0.  0.
          5    1    5    5  501    0  0.10644727871E+03  0.49526062145E+02  0.64407990221E+02  0.13399378038E+03  0.47000000000E+01 0. -1.
        -11    1    6    6    0    0  0.42928624745E+02  0.24944544998E+01  0.31141345806E+02  0.53093055519E+02  0.00000000000E+00 0.  1.
         12    1    6    6    0    0  0.22614185344E+01 -0.67231201929E+02  0.21647803488E+02  0.70666653539E+02  0.00000000000E+00 0. -1.
         -5    1    3    3    0  503 -0.10571571519E+03  0.56003592981E+02 -0.29431311855E+02  0.12329033613E+03  0.47000000000E+01 0.  1.
         13    1    4    4    0    0 -0.59972566185E+01  0.23262994231E+02  0.10875898379E+01  0.24048219044E+02  0.00000000000E+00 0. -1.
        -14    1    4    4    0    0 -0.39924350175E+02 -0.64055901928E+02  0.32538022400E+02  0.82193887914E+02  0.00000000000E+00 0.  1.
</event>
<event>
12    1  0.1061634E+000  0.2188705E+03  0.7818608E-02  0.1134866E+00
         21   -1    0    0  503  502  0.00000000000E+00  0.00000000000E+00  0.27213358652E+03  0.27213358652E+03  0.00000000000E+00 0. -1.
         21   -1    0    0  501  503 -0.00000000000E+00 -0.00000000000E+00 -0.22298808862E+03  0.22298808862E+03  0.00000000000E+00 0. -1.
          6    2    1    2  501    0  0.13153205450E+03  0.37325436416E+02  0.13891860020E+03  0.25923475785E+03  0.17091053984E+03 0.  0.
         24    2    3    3    0    0  0.82359985510E+02 -0.33651730935E+02  0.12055917804E+03  0.17083334929E+03  0.82060414390E+02 0.  0.
         -6    2    1    2    0  502 -0.13153205450E+03 -0.37325436416E+02 -0.89773102314E+02  0.23588691729E+03  0.16996928629E+03 0.  0.
        -24    2    5    5    0    0 -0.15772621892E+03 -0.43239807009E+02 -0.53494961864E+02  0.19050732382E+03  0.81756274600E+02 0.  0.
          5    1    3    3  501    0  0.49172068993E+02  0.70977167351E+02  0.18359422163E+02  0.88401408566E+02  0.47000000000E+01 0. -1.
        -13    1    4    4    0    0  0.74619463931E+02 -0.36657705266E+02  0.44453488284E+02  0.94276001046E+02  0.00000000000E+00 0.  1.
         14    1    4    4    0    0  0.77405215798E+01  0.30059743307E+01  0.76105689757E+02  0.76557348239E+02  0.00000000000E+00 0. -1.
         -5    1    5    5    0  502  0.26194164421E+02  0.59143705925E+01 -0.36278140449E+02  0.45379593472E+02  0.47000000000E+01 0.  1.
         13    1    6    6    0    0 -0.76181717872E+02 -0.62624900287E+02 -0.35241099093E+02  0.10472567660E+03  0.00000000000E+00 0. -1.
        -14    1    6    6    0    0 -0.81544501052E+02  0.19385093278E+02 -0.18253862771E+02  0.85781647217E+02  0.00000000000E+00 0.  1.
</event>
<event>
12    1  0.1061634E+000  0.2512684E+03  0.7818608E-02  0.1112805E+00
         21   -1    0    0  503  502  0.00000000000E+00  0.00000000000E+00  0.15950912124E+03  0.15950912124E+03  0.00000000000E+00 0.  1.
         21   -1    0    0  501  503 -0.00000000000E+00 -0.00000000000E+00 -0.12611419225E+04  0.12611419225E+04  0.00000000000E+00 0. -1.
          6    2    1    2  501    0 -0.18563807309E+02  0.18291676294E+03 -0.11408730943E+04  0.11682154025E+04  0.17126777944E+03 0.  0.
         24    2    3    3    0    0 -0.22843202695E+02  0.10461625787E+03 -0.36915061200E+03  0.39250478507E+03  0.79507601209E+02 0.  0.
         -6    2    1    2    0  502  0.18563807309E+02 -0.18291676294E+03  0.39240292956E+02  0.25243564130E+03  0.16846600636E+03 0.  0.
        -24    2    5    5    0    0  0.15664463726E+02 -0.17784598954E+03 -0.14775579605E+02  0.19790195057E+03  0.84096925421E+02 0.  0.
          5    1    3    3  501    0  0.42793953853E+01  0.78300505072E+02 -0.77172248227E+03  0.77571061741E+03  0.47000000000E+01 0. -1.
        -11    1    4    4    0    0 -0.23271316292E+02  0.95061257654E+02 -0.37016718241E+03  0.38288632752E+03  0.00000000000E+00 0.  1.
         12    1    4    4    0    0  0.42811359705E+00  0.95550002155E+01  0.10165704120E+01  0.96184575569E+01  0.00000000000E+00 0. -1.
         -5    1    5    5    0  502  0.28993435837E+01 -0.50707733985E+01  0.54015872561E+02  0.54533690730E+02  0.47000000000E+01 0.  1.
         13    1    6    6    0    0 -0.21389853450E+02 -0.14296114446E+03 -0.22933723585E+02  0.14636041246E+03  0.00000000000E+00 0. -1.
        -14    1    6    6    0    0  0.37054317176E+02 -0.34884845078E+02  0.81581439796E+01  0.51541538109E+02  0.00000000000E+00 0.  1.
</event>
<event>
12    1  0.1061634E+000  0.1843210E+03  0.7818608E-02  0.1164683E+00
         21   -1    0    0  503  502  0.00000000000E+00  0.00000000000E+00  0.11895837550E+03  0.11895837550E+03  0.00000000000E+00 0.  1.
         21   -1    0    0  501  503 -0.00000000000E+00 -0.00000000000E+00 -0.40089868943E+03  0.40089868943E+03  0.00000000000E+00 0.  1.
          6    2    1    2  501    0 -0.48046193648E+02  0.25016164804E+02  0.11467695275E+01  0.18432452365E+03  0.17618163841E+03 0.  0.
         24    2    3    3    0    0 -0.23574659883E+02  0.58372333672E+02  0.55307197288E+02  0.11600957725E+03  0.80226192829E+02 0.  0.
         -6    2    1    2    0  502  0.48046193648E+02 -0.25016164804E+02 -0.28308708345E+03  0.33553254128E+03  0.17178342241E+03 0.  0.
        -24    2    5    5    0    0  0.36646949025E+02 -0.77655353015E+02 -0.23719675143E+03  0.26461823041E+03  0.79919686248E+02 0.  0.
          5    1    3    3  501    0 -0.24471533765E+02 -0.33356168869E+02 -0.54160427760E+02  0.68314946400E+02  0.47000000000E+01 0. -1.
        -13    1    4    4    0    0  0.10022283264E+02 -0.16602217701E+02  0.65283773697E+01  0.20462148115E+02  0.00000000000E+00 0.  1.
         14    1    4    4    0    0 -0.33596943147E+02  0.74974551373E+02  0.48778819918E+02  0.95547429138E+02  0.00000000000E+00 0. -1.
         -5    1    5    5    0  502  0.11399244624E+02  0.52639188211E+02 -0.45890332020E+02  0.70914310872E+02  0.47000000000E+01 0.  1.
         13    1    6    6    0    0  0.61044461551E+01  0.41917221725E+00  0.52646288559E+01  0.80719443258E+01  0.00000000000E+00 0. -1.
        -14    1    6    6    0    0  0.30542502870E+02 -0.78074525232E+02 -0.24246138029E+03  0.25654628608E+03  0.00000000000E+00 0.  1.
</event>
<event>
12    1  0.1061634E+000  0.6552892E+03  0.7818608E-02  0.9796963E-01
         21   -1    0    0  501  502  0.00000000000E+00  0.00000000000E+00  0.20504198423E+04  0.20504198423E+04  0.00000000000E+00 0. -1.
         21   -1    0    0  502  503 -0.00000000000E+00 -0.00000000000E+00 -0.25772241720E+03  0.25772241720E+03  0.00000000000E+00 0. -1.
         -6    2    1    2    0  503  0.45799500634E+03 -0.43569734597E+03  0.39660140466E+03  0.76596123349E+03  0.17266248556E+03 0.  0.
        -24    2    3    3    0    0  0.33030933928E+03 -0.33902705875E+03  0.36484302204E+03  0.60262275404E+03  0.77460614336E+02 0.  0.
          6    2    1    2  501    0 -0.45799500634E+03  0.43569734597E+03  0.13960960204E+04  0.15421810260E+04  0.17218192584E+03 0.  0.
         24    2    5    5    0    0 -0.30871184193E+03  0.22095362360E+03  0.73101780198E+03  0.82751225228E+03  0.79158042785E+02 0.  0.
          5    1    5    5  501    0 -0.14928316441E+03  0.21474372237E+03  0.66507821845E+03  0.71466877372E+03  0.47000000000E+01 0. -1.
        -13    1    6    6    0    0 -0.84129638079E+02  0.57724479804E+02  0.27864627233E+03  0.29673836398E+03  0.00000000000E+00 0.  1.
         14    1    6    6    0    0 -0.22458220385E+03  0.16322914379E+03  0.45237152965E+03  0.53077388831E+03  0.00000000000E+00 0. -1.
         -5    1    3    3    0  503  0.12768566705E+03 -0.96670287221E+02  0.31758382615E+02  0.16333847945E+03  0.47000000000E+01 0.  1.
         13    1    4    4    0    0  0.59133184048E+01  0.42500208952E+01  0.65434327826E+01  0.97901238371E+01  0.00000000000E+00 0. -1.
        -14    1    4    4    0    0  0.32439602088E+03 -0.34327707964E+03  0.35829958926E+03  0.59283263021E+03  0.00000000000E+00 0.  1.
</event>
<event>
12    1  0.1061634E+000  0.3081682E+03  0.7818608E-02  0.1081423E+00
         21   -1    0    0  503  502  0.00000000000E+00  0.00000000000E+00  0.47475970503E+03  0.47475970503E+03  0.00000000000E+00 0.  1.
         21   -1    0    0  501  503 -0.00000000000E+00 -0.00000000000E+00 -0.24088594069E+03  0.24088594069E+03  0.00000000000E+00 0.  1.
          6    2    1    2  501    0 -0.90481241103E+02 -0.23720213367E+03 -0.32549322967E+02  0.30827740772E+03  0.17182489480E+03 0.  0.
         24    2    3    3    0    0 -0.96746743461E+02 -0.10696930617E+03  0.22482060753E+02  0.16667801128E+03  0.80459626861E+02 0.  0.
         -6    2    1    2    0  502  0.90481241103E+02  0.23720213367E+03  0.26642308731E+03  0.40736823800E+03  0.17468804387E+03 0.  0.
        -24    2    5    5    0    0  0.59906648167E+02  0.25393020726E+03  0.23755914023E+03  0.36187261601E+03  0.80299990412E+02 0.  0.
          5    1    3    3  501    0  0.62655023580E+01 -0.13023282750E+03 -0.55031383720E+02  0.14159939644E+03  0.47000000000E+01 0. -1.
        -11    1    4    4    0    0 -0.34642689672E+02 -0.14729281328E+01 -0.16229388873E+02  0.38284181175E+02  0.00000000000E+00 0.  1.
         12    1    4    4    0    0 -0.62104053788E+02 -0.10549637804E+03  0.38711449625E+02  0.12839383010E+03  0.00000000000E+00 0. -1.
         -5    1    5    5    0  502  0.30574592935E+02 -0.16728073587E+02  0.28863947075E+02  0.45495621986E+02  0.47000000000E+01 0.  1.
         11    1    6    6    0    0  0.45154331535E+02  0.14293104607E+03  0.18520526834E+03  0.23826285697E+03  0.00000000000E+00 0. -1.
        -12    1    6    6    0    0  0.14752316633E+02  0.11099916119E+03  0.52353871888E+02  0.12360975905E+03  0.00000000000E+00 0.  1.
</event>
<event>
12    1  0.1061634E+000  0.2272147E+03  0.7818608E-02  0.1128857E+00
         21   -1    0    0  503  502  0.00000000000E+00  0.00000000000E+00  0.67746814020E+02  0.67746814020E+02  0.00000000000E+00 0. -1.
         21   -1    0    0  501  503 -0.00000000000E+00 -0.00000000000E+00 -0.75781082270E+03  0.75781082270E+03  0.00000000000E+00 0. -1.
          6    2    1    2  501    0 -0.12367052126E+03  0.81002529259E+02 -0.33620665217E+03  0.40503232518E+03  0.17076435196E+03 0.  0.
         24    2    3    3    0    0 -0.11393456153E+03  0.52990572157E+02 -0.13327025038E+03  0.19988668954E+03  0.80029019531E+02 0.  0.
         -6    2    1    2    0  502  0.12367052126E+03 -0.81002529259E+02 -0.35385735651E+03  0.42052531154E+03  0.17254188278E+03 0.  0.
        -24    2    5    5    0    0  0.14765485070E+03 -0.94724552838E+02 -0.26880500569E+03  0.33097345858E+03  0.80700702297E+02 0.  0.
          5    1    3    3  501    0 -0.97359597297E+01  0.28011957102E+02 -0.20293640179E+03  0.20514563564E+03  0.47000000000E+01 0. -1.
        -13    1    4    4    0    0 -0.57710584307E+02 -0.88849090567E+01 -0.85684410008E+02  0.10368833719E+03  0.00000000000E+00 0.  1.
         14    1    4    4    0    0 -0.56223977227E+02  0.61875481213E+02 -0.47585840374E+02  0.96198352349E+02  0.00000000000E+00 0. -1.
         -5    1    5    5    0  502 -0.23984329439E+02  0.13722023579E+02 -0.85052350811E+02  0.89551852958E+02  0.47000000000E+01 0.  1.
         11    1    6    6    0    0  0.60226552517E+02 -0.17653027527E+02 -0.40654195389E+02  0.74777206498E+02  0.00000000000E+00 0. -1.
        -12    1    6    6    0    0  0.87428298185E+02 -0.77071525311E+02 -0.22815081031E+03  0.25619625208E+03  0.00000000000E+00 0.  1.
</event>
<event>
12    1  0.1061634E+000  0.2681511E+03  0.7818608E-02  0.1102385E+00
         21   -1    0    0  501  502  0.00000000000E+00  0.00000000000E+00  0.15937314664E+03  0.15937314664E+03  0.00000000000E+00 0.  1.
         21   -1    0    0  502  503 -0.00000000000E+00 -0.00000000000E+00 -0.46015211166E+03  0.46015211166E+03  0.00000000000E+00 0.  1.
         -6    2    1    2    0  503 -0.19103716320E+03  0.74361610412E+02 -0.10602585029E+03  0.28835133542E+03  0.17285880041E+03 0.  0.
        -24    2    3    3    0    0 -0.17957388743E+02 -0.10860495635E+02 -0.35136102549E+02  0.82762274376E+02  0.71934902389E+02 0.  0.
          6    2    1    2  501    0  0.19103716320E+03 -0.74361610412E+02 -0.19475311472E+03  0.33117392289E+03  0.17240227574E+03 0.  0.
         24    2    5    5    0    0  0.18735083090E+03 -0.38669544071E+02 -0.10260711145E+03  0.23217650593E+03  0.82353160881E+02 0.  0.
          5    1    5    5  501    0  0.36863322936E+01 -0.35692066341E+02 -0.92146003269E+02  0.98997416956E+02  0.47000000000E+01 0. -1.
        -11    1    6    6    0    0  0.10421278910E+03  0.16595558748E+02 -0.72039187103E+02  0.12777074180E+03  0.00000000000E+00 0.  1.
         12    1    6    6    0    0  0.83138041801E+02 -0.55265102819E+02 -0.30567924350E+02  0.10440576413E+03  0.00000000000E+00 0. -1.
         -5    1    3    3    0  503 -0.17307977445E+03  0.85222106047E+02 -0.70889747743E+02  0.20558906104E+03  0.47000000000E+01 0.  1.
         11    1    4    4    0    0 -0.37458606482E+02 -0.88431473359E+01  0.42939772259E+01  0.38727079606E+02  0.00000000000E+00 0. -1.
        -12    1    4    4    0    0  0.19501217738E+02 -0.20173482992E+01 -0.39430079775E+02  0.44035194771E+02  0.00000000000E+00 0.  1.
</event>
<event>
12    1  0.1061634E+000  0.2224992E+03  0.7818608E-02  0.1132264E+00
         21   -1    0    0  501  502  0.00000000000E+00  0.00000000000E+00  0.69844388187E+02  0.69844388187E+02  0.00000000000E+00 0.  1.
         21   -1    0    0  502  503 -0.00000000000E+00 -0.00000000000E+00 -0.72484943789E+03  0.72484943789E+03  0.00000000000E+00 0. -1.
         -6    2    1    2    0  503 -0.12355282367E+03 -0.66056038957E+02 -0.39443478907E+03  0.45286278117E+03  0.17285021035E+03 0.  0.
        -24    2    3    3    0    0 -0.14447336736E+03 -0.82897465103E+02 -0.36049008741E+03  0.40932388414E+03  0.99239082095E+02 0.  0.
          6    2    1    2  501    0  0.12355282367E+03  0.66056038957E+02 -0.26057026063E+03  0.34183104491E+03  0.17123931213E+03 0.  0.
         24    2    5    5    0    0  0.68894046463E+02  0.64338739942E+02 -0.66901439512E+02  0.14053466313E+03  0.79927003186E+02 0.  0.
          5    1    5    5  501    0  0.54658777205E+02  0.17172990155E+01 -0.19366882112E+03  0.20129638177E+03  0.47000000000E+01 0. -1.
        -11    1    6    6    0    0  0.27109533091E+02 -0.16902396744E+02 -0.13226782477E+02  0.34576951497E+02  0.00000000000E+00 0.  1.
         12    1    6    6    0    0  0.41784513372E+02  0.81241136686E+02 -0.53674657035E+02  0.10595771164E+03  0.00000000000E+00 0. -1.
         -5    1    3    3    0  503  0.20920543691E+02  0.16841426146E+02 -0.33944701663E+02  0.43538897023E+02  0.47000000000E+01 0.  1.
         13    1    4    4    0    0 -0.12310608584E+03 -0.44954333005E+02 -0.33291194035E+03  0.35777976529E+03  0.00000000000E+00 0. -1.
        -14    1    4    4    0    0 -0.21367281516E+02 -0.37943132099E+02 -0.27578147060E+02  0.51544118851E+02  0.00000000000E+00 0.  1.
</event>
<event>
12    1  0.1061634E+000  0.2601810E+03  0.7818608E-02  0.1107244E+00
         21   -1    0    0  503  502  0.00000000000E+00  0.00000000000E+00  0.19609601688E+03  0.19609601688E+03  0.00000000000E+00 0. -1.
         21   -1    0    0  501  503 -0.00000000000E+00 -0.00000000000E+00 -0.35487415736E+03  0.35487415736E+03  0.00000000000E+00 0. -1.
          6    2    1    2  501    0  0.18592995853E+03  0.61962946980E+02 -0.12920391508E+03  0.29049580482E+03  0.17112803590E+03 0.  0.
         24    2    3    3    0    0  0.15475661069E+03 -0.11199685970E+02 -0.74960034125E+02  0.19411615398E+03  0.89370201979E+02 0.  0.
         -6    2    1    2    0  502 -0.18592995853E+03 -0.61962946980E+02 -0.29574225402E+02  0.26047436942E+03  0.16900563907E+03 0.  0.
        -24    2    5    5    0    0 -0.15888183553E+03 -0.68298701555E+02  0.30845543233E+02  0.19380817719E+03  0.81865815287E+02 0.  0.
          5    1    3    3  501    0  0.31173347840E+02  0.73162632950E+02 -0.54243880955E+02  0.96379650844E+02  0.47000000000E+01 0. -1.
        -13    1    4    4    0    0  0.33521987286E+02  0.69356250283E+01  0.19467189378E+02  0.39380172529E+02  0.00000000000E+00 0.  1.
         14    1    4    4    0    0  0.12123462341E+03 -0.18135310998E+02 -0.94427223503E+02  0.15473598145E+03  0.00000000000E+00 0. -1.
         -5    1    5    5    0  502 -0.27048122996E+02  0.63357545752E+01 -0.60419768635E+02  0.66666192223E+02  0.47000000000E+01 0.  1.
         13    1    6    6    0    0 -0.10596129025E+03 -0.77595426499E+02 -0.10199154866E+01  0.13133881937E+03  0.00000000000E+00 0. -1.
        -14    1    6    6    0    0 -0.52920545281E+02  0.92967249435E+01  0.31865458720E+02  0.62469357824E+02  0.00000000000E+00 0.  1.
</event>
<event>
12    1  0.1061634E+000  0.1828087E+03  0.7818608E-02  0.1166103E+00
         21   -1    0    0  503  502  0.00000000000E+00  0.00000000000E+00  0.81209025994E+03  0.81209025994E+03  0.00000000000E+00 0.  1.
         21   -1    0    0  501  503 -0.00000000000E+00 -0.00000000000E+00 -0.41913635676E+02  0.41913635676E+02  0.00000000000E+00 0.  1.
          6    2    1    2  501    0  0.12125318410E+02 -0.52574314283E+02  0.29524866804E+03  0.34510747182E+03  0.17034174256E+03 0.  0.
         24    2    3    3    0    0 -0.51835087835E+02 -0.49818349568E+02  0.22727961353E+03  0.25161730507E+03  0.80538817967E+02 0.  0.
         -6    2    1    2    0  502 -0.12125318410E+02  0.52574314283E+02  0.47492795622E+03  0.50889642379E+03  0.17466517878E+03 0.  0.
        -24    2    5    5    0    0  0.35738665156E+02  0.43411352568E+02  0.14137147651E+03  0.17176598027E+03  0.79723646989E+02 0.  0.
          5    1    3    3  501    0  0.63960406245E+02 -0.27559647150E+01  0.67969054512E+02  0.93490166755E+02  0.47000000000E+01 0. -1.
        -13    1    4    4    0    0 -0.69948645930E+02 -0.21555282312E+02  0.13751994123E+03  0.15578567810E+03  0.00000000000E+00 0.  1.
         14    1    4    4    0    0  0.18113558095E+02 -0.28263067256E+02  0.89759672295E+02  0.95831626972E+02  0.00000000000E+00 0. -1.
         -5    1    5    5    0  502 -0.47863983565E+02  0.91629617151E+01  0.33355647971E+03  0.33713044352E+03  0.47000000000E+01 0.  1.
         13    1    6    6    0    0 -0.72350470335E+01 -0.57004886017E+01 -0.57237716790E+01  0.10844493446E+02  0.00000000000E+00 0. -1.
        -14    1    6    6    0    0  0.42973712189E+02  0.49111841170E+02  0.14709524819E+03  0.16092148682E+03  0.00000000000E+00 0.  1.
</event>
<event>
12    1  0.1061634E+000  0.1908107E+03  0.7818608E-02  0.1158716E+00
         21   -1    0    0  503  502  0.00000000000E+00  0.00000000000E+00  0.25279608436E+03  0.25279608436E+03  0.00000000000E+00 0. -1.
         21   -1    0    0  501  503 -0.00000000000E+00 -0.00000000000E+00 -0.14241654257E+03  0.14241654257E+03  0.00000000000E+00 0. -1.
          6    2    1    2  501    0 -0.27294122622E+02  0.82683680745E+02  0.77061145049E+02  0.20578418717E+03  0.16978560429E+03 0.  0.
         24    2    3    3    0    0  0.48431145306E+02  0.35046995079E+02  0.29385831580E+02  0.10430219104E+03  0.80259281450E+02 0.  0.
         -6    2    1    2    0  502  0.27294122622E+02 -0.82683680745E+02  0.33318396742E+02  0.18942843976E+03  0.16489832636E+03 0.  0.
        -24    2    5    5    0    0 -0.41173229214E+02 -0.45854984473E+02  0.46375101338E+02  0.11045566805E+03  0.79068895118E+02 0.  0.
          5    1    3    3  501    0 -0.75725267928E+02  0.47636685666E+02  0.47675313469E+02  0.10148199613E+03  0.47000000000E+01 0. -1.
        -11    1    4    4    0    0  0.22777274017E+02  0.50639372696E+02  0.44063549373E+02  0.70885447463E+02  0.00000000000E+00 0.  1.
         12    1    4    4    0    0  0.25653871289E+02 -0.15592377617E+02 -0.14677717793E+02  0.33416743580E+02  0.00000000000E+00 0. -1.
         -5    1    5    5    0  502  0.68467351836E+02 -0.36828696272E+02 -0.13056704595E+02  0.78972771709E+02  0.47000000000E+01 0.  1.
         13    1    6    6    0    0 -0.92666984970E+01  0.76664198110E+01 -0.17492196824E+02  0.21227874210E+02  0.00000000000E+00 0. -1.
        -14    1    6    6    0    0 -0.31906530717E+02 -0.53521404284E+02  0.63867298161E+02  0.89227793839E+02  0.00000000000E+00 0.  1.
</event>
<event>
12    1  0.1061634E+000  0.1891855E+03  0.7818608E-02  0.1159636E+00
         21   -1    0    0  501  502  0.00000000000E+00  0.00000000000E+00  0.17551440497E+03  0.17551440497E+03  0.00000000000E+00 0.  1.
         21   -1    0    0  502  503 -0.00000000000E+00 -0.00000000000E+00 -0.22330685549E+03  0.22330685549E+03  0.00000000000E+00 0.  1.
         -6    2    1    2    0  503 -0.32938233007E+02  0.67024970428E+02 -0.85811204068E+02  0.20773709971E+03  0.17382136232E+03 0.  0.
        -24    2    3    3    0    0 -0.13787310706E+00 -0.16052685292E+02 -0.87150583719E+02  0.11828518846E+03  0.78348285570E+02 0.  0.
          6    2    1    2  501    0  0.32938233007E+02 -0.67024970428E+02  0.38018753549E+02  0.19108416074E+03  0.17172785741E+03 0.  0.
         24    2    5    5    0    0  0.38405671159E+02 -0.24677045356E+02  0.86776578894E+02  0.12610220040E+03  0.79294628795E+02 0.  0.
          5    1    5    5  501    0 -0.54674381512E+01 -0.42347925072E+02 -0.48757825345E+02  0.64981960345E+02  0.47000000000E+01 0. -1.
        -11    1    6    6    0    0 -0.14304966218E+00  0.25496854924E+02  0.12094139960E+02  0.28220175329E+02  0.00000000000E+00 0.  1.
         12    1    6    6    0    0  0.38548720821E+02 -0.50173900280E+02  0.74682438934E+02  0.97882025068E+02  0.00000000000E+00 0. -1.
         -5    1    3    3    0  503 -0.32800359900E+02  0.83077655719E+02  0.13393796513E+01  0.89451911256E+02  0.47000000000E+01 0.  1.
         11    1    4    4    0    0 -0.85019098786E+01 -0.76314231625E+01  0.13072811245E+02  0.17361436718E+02  0.00000000000E+00 0. -1.
        -12    1    4    4    0    0  0.83640367716E+01 -0.84212621292E+01 -0.10022339496E+03  0.10092375174E+03  0.00000000000E+00 0.  1.
</event>
<event>
12    1  0.1061634E+000  0.2182270E+03  0.7818608E-02  0.1135233E+00
         21   -1    0    0  501  502  0.00000000000E+00  0.00000000000E+00  0.33175606335E+03  0.33175606335E+03  0.00000000000E+00 0.  1.
         21   -1    0    0  502  503 -0.00000000000E+00 -0.00000000000E+00 -0.18255524493E+03  0.18255524493E+03  0.00000000000E+00 0.  1.
         -6    2    1    2    0  503 -0.12941692076E+03 -0.33082002583E+02 -0.44368625156E+02  0.22269173508E+03  0.17256846670E+03 0.  0.
        -24    2    3    3    0    0 -0.15836456962E+03 -0.20470503362E+02 -0.57545324715E+02  0.18815578717E+03  0.81195796871E+02 0.  0.
          6    2    1    2  501    0  0.12941692076E+03  0.33082002583E+02  0.19356944357E+03  0.29161957320E+03  0.17242299068E+03 0.  0.
         24    2    5    5    0    0  0.54928981023E+02 -0.63207207255E+01  0.17638631090E+03  0.20548956786E+03  0.89759051696E+02 0.  0.
          5    1    5    5  501    0  0.74487939742E+02  0.39402723309E+02  0.17183132671E+02  0.86130005338E+02  0.47000000000E+01 0. -1.
        -13    1    6    6    0    0  0.45526348826E+02  0.32602210163E+02  0.14223828738E+03  0.15286360895E+03  0.00000000000E+00 0.  1.
         14    1    6    6    0    0  0.94026321973E+01 -0.38922930888E+02  0.34148023520E+02  0.52625958912E+02  0.00000000000E+00 0. -1.
         -5    1    3    3    0  503  0.28947648853E+02 -0.12611499221E+02  0.13176699559E+02  0.34535947910E+02  0.47000000000E+01 0.  1.
         11    1    4    4    0    0 -0.43092284676E+02  0.17507099246E+02 -0.47330029925E+02  0.66359439836E+02  0.00000000000E+00 0. -1.
        -12    1    4    4    0    0 -0.11527228494E+03 -0.37977602608E+02 -0.10215294790E+02  0.12179634733E+03  0.00000000000E+00 0.  1.
</event>
<event>
12    1  0.1061634E+000  0.2418039E+03  0.7818608E-02  0.1118600E+00
         21   -1    0    0  503  502  0.00000000000E+00  0.00000000000E+00  0.23341092171E+03  0.23341092171E+03  0.00000000000E+00 0. -1.
         21   -1    0    0  501  503 -0.00000000000E+00 -0.00000000000E+00 -0.26649504764E+03  0.26649504764E+03  0.00000000000E+00 0. -1.
          6    2    1    2  501    0  0.15581194952E+03  0.67005712806E+02 -0.77820817618E+02  0.25401808139E+03  0.17234261475E+03 0.  0.
         24    2    3    3    0    0  0.49560736305E+02 -0.13575411891E+01  0.12597615423E+02  0.98581799144E+02  0.84270764248E+02 0.  0.
         -6    2    1    2    0  502 -0.15581194952E+03 -0.67005712806E+02  0.44736691688E+02  0.24588788795E+03  0.17231469089E+03 0.  0.
        -24    2    5    5    0    0 -0.16979455071E+02 -0.32681828558E+02 -0.18290460782E+02  0.89532195722E+02  0.79530304304E+02 0.  0.
          5    1    3    3  501    0  0.10625121321E+03  0.68363253995E+02 -0.90418433041E+02  0.15543628225E+03  0.47000000000E+01 0. -1.
        -13    1    4    4    0    0  0.53119962820E+02  0.31365825576E+02 -0.38023715108E+01  0.61806176821E+02  0.00000000000E+00 0.  1.
         14    1    4    4    0    0 -0.35592265150E+01 -0.32723366765E+02  0.16399986934E+02  0.36775622323E+02  0.00000000000E+00 0. -1.
         -5    1    5    5    0  502 -0.13883249445E+03 -0.34323884248E+02  0.63027152470E+02  0.15635569223E+03  0.47000000000E+01 0.  1.
         11    1    6    6    0    0 -0.19122948447E+02  0.24110393240E+02 -0.51684385390E+01  0.31204342269E+02  0.00000000000E+00 0. -1.
        -12    1    6    6    0    0  0.21434933766E+01 -0.56792221798E+02 -0.13122022243E+02  0.58327853453E+02  0.00000000000E+00 0.  1.
</event>
<event>
12    1  0.1061634E+000  0.2199403E+03  0.7818608E-02  0.1134329E+00
         21   -1    0    0  503  502  0.00000000000E+00  0.00000000000E+00  0.33448979679E+03  0.33448979679E+03  0.00000000000E+00 0.  1.
         21   -1    0    0  501  503 -0.00000000000E+00 -0.00000000000E+00 -0.15187517773E+03  0.15187517773E+03  0.00000000000E+00 0.  1.
          6    2    1    2  501    0  0.72163982294E+02  0.11213255059E+03  0.14979511083E+03  0.26610581740E+03  0.17490677969E+03 0.  0.
         24    2    3    3    0    0  0.63801243856E+02 -0.72306647137E+00  0.43501486004E+02  0.11077793717E+03  0.79424495824E+02 0.  0.
         -6    2    1    2    0  502 -0.72163982294E+02 -0.11213255059E+03  0.32819508225E+02  0.22025915711E+03  0.17220809194E+03 0.  0.
        -24    2    5    5    0    0 -0.13385506964E+02  0.83704581136E+01  0.15278948209E+02  0.84960799716E+02  0.82071035477E+02 0.  0.
          5    1    3    3  501    0  0.83627384384E+01  0.11285561706E+03  0.10629362483E+03  0.15532788023E+03  0.47000000000E+01 0. -1.
        -11    1    4    4    0    0  0.78634289009E+02 -0.11409347753E+02  0.21783106910E+02  0.82389491871E+02  0.00000000000E+00 0.  1.
         12    1    4    4    0    0 -0.14833045153E+02  0.10686281282E+02  0.21718379093E+02  0.28388445301E+02  0.00000000000E+00 0. -1.
         -5    1    5    5    0  502 -0.58778475330E+02 -0.12050300870E+03  0.17540560016E+02  0.13529835740E+03  0.47000000000E+01 0.  1.
         11    1    6    6    0    0 -0.35922622556E+02 -0.24490615861E+02  0.46764281477E+01  0.43727497719E+02  0.00000000000E+00 0. -1.
        -12    1    6    6    0    0  0.22537115591E+02  0.32861073974E+02  0.10602520061E+02  0.41233301997E+02  0.00000000000E+00 0.  1.
</event>
<event>
12    1  0.1061634E+000  0.2370402E+03  0.7818608E-02  0.1122013E+00
         21   -1    0    0  501  502  0.00000000000E+00  0.00000000000E+00  0.17382268008E+03  0.17382268008E+03  0.00000000000E+00 0.  1.
         21   -1    0    0  502  503 -0.00000000000E+00 -0.00000000000E+00 -0.32204770687E+03  0.32204770687E+03  0.00000000000E+00 0.  1.
         -6    2    1    2    0  503  0.14234805066E+03 -0.79787691225E+02 -0.85603324465E+02  0.25202377556E+03  0.17192734248E+03 0.  0.
        -24    2    3    3    0    0  0.12854591680E+03 -0.32531929342E+02 -0.11678653772E+03  0.19355935288E+03  0.79017393923E+02 0.  0.
          6    2    1    2  501    0 -0.14234805066E+03  0.79787691225E+02 -0.62621702323E+02  0.24384661139E+03  0.17003131797E+03 0.  0.
         24    2    5    5    0    0 -0.32536995119E+02  0.87599286717E+02 -0.53068183443E+02  0.13324440226E+03  0.78775297871E+02 0.  0.
          5    1    5    5  501    0 -0.10981105554E+03 -0.78115954917E+01 -0.95535188802E+01  0.11060220913E+03  0.47000000000E+01 0. -1.
        -11    1    6    6    0    0  0.19135872978E+02  0.36522634717E+02 -0.43541793541E+02  0.59966426158E+02  0.00000000000E+00 0.  1.
         12    1    6    6    0    0 -0.51672868097E+02  0.51076652000E+02 -0.95263899013E+01  0.73277976101E+02  0.00000000000E+00 0. -1.
         -5    1    3    3    0  503  0.13802133855E+02 -0.47255761883E+02  0.31183213255E+02  0.58464422677E+02  0.47000000000E+01 0.  1.
         11    1    4    4    0    0  0.49588346818E+02  0.20098472418E+02 -0.17684228987E+02  0.56353213648E+02  0.00000000000E+00 0. -1.
        -12    1    4    4    0    0  0.78957569984E+02 -0.52630401760E+02 -0.99102308733E+02  0.13720613923E+03  0.00000000000E+00 0.  1.
</event>
<event>
12    1  0.1061634E+000  0.3234969E+03  0.7818608E-02  0.1074109E+00
         21   -1    0    0  503  502  0.00000000000E+00  0.00000000000E+00  0.11031680778E+04  0.11031680778E+04  0.00000000000E+00 0.  1.
         21   -1    0    0  501  503 -0.00000000000E+00 -0.00000000000E+00 -0.96874520756E+02  0.96874520756E+02  0.00000000000E+00 0.  1.
          6    2    1    2  501    0  0.21404210106E+03 -0.17067300008E+03  0.41312788316E+03  0.52439791321E+03  0.17139203466E+03 0.  0.
         24    2    3    3    0    0  0.22953534760E+03 -0.12466447168E+03  0.34514244725E+03  0.44072632382E+03  0.82998056094E+02 0.  0.
         -6    2    1    2    0  502 -0.21404210106E+03  0.17067300008E+03  0.59316567385E+03  0.67564468532E+03  0.17235698472E+03 0.  0.
        -24    2    5    5    0    0 -0.16061792584E+03  0.18408760901E+03  0.40426059999E+03  0.47881655938E+03  0.78436591832E+02 0.  0.
          5    1    3    3  501    0 -0.15493246543E+02 -0.46008528407E+02  0.67985435916E+02  0.83671589391E+02  0.47000000000E+01 0. -1.
        -13    1    4    4    0    0  0.28174592059E+02  0.11972881011E+02  0.42749503019E+02  0.52580200891E+02  0.00000000000E+00 0.  1.
         14    1    4    4    0    0  0.20136075554E+03 -0.13663735269E+03  0.30239294423E+03  0.38814612293E+03  0.00000000000E+00 0. -1.
         -5    1    5    5    0  502 -0.53424175222E+02 -0.13414608928E+02  0.18890507386E+03  0.19682812594E+03  0.47000000000E+01 0.  1.
         11    1    6    6    0    0 -0.14608755802E+03  0.16942852957E+03  0.39912652614E+03  0.45754735832E+03  0.00000000000E+00 0. -1.
        -12    1    6    6    0    0 -0.14530367822E+02  0.14659079445E+02  0.51340738471E+01  0.21269201054E+02  0.00000000000E+00 0.  1.
</event>
<event>
12    1  0.1061634E+000  0.1857780E+03  0.7818608E-02  0.1162351E+00
         21   -1    0    0  503  502  0.00000000000E+00  0.00000000000E+00  0.18877524804E+03  0.18877524804E+03  0.00000000000E+00 0.  1.
         21   -1    0    0  501  503 -0.00000000000E+00 -0.00000000000E+00 -0.19180609841E+03  0.19180609841E+03  0.00000000000E+00 0.  1.
          6    2    1    2  501    0  0.43120102321E+02 -0.54876650921E+02 -0.42937225646E+02  0.19067534762E+03  0.17217053407E+03 0.  0.
         24    2    3    3    0    0  0.28876243459E+02 -0.98515363125E+02 -0.54236961060E+02  0.14316746682E+03  0.83762529818E+02 0.  0.
         -6    2    1    2    0  502 -0.43120102321E+02  0.54876650921E+02  0.39906375272E+02  0.18990599882E+03  0.17204935211E+03 0.  0.
        -24    2    5    5    0    0 -0.16723944452E+02 -0.92119145549E+00  0.81927150698E+02  0.11508626926E+03  0.79071185901E+02 0.  0.
          5    1    3    3  501    0  0.14243858863E+02  0.43638712204E+02  0.11299735414E+02  0.47507880805E+02  0.47000000000E+01 0. -1.
        -13    1    4    4    0    0  0.19472259193E+02 -0.92244344565E+02 -0.69329287973E+01  0.94531759129E+02  0.00000000000E+00 0.  1.
         14    1    4    4    0    0  0.94039842660E+01 -0.62710185597E+01 -0.47304032263E+02  0.48635707687E+02  0.00000000000E+00 0. -1.
         -5    1    5    5    0  502 -0.26396157869E+02  0.55797842376E+02 -0.42020775426E+02  0.74819729561E+02  0.47000000000E+01 0.  1.
         13    1    6    6    0    0  0.74968288248E+01  0.12539503103E+02 -0.10889560267E+02  0.18221528566E+02  0.00000000000E+00 0. -1.
        -14    1    6    6    0    0 -0.24220773277E+02 -0.13460694558E+02  0.92816710965E+02  0.96864740698E+02  0.00000000000E+00 0.  1.
</event>
<event>
12    1  0.1061634E+000  0.2242259E+03  0.7818608E-02  0.1131048E+00
         21   -1    0    0  503  502  0.00000000000E+00  0.00000000000E+00  0.44711043328E+03  0.44711043328E+03  0.00000000000E+00 0.  1.
         21   -1    0    0  501  503 -0.00000000000E+00 -0.00000000000E+00 -0.11571506615E+03  0.11571506615E+03  0.00000000000E+00 0.  1.
          6    2    1    2  501    0 -0.50129443018E+02 -0.13256690157E+03  0.21872242100E+03  0.31323591967E+03  0.17375355961E+03 0.  0.
         24    2    3    3    0    0 -0.99653344453E+02 -0.80254349051E+02  0.13582504551E+03  0.20331192399E+03  0.80720170012E+02 0.  0.
         -6    2    1    2    0  502  0.50129443018E+02  0.13256690157E+03  0.11267294613E+03  0.24958957976E+03  0.17179295995E+03 0.  0.
        -24    2    5    5    0    0  0.91717846266E+02  0.12620265854E+03  0.11049129778E+03  0.20719915085E+03  0.79899229537E+02 0.  0.
          5    1    3    3  501    0  0.49523901435E+02 -0.52312552515E+02  0.82897375491E+02  0.10992399568E+03  0.47000000000E+01 0. -1.
        -11    1    4    4    0    0 -0.20288955119E+02  0.11837215608E+02  0.37220895170E+01  0.23782668554E+02  0.00000000000E+00 0.  1.
         12    1    4    4    0    0 -0.79364389334E+02 -0.92091564659E+02  0.13210295599E+03  0.17952925544E+03  0.00000000000E+00 0. -1.
         -5    1    5    5    0  502 -0.41588403248E+02  0.63642430261E+01  0.21816483480E+01  0.42390428914E+02  0.47000000000E+01 0.  1.
         13    1    6    6    0    0  0.85814430006E+01  0.32829480053E+02 -0.80929025267E+01  0.34884251401E+02  0.00000000000E+00 0. -1.
        -14    1    6    6    0    0  0.83136403265E+02  0.93373178488E+02  0.11858420031E+03  0.17231489945E+03  0.00000000000E+00 0.  1.
</event>
<event>
12    1  0.1061634E+000  0.2588847E+03  0.7818608E-02  0.1108056E+00
         21   -1    0    0  503  502  0.00000000000E+00  0.00000000000E+00  0.65693319712E+03  0.65693319712E+03  0.00000000000E+00 0.  1.
         21   -1    0    0  501  503 -0.00000000000E+00 -0.00000000000E+00 -0.12200220256E+03  0.12200220256E+03  0.00000000000E+00 0.  1.
          6    2    1    2  501    0  0.14130956806E+03 -0.12911517570E+03  0.42684458141E+03  0.49839315153E+03  0.17193113211E+03 0.  0.
         24    2    3    3    0    0  0.10921617487E+03 -0.21230017630E+02  0.29337638903E+03  0.32373622611E+03  0.79727987273E+02 0.  0.
         -6    2    1    2    0  502 -0.14130956806E+03  0.12911517570E+03  0.10808641316E+03  0.28054224815E+03  0.17430478384E+03 0.  0.
        -24    2    5    5    0    0 -0.17889783698E+02  0.91821562449E+02  0.20199248790E+02  0.12443491194E+03  0.79528573267E+02 0.  0.
          5    1    3    3  501    0  0.32093393185E+02 -0.10788515807E+03  0.13346819238E+03  0.17465692542E+03  0.47000000000E+01 0. -1.
        -11    1    4    4    0    0  0.30666906382E+02 -0.15682057641E+02  0.21309558025E+02  0.40502880665E+02  0.00000000000E+00 0.  1.
         12    1    4    4    0    0  0.78549268491E+02 -0.55479599887E+01  0.27206683100E+03  0.28323334544E+03  0.00000000000E+00 0. -1.
         -5    1    5    5    0  502 -0.12341978436E+03  0.37293613252E+02  0.87887164366E+02  0.15610733622E+03  0.47000000000E+01 0.  1.
         13    1    6    6    0    0 -0.22082759796E+02  0.99753849883E+02  0.34255980443E+02  0.10775876318E+03  0.00000000000E+00 0. -1.
        -14    1    6    6    0    0  0.41929760976E+01 -0.79322874336E+01 -0.14056731654E+02  0.16676148754E+02  0.00000000000E+00 0.  1.
</event>
<event>
12    1  0.1061634E+000  0.2495366E+03  0.7818608E-02  0.1115737E+00
         21   -1    0    0  503  502  0.00000000000E+00  0.00000000000E+00  0.12014791474E+03  0.12014791474E+03  0.00000000000E+00 0. -1.
         21   -1    0    0  501  503 -0.00000000000E+00 -0.00000000000E+00 -0.16064338224E+04  0.16064338224E+04  0.00000000000E+00 0.  1.
          6    2    1    2  501    0 -0.15526887691E+03 -0.42352879233E+02 -0.14561670679E+04  0.14752340393E+04  0.17317837835E+03 0.  0.
         24    2    3    3    0    0 -0.17707903288E+03 -0.51336364227E+02 -0.13962627158E+04  0.14106816783E+04  0.80503540488E+02 0.  0.
         -6    2    1    2    0  502  0.15526887691E+03  0.42352879233E+02 -0.30118839826E+02  0.25134769785E+03  0.19069958098E+03 0.  0.
        -24    2    5    5    0    0  0.15689273055E+03  0.33867290347E+02  0.36369035230E+02  0.18413631750E+03  0.82590280554E+02 0.  0.
          5    1    3    3  501    0  0.21810155975E+02  0.89834849941E+01 -0.59904352114E+02  0.64552360983E+02  0.47000000000E+01 0. -1.
        -11    1    4    4    0    0 -0.11101031930E+03  0.43411143271E+01 -0.91560305029E+03  0.92231831922E+03  0.00000000000E+00 0.  1.
         12    1    4    4    0    0 -0.66068713580E+02 -0.55677478554E+02 -0.48065966546E+03  0.48836335912E+03  0.00000000000E+00 0. -1.
         -5    1    5    5    0  502 -0.16238536432E+01  0.84855888857E+01 -0.66487875056E+02  0.67211380352E+02  0.47000000000E+01 0.  1.
         13    1    6    6    0    0  0.13092451145E+03  0.53863467422E+02  0.97382690613E+01  0.14190607705E+03  0.00000000000E+00 0. -1.
        -14    1    6    6    0    0  0.25968219103E+02 -0.19996177075E+02  0.26630766169E+02  0.42230240441E+02  0.00000000000E+00 0.  1.
</event>
<event>
12    1  0.1061634E+000  0.2368963E+03  0.7818608E-02  0.1121931E+00
         21   -1    0    0  503  502  0.00000000000E+00  0.00000000000E+00  0.42096471766E+03  0.42096471766E+03  0.00000000000E+00 0.  1.
         21   -1    0    0  501  503 -0.00000000000E+00 -0.00000000000E+00 -0.15390641595E+03  0.15390641595E+03  0.00000000000E+00 0. -1.
          6    2    1    2  501    0  0.16276847170E+03 -0.13601798657E+02  0.23904798412E+03  0.33632459566E+03  0.17114821247E+03 0.  0.
         24    2    3    3    0    0  0.15907754878E+03  0.22986955319E+02  0.24027678193E+03  0.29923066390E+03  0.77278662270E+02 0.  0.
         -6    2    1    2    0  502 -0.16276847170E+03  0.13601798657E+02  0.28010317589E+02  0.23854653795E+03  0.17158463967E+03 0.  0.
        -24    2    5    5    0    0 -0.15265202382E+03  0.19072491714E+02 -0.32313323202E+02  0.17695674465E+03  0.81259696686E+02 0.  0.
          5    1    3    3  501    0  0.36909229151E+01 -0.36588753976E+02 -0.12287978116E+01  0.37093931762E+02  0.47000000000E+01 0. -1.
        -11    1    4    4    0    0  0.23682217646E+02 -0.19977857423E+02  0.75901582869E+02  0.81981781525E+02  0.00000000000E+00 0.  1.
         12    1    4    4    0    0  0.13539533113E+03  0.42964812742E+02  0.16437519906E+03  0.21724888237E+03  0.00000000000E+00 0. -1.
         -5    1    5    5    0  502 -0.10116447877E+02 -0.54706930570E+01  0.60323640791E+02  0.61589793298E+02  0.47000000000E+01 0.  1.
         13    1    6    6    0    0 -0.65178914966E+02 -0.31727771552E+02 -0.18921514927E+02  0.74919731519E+02  0.00000000000E+00 0. -1.
        -14    1    6    6    0    0 -0.87473108853E+02  0.50800263266E+02 -0.13391808275E+02  0.10203701313E+03  0.00000000000E+00 0.  1.
</event>
<event>
12    1  0.1061634E+000  0.1752541E+03  0.7818608E-02  0.1173162E+00
         21   -1    0    0  503  502  0.00000000000E+00  0.00000000000E+00  0.30372520982E+03  0.30372520982E+03  0.00000000000E+00 0.  1.
         21   -1    0    0  501  503 -0.00000000000E+00 -0.00000000000E+00 -0.10275746520E+03  0.10275746520E+03  0.00000000000E+00 0.  1.
          6    2    1    2  501    0  0.13223811416E+02  0.19923298569E+01  0.63906726652E+02  0.18399737105E+03  0.17202361546E+03 0.  0.
         24    2    3    3    0    0 -0.56005558486E+02 -0.21274116215E+01  0.11737459520E+02  0.97087070392E+02  0.78402696509E+02 0.  0.
         -6    2    1    2    0  502 -0.13223811416E+02 -0.19923298569E+01  0.13706101796E+03  0.22248530397E+03  0.17474309507E+03 0.  0.
        -24    2    5    5    0    0  0.57540869607E+02 -0.21208650487E+01  0.49629885142E+02  0.10990666662E+03  0.79378209387E+02 0.  0.
          5    1    3    3  501    0  0.69229369903E+02  0.41197414784E+01  0.52169267132E+02  0.86910300656E+02  0.47000000000E+01 0. -1.
        -11    1    4    4    0    0 -0.20135532528E+02 -0.26237260578E+02  0.34875187431E+02  0.48063626696E+02  0.00000000000E+00 0.  1.
         12    1    4    4    0    0 -0.35870025959E+02  0.24109848956E+02 -0.23137727912E+02  0.49023443696E+02  0.00000000000E+00 0. -1.
         -5    1    5    5    0  502 -0.70764681024E+02  0.12853519182E+00  0.87431132819E+02  0.11257863735E+03  0.47000000000E+01 0.  1.
         13    1    6    6    0    0  0.24969221065E+02 -0.18142957125E+02  0.63852392294E+02  0.70920779011E+02  0.00000000000E+00 0. -1.
        -14    1    6    6    0    0  0.32571648542E+02  0.16022092077E+02 -0.14222507152E+02  0.38985887613E+02  0.00000000000E+00 0.  1.
</event>
<event>
12    1  0.1061634E+000  0.2296083E+03  0.7818608E-02  0.1126971E+00
         21   -1    0    0  503  502  0.00000000000E+00  0.00000000000E+00  0.42375721298E+03  0.42375721298E+03  0.00000000000E+00 0. -1.
         21   -1    0    0  501  503 -0.00000000000E+00 -0.00000000000E+00 -0.12483573118E+03  0.12483573118E+03  0.00000000000E+00 0. -1.
          6    2    1    2  501    0 -0.80700535764E+02 -0.12926956637E+03  0.16848698259E+03  0.28479439587E+03  0.17174628775E+03 0.  0.
         24    2    3    3    0    0 -0.54462801445E+02 -0.31143812753E+02  0.14835904178E+03  0.18113965055E+03  0.82855500185E+02 0.  0.
         -6    2    1    2    0  502  0.80700535764E+02  0.12926956637E+03  0.13043449922E+03  0.26379854829E+03  0.17132810112E+03 0.  0.
        -24    2    5    5    0    0  0.69373555504E+01  0.48818120556E+02  0.11792184296E+01  0.94557715450E+02  0.80674873402E+02 0.  0.
          5    1    3    3  501    0 -0.26237734319E+02 -0.98125753616E+02  0.20127940807E+02  0.10365474531E+03  0.47000000000E+01 0. -1.
        -13    1    4    4    0    0 -0.26838114826E+02 -0.36989862857E+02  0.20302988979E+02  0.50007456675E+02  0.00000000000E+00 0.  1.
         14    1    4    4    0    0 -0.27624686619E+02  0.58460501036E+01  0.12805605280E+03  0.13113219388E+03  0.00000000000E+00 0. -1.
         -5    1    5    5    0  502  0.73763180214E+02  0.80451445813E+02  0.12925528079E+03  0.16924083284E+03  0.47000000000E+01 0.  1.
         13    1    6    6    0    0 -0.36989846670E+02  0.21674193680E+02 -0.85317399901E+00  0.42880617233E+02  0.00000000000E+00 0. -1.
        -14    1    6    6    0    0  0.43927202221E+02  0.27143926876E+02  0.20323924287E+01  0.51677098217E+02  0.00000000000E+00 0.  1.
</event>
<event>
12    1  0.1061634E+000  0.1786154E+03  0.7818608E-02  0.1169227E+00
         21   -1    0    0  503  502  0.00000000000E+00  0.00000000000E+00  0.17094910854E+04  0.17094910854E+04  0.00000000000E+00 0.  1.
         21   -1    0    0  501  503 -0.00000000000E+00 -0.00000000000E+00 -0.22191908683E+02  0.22191908683E+02  0.00000000000E+00 0.  1.
          6    2    1    2  501    0  0.46653211202E+02 -0.12076111494E+02  0.11899230297E+04  0.12032073595E+04  0.17166472751E+03 0.  0.
         24    2    3    3    0    0 -0.67857429510E+01 -0.43393956534E+02  0.39208687141E+03  0.40295667704E+03  0.81932210211E+02 0.  0.
         -6    2    1    2    0  502 -0.46653211202E+02  0.12076111494E+02  0.49737614693E+03  0.52847563453E+03  0.17199159914E+03 0.  0.
        -24    2    5    5    0    0 -0.64906853347E+02  0.58073917338E+02  0.25859635643E+03  0.28457632755E+03  0.80784473498E+02 0.  0.
          5    1    3    3  501    0  0.53438954153E+02  0.31317845040E+02  0.79783615834E+03  0.80025068247E+03  0.47000000000E+01 0. -1.
        -13    1    4    4    0    0 -0.51700682361E+01 -0.65626824667E+02  0.33977307339E+03  0.34609153576E+03  0.00000000000E+00 0.  1.
         14    1    4    4    0    0 -0.16156747149E+01  0.22232868132E+02  0.52313798012E+02  0.56865141279E+02  0.00000000000E+00 0. -1.
         -5    1    5    5    0  502  0.18253642144E+02 -0.45997805844E+02  0.23877979050E+03  0.24389930698E+03  0.47000000000E+01 0.  1.
         13    1    6    6    0    0 -0.22343986728E+01  0.54966710406E+02  0.10228578344E+03  0.11614091994E+03  0.00000000000E+00 0. -1.
        -14    1    6    6    0    0 -0.62672454674E+02  0.31072069317E+01  0.15631057299E+03  0.16843540761E+03  0.00000000000E+00 0.  1.
</event>
<event>
12    1  0.1061634E+000  0.2713249E+03  0.7818608E-02  0.1101971E+00
         21   -1    0    0  503  502  0.00000000000E+00  0.00000000000E+00  0.15697549170E+04  0.15697549170E+04  0.00000000000E+00 0.  1.
         21   -1    0    0  501  503 -0.00000000000E+00 -0.00000000000E+00 -0.73750089604E+02  0.73750089604E+02  0.00000000000E+00 0.  1.
          6    2    1    2  501    0  0.13859848383E+03 -0.15813169727E+03  0.22808328302E+03  0.34687775421E+03  0.15519993226E+03 0.  0.
         24    2    3    3    0    0  0.76421748044E+02 -0.16461114723E+03  0.18506862375E+03  0.27084959721E+03  0.78562048393E+02 0.  0.
         -6    2    1    2    0  502 -0.13859848383E+03  0.15813169727E+03  0.12679215444E+04  0.12966272524E+04  0.17147015936E+03 0.  0.
        -24    2    5    5    0    0 -0.16901625310E+03  0.14133208895E+03  0.10425820852E+04  0.10685758779E+04  0.79597420529E+02 0.  0.
          5    1    3    3  501    0  0.62176735785E+02  0.64794499571E+01  0.43014659263E+02  0.76028156996E+02  0.47000000000E+01 0. -1.
        -11    1    4    4    0    0  0.82793554018E+02 -0.98015140767E+02  0.14152742987E+03  0.19102814927E+03  0.00000000000E+00 0.  1.
         12    1    4    4    0    0 -0.63718059748E+01 -0.66596006458E+02  0.43541193884E+02  0.79821447947E+02  0.00000000000E+00 0. -1.
         -5    1    5    5    0  502  0.30417769275E+02  0.16799608314E+02  0.22533945919E+03  0.22805137447E+03  0.47000000000E+01 0.  1.
         11    1    6    6    0    0 -0.15477742423E+03  0.11975165731E+03  0.99828738714E+03  0.10172876770E+04  0.00000000000E+00 0. -1.
        -12    1    6    6    0    0 -0.14238828869E+02  0.21580431649E+02  0.44294698025E+02  0.51288200893E+02  0.00000000000E+00 0.  1.
</event>
<event>
12    1  0.1061634E+000  0.2190567E+03  0.7818608E-02  0.1134601E+00
         21   -1    0    0  501  502  0.00000000000E+00  0.00000000000E+00  0.13597654418E+04  0.13597654418E+04  0.00000000000E+00 0.  1.
         21   -1    0    0  502  503 -0.00000000000E+00 -0.00000000000E+00 -0.37706784961E+02  0.37706784961E+02  0.00000000000E+00 0.  1.
         -6    2    1    2    0  503 -0.48332838043E+02 -0.12680030921E+03  0.83842524903E+03  0.86656953185E+03  0.17196358239E+03 0.  0.
        -24    2    3    3    0    0 -0.76243915500E+02 -0.30006975400E+02  0.50876750292E+03  0.52183151932E+03  0.82159657378E+02 0.  0.
          6    2    1    2  501    0  0.48332838043E+02  0.12680030921E+03  0.48363340778E+03  0.53090269489E+03  0.17187791210E+03 0.  0.
         24    2    5    5    0    0  0.92938969922E+02  0.72415015491E+02  0.35945588604E+03  0.38811048894E+03  0.86831048683E+02 0.  0.
          5    1    5    5  501    0 -0.44606131879E+02  0.54385293715E+02  0.12417752174E+03  0.14279220595E+03  0.47000000000E+01 0. -1.
        -11    1    6    6    0    0 -0.70016559341E+01 -0.10912610528E+02  0.63538129326E+02  0.64847529888E+02  0.00000000000E+00 0.  1.
         12    1    6    6    0    0  0.99940625856E+02  0.83327626018E+02  0.29591775672E+03  0.32326295905E+03  0.00000000000E+00 0. -1.
         -5    1    3    3    0  503  0.27911077458E+02 -0.96793333806E+02  0.32965774611E+03  0.34473801253E+03  0.47000000000E+01 0.  1.
         13    1    4    4    0    0  0.16913805748E+02 -0.43176773765E+01  0.48951569287E+02  0.51970908193E+02  0.00000000000E+00 0. -1.
        -14    1    4    4    0    0 -0.93157721248E+02 -0.25689298024E+02  0.45981593364E+03  0.46986061113E+03  0.00000000000E+00 0.  1.
</event>
<event>
12    1  0.1061634E+000  0.1771644E+03  0.7818608E-02  0.1170771E+00
         21   -1    0    0  503  502  0.00000000000E+00  0.00000000000E+00  0.10306740009E+03  0.10306740009E+03  0.00000000000E+00 0. -1.
         21   -1    0    0  501  503 -0.00000000000E+00 -0.00000000000E+00 -0.45221005932E+03  0.45221005932E+03  0.00000000000E+00 0. -1.
          6    2    1    2  501    0  0.31535265940E+02  0.14026389676E+02 -0.15447079238E+02  0.17783654333E+03  0.17376999534E+03 0.  0.
         24    2    3    3    0    0  0.14649253643E+02 -0.72735551559E+01 -0.76180083749E+02  0.11113262367E+03  0.79243609498E+02 0.  0.
         -6    2    1    2    0  502 -0.31535265940E+02 -0.14026389676E+02 -0.33369557999E+03  0.37744091609E+03  0.17296731606E+03 0.  0.
        -24    2    5    5    0    0 -0.30353833605E+02 -0.70154034145E+02 -0.15949955428E+03  0.19436155179E+03  0.80581395363E+02 0.  0.
          5    1    3    3  501    0  0.16886012297E+02  0.21299944832E+02  0.60733004511E+02  0.66703919661E+02  0.47000000000E+01 0. -1.
        -11    1    4    4    0    0  0.37727084129E+02 -0.28357651775E+02 -0.58691787674E+02  0.75314110441E+02  0.00000000000E+00 0.  1.
         12    1    4    4    0    0 -0.23077830485E+02  0.21084096620E+02 -0.17488296075E+02  0.35818513227E+02  0.00000000000E+00 0. -1.
         -5    1    5    5    0  502 -0.11814323353E+01  0.56127644469E+02 -0.17419602571E+03  0.18307936430E+03  0.47000000000E+01 0.  1.
         13    1    6    6    0    0  0.14153837903E+02  0.11389609261E+02 -0.25647254478E+02  0.31429858236E+02  0.00000000000E+00 0. -1.
        -14    1    6    6    0    0 -0.44507671508E+02 -0.81543643406E+02 -0.13385229980E+03  0.16293169356E+03  0.00000000000E+00 0.  1.
</event>
<event>
12    1  0.1061634E+000  0.2309147E+03  0.7818608E-02  0.1126076E+00
         21   -1    0    0  501  502  0.00000000000E+00  0.00000000000E+00  0.71972518536E+03  0.71972518536E+03  0.00000000000E+00 0. -1.
         21   -1    0    0  502  503 -0.00000000000E+00 -0.00000000000E+00 -0.88381928112E+02  0.88381928112E+02  0.00000000000E+00 0. -1.
         -6    2    1    2    0  503 -0.98917383080E+02 -0.11781578060E+03  0.47873298045E+03  0.53131927961E+03  0.17160915909E+03 0.  0.
        -24    2    3    3    0    0 -0.28474089603E+02 -0.97986175624E+02  0.41274549128E+03  0.43266883837E+03  0.80196126701E+02 0.  0.
          6    2    1    2  501    0  0.98917383080E+02  0.11781578060E+03  0.15261027680E+03  0.27678783386E+03  0.17221034102E+03 0.  0.
         24    2    5    5    0    0  0.79814279374E+02  0.52417404389E+02  0.16663880588E+03  0.20706864130E+03  0.77401725509E+02 0.  0.
          5    1    5    5  501    0  0.19103103706E+02  0.65398376214E+02 -0.14028529078E+02  0.69719192556E+02  0.47000000000E+01 0. -1.
        -13    1    6    6    0    0  0.23291392890E+02  0.81498195588E+01 -0.10069585250E+01  0.24696609222E+02  0.00000000000E+00 0.  1.
         14    1    6    6    0    0  0.56522886484E+02  0.44267584830E+02  0.16764576440E+03  0.18237203208E+03  0.00000000000E+00 0. -1.
         -5    1    3    3    0  503 -0.70443293477E+02 -0.19829604978E+02  0.65987489171E+02  0.98650441239E+02  0.47000000000E+01 0.  1.
         11    1    4    4    0    0  0.17519525754E+02 -0.29822138958E+02  0.50510271491E+02  0.61217491624E+02  0.00000000000E+00 0. -1.
        -12    1    4    4    0    0 -0.45993615358E+02 -0.68164036666E+02  0.36223521979E+03  0.37145134675E+03  0.00000000000E+00 0.  1.
</event>
<event>
12    1  0.1061634E+000  0.1954392E+03  0.7818608E-02  0.1154304E+00
         21   -1    0    0  501  502  0.00000000000E+00  0.00000000000E+00  0.54981375037E+02  0.54981375037E+02  0.00000000000E+00 0.  1.
         21   -1    0    0  502  503 -0.00000000000E+00 -0.00000000000E+00 -0.69789125092E+03  0.69789125092E+03  0.00000000000E+00 0.  1.
         -6    2    1    2    0  503  0.41061840056E+02 -0.83289111012E+02 -0.27091236592E+03  0.33405090272E+03  0.17196902303E+03 0.  0.
        -24    2    3    3    0    0 -0.19955041150E+02  0.70461056601E+01 -0.13163419160E+03  0.15712150719E+03  0.83136973425E+02 0.  0.
          6    2    1    2  501    0 -0.41061840056E+02  0.83289111012E+02 -0.37199750997E+03  0.41882172324E+03  0.16854179811E+03 0.  0.
         24    2    5    5    0    0  0.20322733836E+02 -0.33505090457E+01 -0.11301687086E+03  0.13887967368E+03  0.78041727569E+02 0.  0.
          5    1    5    5  501    0 -0.61384573892E+02  0.86639620058E+02 -0.25898063911E+03  0.27994204955E+03  0.47000000000E+01 0. -1.
        -11    1    6    6    0    0 -0.17601310427E+01  0.34253294912E+01 -0.11557525785E+03  0.11563940146E+03  0.00000000000E+00 0.  1.
         12    1    6    6    0    0  0.22082864879E+02 -0.67758385369E+01  0.25583869860E+01  0.23240272225E+02  0.00000000000E+00 0. -1.
         -5    1    3    3    0  503  0.61016881206E+02 -0.90335216672E+02 -0.13927817432E+03  0.17692939554E+03  0.47000000000E+01 0.  1.
         11    1    4    4    0    0  0.53633570428E+01 -0.26153866318E+02 -0.10322224193E+03  0.10661904873E+03  0.00000000000E+00 0. -1.
        -12    1    4    4    0    0 -0.25318398193E+02  0.33199971978E+02 -0.28411949666E+02  0.50502458457E+02  0.00000000000E+00 0.  1.
</event>
<event>
12    1  0.1061634E+000  0.1755799E+03  0.7818608E-02  0.1172625E+00
         21   -1    0    0  503  502  0.00000000000E+00  0.00000000000E+00  0.48446234578E+02  0.48446234578E+02  0.00000000000E+00 0. -1.
         21   -1    0    0  501  503 -0.00000000000E+00 -0.00000000000E+00 -0.63136789075E+03  0.63136789075E+03  0.00000000000E+00 0. -1.
          6    2    1    2  501    0  0.22693963225E+02  0.10262782220E+02 -0.27149241279E+03  0.32229982055E+03  0.17189736315E+03 0.  0.
         24    2    3    3    0    0 -0.43508082244E+02  0.19956362599E+02 -0.99861620231E+02  0.13802856593E+03  0.82391335644E+02 0.  0.
         -6    2    1    2    0  502 -0.22693963225E+02 -0.10262782220E+02 -0.31142924338E+03  0.35751430478E+03  0.17380438378E+03 0.  0.
        -24    2    5    5    0    0 -0.49165343366E+02  0.41248988654E+02 -0.12031561746E+03  0.15776269773E+03  0.79337953948E+02 0.  0.
          5    1    3    3  501    0  0.66202045469E+02 -0.96935803796E+01 -0.17163079256E+03  0.18427125462E+03  0.47000000000E+01 0. -1.
        -11    1    4    4    0    0 -0.35600327291E+02  0.33733677749E+02 -0.14416417085E+02  0.51119246858E+02  0.00000000000E+00 0.  1.
         12    1    4    4    0    0 -0.79077549526E+01 -0.13777315150E+02 -0.85445203146E+02  0.86909319074E+02  0.00000000000E+00 0. -1.
         -5    1    5    5    0  502  0.26471380141E+02 -0.51511770873E+02 -0.19111362592E+03  0.19975160705E+03  0.47000000000E+01 0.  1.
         11    1    6    6    0    0  0.73308017655E+00 -0.17848948249E+02 -0.43776209567E+01  0.18392550813E+02  0.00000000000E+00 0. -1.
        -12    1    6    6    0    0 -0.49898423543E+02  0.59097936903E+02 -0.11593799650E+03  0.13937014692E+03  0.00000000000E+00 0.  1.
</event>
<event>
12    1  0.1061634E+000  0.2049872E+03  0.7818608E-02  0.1145618E+00
         21   -1    0    0  501  502  0.00000000000E+00  0.00000000000E+00  0.10257503958E+03  0.10257503958E+03  0.00000000000E+00 0.  1.
         21   -1    0    0  502  503 -0.00000000000E+00 -0.00000000000E+00 -0.45654757495E+03  0.45654757495E+03  0.00000000000E+00 0.  1.
         -6    2    1    2    0  503  0.10505950056E+03  0.34273322162E+02 -0.26681219490E+03  0.33646470639E+03  0.17264875334E+03 0.  0.
        -24    2    3    3    0    0  0.71143601642E+02  0.46683311321E+02 -0.69010283730E+02  0.13533792525E+03  0.79455592244E+02 0.  0.
          6    2    1    2  501    0 -0.10505950056E+03 -0.34273322162E+02 -0.87160340465E+02  0.22265790815E+03  0.17253248923E+03 0.  0.
         24    2    5    5    0    0 -0.48950788477E+02  0.27739643970E+02  0.64294228212E+01  0.97059622600E+02  0.78826171550E+02 0.  0.
          5    1    5    5  501    0 -0.56108712083E+02 -0.62012966132E+02 -0.93589763286E+02  0.12559828555E+03  0.47000000000E+01 0. -1.
        -13    1    6    6    0    0 -0.51879913737E+02  0.34396431826E+02 -0.23291721174E+02  0.66461599792E+02  0.00000000000E+00 0.  1.
         14    1    6    6    0    0  0.29291252598E+01 -0.66567878557E+01  0.29721143995E+02  0.30598022808E+02  0.00000000000E+00 0. -1.
         -5    1    3    3    0  503  0.33915898918E+02 -0.12409989159E+02 -0.19780191117E+03  0.20112678115E+03  0.47000000000E+01 0.  1.
         11    1    4    4    0    0  0.70094640491E+02  0.21419563958E+01 -0.53343280250E+02  0.88109886793E+02  0.00000000000E+00 0. -1.
        -12    1    4    4    0    0  0.10489611512E+01  0.44541354926E+02 -0.15667003480E+02  0.47228038453E+02  0.00000000000E+00 0.  1.
</event>
<event>
12    1  0.1061634E+000  0.2751959E+03  0.7818608E-02  0.1098559E+00
         21   -1    0    0  503  502  0.00000000000E+00  0.00000000000E+00  0.95966382833E+02  0.95966382833E+02  0.00000000000E+00 0. -1.
         21   -1    0    0  501  503 -0.00000000000E+00 -0.00000000000E+00 -0.96114766557E+03  0.96114766557E+03  0.00000000000E+00 0. -1.
          6    2    1    2  501    0  0.52508030850E+02 -0.20596456155E+03 -0.65804464518E+03  0.71267482761E+03  0.17234895111E+03 0.  0.
         24    2    3    3    0    0 -0.23858208797E+02 -0.16793819686E+03 -0.43994935479E+03  0.47844107117E+03  0.81104695972E+02 0.  0.
         -6    2    1    2    0  502 -0.52508030850E+02  0.20596456155E+03 -0.20713663756E+03  0.34443922079E+03  0.17479787264E+03 0.  0.
        -24    2    5    5    0    0  0.30289586170E+02  0.15814596911E+03 -0.13639573303E+03  0.22540801169E+03  0.79229850228E+02 0.  0.
          5    1    3    3  501    0  0.76366239647E+02 -0.38026364689E+02 -0.21809529038E+03  0.23423375644E+03  0.47000000000E+01 0. -1.
        -13    1    4    4    0    0 -0.40113481189E+02 -0.85002148792E+02 -0.30552955014E+03  0.31966038647E+03  0.00000000000E+00 0.  1.
         14    1    4    4    0    0  0.16255272392E+02 -0.82936048070E+02 -0.13441980466E+03  0.15878068470E+03  0.00000000000E+00 0. -1.
         -5    1    5    5    0  502 -0.82797617020E+02  0.47818592437E+02 -0.70740904528E+02  0.11903120910E+03  0.47000000000E+01 0.  1.
         11    1    6    6    0    0  0.25705638089E+02  0.96886658736E+02 -0.12924801898E+03  0.16356299973E+03  0.00000000000E+00 0. -1.
        -12    1    6    6    0    0  0.45839480812E+01  0.61259310379E+02 -0.71477140526E+01  0.61845011959E+02  0.00000000000E+00 0.  1.
</event>
<event>
12    1  0.1061634E+000  0.2448989E+03  0.7818608E-02  0.1116968E+00
         21   -1    0    0  501  502  0.00000000000E+00  0.00000000000E+00  0.68232624925E+03  0.68232624925E+03  0.00000000000E+00 0.  1.
         21   -1    0    0  502  503 -0.00000000000E+00 -0.00000000000E+00 -0.17717643501E+03  0.17717643501E+03  0.00000000000E+00 0. -1.
         -6    2    1    2    0  503  0.86404964726E+02  0.14481328491E+03  0.55849759708E+03  0.60886056939E+03  0.17422663862E+03 0.  0.
        -24    2    3    3    0    0  0.63935215436E+02  0.13468483392E+03  0.55933429663E+03  0.58375548587E+03  0.75418138681E+02 0.  0.
          6    2    1    2  501    0 -0.86404964726E+02 -0.14481328491E+03 -0.53347782843E+02  0.25064211487E+03  0.17759160565E+03 0.  0.
         24    2    5    5    0    0 -0.54504267991E+02 -0.11058445386E+03  0.22942872316E+02  0.16102280115E+03  0.10100658610E+03 0.  0.
          5    1    5    5  501    0 -0.31900696735E+02 -0.34228831045E+02 -0.76290655158E+02  0.89619313718E+02  0.47000000000E+01 0. -1.
        -11    1    6    6    0    0  0.12576793142E+02 -0.11284923911E+02  0.36698273486E+02  0.40401590442E+02  0.00000000000E+00 0.  1.
         12    1    6    6    0    0 -0.67081061133E+02 -0.99299529950E+02 -0.13755401170E+02  0.12062121071E+03  0.00000000000E+00 0. -1.
         -5    1    3    3    0  503  0.22469749290E+02  0.10128450984E+02 -0.83669954764E+00  0.25105083521E+02  0.47000000000E+01 0.  1.
         13    1    4    4    0    0  0.22855116834E+02  0.93763661377E+02  0.23114802979E+03  0.25048631147E+03  0.00000000000E+00 0. -1.
        -14    1    4    4    0    0  0.41080098602E+02  0.40921172545E+02  0.32818626684E+03  0.33326917440E+03  0.00000000000E+00 0.  1.
</event>
<event>
12    1  0.1061634E+000  0.2252804E+03  0.7818608E-02  0.1130027E+00
         21   -1    0    0  503  502  0.00000000000E+00  0.00000000000E+00  0.47632323497E+03  0.47632323497E+03  0.00000000000E+00 0. -1.
         21   -1    0    0  501  503 -0.00000000000E+00 -0.00000000000E+00 -0.12575752934E+03  0.12575752934E+03  0.00000000000E+00 0.  1.
          6    2    1    2  501    0  0.14337217880E+03  0.23797931893E+02  0.29313777525E+03  0.36970394349E+03  0.17213171508E+03 0.  0.
         24    2    3    3    0    0  0.16918553237E+03  0.39243961037E+02  0.26692202579E+03  0.32952603216E+03  0.84712485396E+02 0.  0.
         -6    2    1    2    0  502 -0.14337217880E+03 -0.23797931893E+02  0.57427930373E+02  0.23237682082E+03  0.17198574490E+03 0.  0.
        -24    2    5    5    0    0 -0.65219980764E+02  0.31793436446E+02 -0.17802364926E+02  0.11039381535E+03  0.81273622899E+02 0.  0.
          5    1    3    3  501    0 -0.25813353569E+02 -0.15446029144E+02  0.26215749468E+02  0.40177911332E+02  0.47000000000E+01 0. -1.
        -13    1    4    4    0    0  0.56194121649E+02  0.49482840055E+02  0.14364036064E+03  0.16198420902E+03  0.00000000000E+00 0.  1.
         14    1    4    4    0    0  0.11299141072E+03 -0.10238879018E+02  0.12328166515E+03  0.16754182314E+03  0.00000000000E+00 0. -1.
         -5    1    5    5    0  502 -0.78152198033E+02 -0.55591368338E+02  0.75230295299E+02  0.12198300546E+03  0.47000000000E+01 0.  1.
         13    1    6    6    0    0 -0.26903859115E+02  0.10285814349E+02  0.32617346106E+02  0.43514444488E+02  0.00000000000E+00 0. -1.
        -14    1    6    6    0    0 -0.38316121650E+02  0.21507622097E+02 -0.50419711033E+02  0.66879370864E+02  0.00000000000E+00 0.  1.
</event>
<event>
12    1  0.1061634E+000  0.2405426E+03  0.7818608E-02  0.1119727E+00
         21   -1    0    0  503  502  0.00000000000E+00  0.00000000000E+00  0.11021495779E+04  0.11021495779E+04  0.00000000000E+00 0.  1.
         21   -1    0    0  501  503 -0.00000000000E+00 -0.00000000000E+00 -0.62689038739E+02  0.62689038739E+02  0.00000000000E+00 0.  1.
          6    2    1    2  501    0  0.14894065069E+03  0.77388086378E+02  0.75735888009E+03  0.79410677019E+03  0.16982595759E+03 0.  0.
         24    2    3    3    0    0  0.60151691794E+02 -0.22483763019E+02  0.26943912422E+03  0.28819606296E+03  0.79597634511E+02 0.  0.
         -6    2    1    2    0  502 -0.14894065069E+03 -0.77388086378E+02  0.28210165910E+03  0.37073184648E+03  0.17230357682E+03 0.  0.
        -24    2    5    5    0    0 -0.10387335519E+03 -0.65036525077E+02  0.88440673218E+02  0.17145743858E+03  0.80972075760E+02 0.  0.
          5    1    3    3  501    0  0.88788958892E+02  0.99871849397E+02  0.48791975587E+03  0.50591070723E+03  0.47000000000E+01 0. -1.
        -11    1    4    4    0    0  0.61354059032E+02  0.14068175686E+02  0.13643589216E+03  0.15025640351E+03  0.00000000000E+00 0.  1.
         12    1    4    4    0    0 -0.12023672383E+01 -0.36551938705E+02  0.13300323207E+03  0.13793965945E+03  0.00000000000E+00 0. -1.
         -5    1    5    5    0  502 -0.45067295499E+02 -0.12351561302E+02  0.19366098588E+03  0.19927440790E+03  0.47000000000E+01 0.  1.
         13    1    6    6    0    0 -0.52240775420E+02 -0.48445382243E+02  0.92862369911E+02  0.11704474966E+03  0.00000000000E+00 0. -1.
        -14    1    6    6    0    0 -0.51632579767E+02 -0.16591142834E+02 -0.44216966927E+01  0.54412688921E+02  0.00000000000E+00 0.  1.
</event>
<event>
12    1  0.1061634E+000  0.3430741E+03  0.7818608E-02  0.1065580E+00
         21   -1    0    0  503  502  0.00000000000E+00  0.00000000000E+00  0.22443144498E+03  0.22443144498E+03  0.00000000000E+00 0. -1.
         21   -1    0    0  501  503 -0.00000000000E+00 -0.00000000000E+00 -0.52581905168E+03  0.52581905168E+03  0.00000000000E+00 0. -1.
          6    2    1    2  501    0  0.29189871480E+03  0.49557104571E+02 -0.12438410035E+03  0.36492633372E+03  0.17331779571E+03 0.  0.
         24    2    3    3    0    0  0.94808525636E+02  0.69219181004E+02 -0.27743382973E+02  0.14448890911E+03  0.79544943304E+02 0.  0.
         -6    2    1    2    0  502 -0.29189871480E+03 -0.49557104571E+02 -0.17700350635E+03  0.38532416294E+03  0.17170819134E+03 0.  0.
        -24    2    5    5    0    0 -0.79020341464E+02 -0.41992355129E+02 -0.10422456239E+03  0.16017245420E+03  0.82370403813E+02 0.  0.
          5    1    3    3  501    0  0.19709018916E+03 -0.19662076433E+02 -0.96640717377E+02  0.22043742461E+03  0.47000000000E+01 0. -1.
        -13    1    4    4    0    0  0.30416917812E+02  0.17930120600E+02  0.28005660965E+02  0.45066563659E+02  0.00000000000E+00 0.  1.
         14    1    4    4    0    0  0.64391607824E+02  0.51289060404E+02 -0.55749043938E+02  0.99422345452E+02  0.00000000000E+00 0. -1.
         -5    1    5    5    0  502 -0.21287837333E+03 -0.75647494418E+01 -0.72778943959E+02  0.22515170874E+03  0.47000000000E+01 0.  1.
         13    1    6    6    0    0 -0.60634740349E+02 -0.60898225205E+02 -0.48879212959E+02  0.98865277170E+02  0.00000000000E+00 0. -1.
        -14    1    6    6    0    0 -0.18385601115E+02  0.18905870076E+02 -0.55345349427E+02  0.61307177026E+02  0.00000000000E+00 0.  1.
</event>
<event>
12    1  0.1061634E+000  0.2238926E+03  0.7818608E-02  0.1131160E+00
         21   -1    0    0  501  502  0.00000000000E+00  0.00000000000E+00  0.22385672827E+03  0.22385672827E+03  0.00000000000E+00 0.  1.
         21   -1    0    0  502  503 -0.00000000000E+00 -0.00000000000E+00 -0.23260231933E+03  0.23260231933E+03  0.00000000000E+00 0. -1.
         -6    2    1    2    0  503  0.12304087550E+03  0.73459362899E+02  0.41692313269E+02  0.22695546783E+03  0.17098304113E+03 0.  0.
        -24    2    3    3    0    0  0.12428241410E+03  0.10782931473E+03  0.50608052554E+02  0.19111672603E+03  0.83012941261E+02 0.  0.
          6    2    1    2  501    0 -0.12304087550E+03 -0.73459362899E+02 -0.50437904332E+02  0.22950357977E+03  0.17202492811E+03 0.  0.
         24    2    5    5    0    0 -0.15829683511E+03 -0.57056394355E+02 -0.34730045689E+02  0.18730326118E+03  0.74585624854E+02 0.  0.
          5    1    5    5  501    0  0.35255959612E+02 -0.16402968544E+02 -0.15707858644E+02  0.42200318582E+02  0.47000000000E+01 0. -1.
        -13    1    6    6    0    0 -0.11021610555E+01 -0.20027012271E+02 -0.14046993539E+02  0.24487017111E+02  0.00000000000E+00 0.  1.
         14    1    6    6    0    0 -0.15719467405E+03 -0.37029382083E+02 -0.20683052150E+02  0.16281624407E+03  0.00000000000E+00 0. -1.
         -5    1    3    3    0  503 -0.12415386075E+01 -0.34369951829E+02 -0.89157392854E+01  0.35838741800E+02  0.47000000000E+01 0.  1.
         13    1    4    4    0    0  0.56181977216E+02  0.53319897308E+02  0.66937531718E+02  0.10237216011E+03  0.00000000000E+00 0. -1.
        -14    1    4    4    0    0  0.68100436888E+02  0.54509417419E+02 -0.16329479163E+02  0.88744565926E+02  0.00000000000E+00 0.  1.
</event>
<event>
12    1  0.1061634E+000  0.1970514E+03  0.7818608E-02  0.1152706E+00
         21   -1    0    0  503  502  0.00000000000E+00  0.00000000000E+00  0.77459285958E+02  0.77459285958E+02  0.00000000000E+00 0. -1.
         21   -1    0    0  501  503 -0.00000000000E+00 -0.00000000000E+00 -0.49717120056E+03  0.49717120056E+03  0.00000000000E+00 0. -1.
          6    2    1    2  501    0  0.66514412822E+02 -0.59231587976E+02 -0.22298295540E+03  0.29618562645E+03  0.17341274113E+03 0.  0.
         24    2    3    3    0    0  0.91596616630E+02 -0.70530383661E+02 -0.11042495094E+03  0.18021936368E+03  0.83191790808E+02 0.  0.
         -6    2    1    2    0  502 -0.66514412822E+02  0.59231587976E+02 -0.19672895920E+03  0.27844486007E+03  0.17577459596E+03 0.  0.
        -24    2    5    5    0    0 -0.61199030731E+02 -0.72220565492E+01 -0.18495974044E+03  0.21058511746E+03  0.79614738881E+02 0.  0.
          5    1    3    3  501    0 -0.25082203808E+02  0.11298795685E+02 -0.11255800446E+03  0.11596626277E+03  0.47000000000E+01 0. -1.
        -11    1    4    4    0    0 -0.81158210502E+01 -0.23194114757E+02 -0.46690380146E+02  0.52761966499E+02  0.00000000000E+00 0.  1.
         12    1    4    4    0    0  0.99712437680E+02 -0.47336268904E+02 -0.63734570793E+02  0.12745739718E+03  0.00000000000E+00 0. -1.
         -5    1    5    5    0  502 -0.53153820908E+01  0.66453644525E+02 -0.11769218759E+02  0.67859742614E+02  0.47000000000E+01 0.  1.
         13    1    6    6    0    0  0.12517248914E+02 -0.20000175182E+02 -0.27357780543E+02  0.36126675517E+02  0.00000000000E+00 0. -1.
        -14    1    6    6    0    0 -0.73716279645E+02  0.12778118633E+02 -0.15760195990E+03  0.17445844194E+03  0.00000000000E+00 0.  1.
</event>
<event>
12    1  0.1061634E+000  0.4998670E+03  0.7818608E-02  0.1013845E+00
         21   -1    0    0  503  502  0.00000000000E+00  0.00000000000E+00  0.28641173219E+03  0.28641173219E+03  0.00000000000E+00 0.  1.
         21   -1    0    0  501  503 -0.00000000000E+00 -0.00000000000E+00 -0.12480424368E+04  0.12480424368E+04  0.00000000000E+00 0.  1.
          6    2    1    2  501    0  0.38035167151E+03 -0.27063328143E+03 -0.90203425702E+03  0.10310470028E+04  0.17743267482E+03 0.  0.
         24    2    3    3    0    0  0.10200300163E+03 -0.30231395451E+02 -0.25071210892E+03  0.28304053262E+03  0.77050839954E+02 0.  0.
         -6    2    1    2    0  502 -0.38035167151E+03  0.27063328143E+03 -0.59596447594E+02  0.50340716620E+03  0.17876596816E+03 0.  0.
        -24    2    5    5    0    0 -0.24554033956E+03  0.16908739564E+03 -0.10907528089E+03  0.32746425759E+03  0.80341878132E+02 0.  0.
          5    1    3    3  501    0  0.27834866988E+03 -0.24040188598E+03 -0.65132214810E+03  0.74800647017E+03  0.47000000000E+01 0. -1.
        -11    1    4    4    0    0  0.55161489522E+02 -0.46576246356E+02 -0.19753437914E+03  0.21031397385E+03  0.00000000000E+00 0.  1.
         12    1    4    4    0    0  0.46841512112E+02  0.16344850905E+02 -0.53177729772E+02  0.72726558779E+02  0.00000000000E+00 0. -1.
         -5    1    5    5    0  502 -0.13481133195E+03  0.10154588579E+03  0.49478833300E+02  0.17594290861E+03  0.47000000000E+01 0.  1.
         13    1    6    6    0    0 -0.21821909598E+03  0.14318862754E+03 -0.63997815662E+02  0.26873458527E+03  0.00000000000E+00 0. -1.
        -14    1    6    6    0    0 -0.27321243577E+02  0.25898768095E+02 -0.45077465231E+02  0.58729672323E+02  0.00000000000E+00 0.  1.
</event>
<event>
12    1  0.1061634E+000  0.5796646E+03  0.7818608E-02  0.9948858E-01
         21   -1    0    0  503  502  0.00000000000E+00  0.00000000000E+00  0.27793656124E+03  0.27793656124E+03  0.00000000000E+00 0.  1.
         21   -1    0    0  501  503 -0.00000000000E+00 -0.00000000000E+00 -0.12544810131E+04  0.12544810131E+04  0.00000000000E+00 0. -1.
          6    2    1    2  501    0 -0.41678002321E+03  0.36359530921E+03 -0.34046963475E+03  0.67225784867E+03  0.17350477307E+03 0.  0.
         24    2    3    3    0    0 -0.17816899871E+03  0.11851733703E+03 -0.19576170948E+03  0.30082695725E+03  0.79897809931E+02 0.  0.
         -6    2    1    2    0  502  0.41678002321E+03 -0.36359530921E+03 -0.63607481710E+03  0.86015972566E+03  0.17139557772E+03 0.  0.
        -24    2    5    5    0    0  0.24288716868E+03 -0.14844542494E+03 -0.39339952605E+03  0.49213583452E+03  0.80026693229E+02 0.  0.
          5    1    3    3  501    0 -0.23861102451E+03  0.24507797219E+03 -0.14470792527E+03  0.37143089142E+03  0.47000000000E+01 0. -1.
        -13    1    4    4    0    0 -0.18095540041E+03  0.94442754290E+02 -0.17712202080E+03  0.27025266146E+03  0.00000000000E+00 0.  1.
         14    1    4    4    0    0  0.27864017068E+01  0.24074582739E+02 -0.18639688683E+02  0.30574295784E+02  0.00000000000E+00 0. -1.
         -5    1    5    5    0  502  0.17389285453E+03 -0.21514988428E+03 -0.24267529105E+03  0.36802389114E+03  0.47000000000E+01 0.  1.
         11    1    6    6    0    0  0.96697696225E+02 -0.50398472464E+02 -0.21741629203E+03  0.24322889327E+03  0.00000000000E+00 0. -1.
        -12    1    6    6    0    0  0.14618947246E+03 -0.98046952475E+02 -0.17598323402E+03  0.24890694125E+03  0.00000000000E+00 0.  1.
</event>
<event>
12    1  0.1061634E+000  0.2899251E+03  0.7818608E-02  0.1090414E+00
         21   -1    0    0  503  502  0.00000000000E+00  0.00000000000E+00  0.69290604936E+02  0.69290604936E+02  0.00000000000E+00 0.  1.
         21   -1    0    0  501  503 -0.00000000000E+00 -0.00000000000E+00 -0.15777398556E+04  0.15777398556E+04  0.00000000000E+00 0.  1.
          6    2    1    2  501    0  0.10858818922E+03  0.20643509500E+03 -0.35807888919E+03  0.46073531999E+03  0.17219088512E+03 0.  0.
         24    2    3    3    0    0  0.15010048653E+02  0.34626764629E+02 -0.69869079721E+02  0.11236489207E+03  0.79497586627E+02 0.  0.
         -6    2    1    2    0  502 -0.10858818922E+03 -0.20643509500E+03 -0.11503703615E+04  0.11862951406E+04  0.17186433204E+03 0.  0.
        -24    2    5    5    0    0 -0.87995970646E+02 -0.46448633514E+02 -0.56828096033E+03  0.58225054927E+03  0.78560077912E+02 0.  0.
          5    1    3    3  501    0  0.93578140569E+02  0.17180833037E+03 -0.28820980947E+03  0.34837042792E+03  0.47000000000E+01 0. -1.
        -11    1    4    4    0    0 -0.32122383310E+02  0.20447517744E+02 -0.23513143534E+02  0.44752836896E+02  0.00000000000E+00 0.  1.
         12    1    4    4    0    0  0.47132431963E+02  0.14179246885E+02 -0.46355936187E+02  0.67612055173E+02  0.00000000000E+00 0. -1.
         -5    1    5    5    0  502 -0.20592218576E+02 -0.15998646149E+03 -0.58208940117E+03  0.60404459130E+03  0.47000000000E+01 0.  1.
         11    1    6    6    0    0 -0.87428855578E+02 -0.47286632356E+02 -0.57087631352E+03  0.57946492191E+03  0.00000000000E+00 0. -1.
        -12    1    6    6    0    0 -0.56711506855E+00  0.83799884166E+00  0.25953531918E+01  0.27856273530E+01  0.00000000000E+00 0.  1.
</event>
<event>
12    1  0.1061634E+000  0.2359784E+03  0.7818608E-02  0.1122818E+00
         21   -1    0    0  501  502  0.00000000000E+00  0.00000000000E+00  0.26589922038E+03  0.26589922038E+03  0.00000000000E+00 0.  1.
         21   -1    0    0  502  503 -0.00000000000E+00 -0.00000000000E+00 -0.40029609694E+03  0.40029609694E+03  0.00000000000E+00 0.  1.
         -6    2    1    2    0  503  0.15283071464E+03 -0.45490905858E+02  0.16393610596E+03  0.28581604572E+03  0.17143253864E+03 0.  0.
        -24    2    3    3    0    0  0.14446751032E+02 -0.13093683335E+02  0.89034197279E+02  0.12509240921E+03  0.85678873697E+02 0.  0.
          6    2    1    2  501    0 -0.15283071464E+03  0.45490905858E+02 -0.29833298252E+03  0.38037927159E+03  0.17395163679E+03 0.  0.
         24    2    5    5    0    0 -0.37702031784E+02 -0.35804212352E+02 -0.11159452657E+03  0.14637745367E+03  0.79181031556E+02 0.  0.
          5    1    5    5  501    0 -0.11512868285E+03  0.81295118209E+02 -0.18673845595E+03  0.23400181792E+03  0.47000000000E+01 0. -1.
        -13    1    6    6    0    0 -0.33101540542E+02 -0.27297842608E+02 -0.96526845141E+01  0.43977932144E+02  0.00000000000E+00 0.  1.
         14    1    6    6    0    0 -0.46004912425E+01 -0.85063697435E+01 -0.10194184206E+03  0.10239952152E+03  0.00000000000E+00 0. -1.
         -5    1    3    3    0  503  0.13838396361E+03 -0.32397222523E+02  0.74901908681E+02  0.16072363652E+03  0.47000000000E+01 0.  1.
         11    1    4    4    0    0  0.31837751258E+02 -0.39960773524E+02  0.33817305855E+02  0.61270841361E+02  0.00000000000E+00 0. -1.
        -12    1    4    4    0    0 -0.17391000225E+02  0.26867090189E+02  0.55216891424E+02  0.63821567848E+02  0.00000000000E+00 0.  1.
</event>
<event>
12    1  0.1061634E+000  0.7974758E+03  0.7818608E-02  0.9564407E-01
         21   -1    0    0  503  502  0.00000000000E+00  0.00000000000E+00  0.13574797831E+04  0.13574797831E+04  0.00000000000E+00 0.  1.
         21   -1    0    0  501  503 -0.00000000000E+00 -0.00000000000E+00 -0.68373714331E+03  0.68373714331E+03  0.00000000000E+00 0. -1.
          6    2    1    2  501    0  0.56991390394E+03 -0.52738410115E+03 -0.23762236324E+03  0.83020336031E+03  0.17273501064E+03 0.  0.
         24    2    3    3    0    0  0.57739173850E+03 -0.50378712846E+03 -0.22587047054E+03  0.80240170366E+03  0.75155399626E+02 0.  0.
         -6    2    1    2    0  502 -0.56991390394E+03  0.52738410115E+03  0.91136500305E+03  0.12110135661E+04  0.18174663814E+03 0.  0.
        -24    2    5    5    0    0 -0.13086562583E+03  0.10071794121E+03  0.24295327730E+03  0.30458997438E+03  0.80491253126E+02 0.  0.
          5    1    3    3  501    0 -0.74778345611E+01 -0.23596972693E+02 -0.11751892702E+02  0.27801656643E+02  0.47000000000E+01 0. -1.
        -13    1    4    4    0    0  0.27350661029E+03 -0.19102195288E+03 -0.87518516306E+02  0.34489816331E+03  0.00000000000E+00 0.  1.
         14    1    4    4    0    0  0.30388512821E+03 -0.31276517558E+03 -0.13835195423E+03  0.45750354036E+03  0.00000000000E+00 0. -1.
         -5    1    5    5    0  502 -0.43904827810E+03  0.42666615994E+03  0.66841172574E+03  0.90642359173E+03  0.47000000000E+01 0.  1.
         11    1    6    6    0    0 -0.51389688361E+02  0.69623161449E+02  0.17598360217E+03  0.19610842132E+03  0.00000000000E+00 0. -1.
        -12    1    6    6    0    0 -0.79475937473E+02  0.31094779766E+02  0.66969675137E+02  0.10848155306E+03  0.00000000000E+00 0.  1.
</event>
<event>
12    1  0.1061634E+000  0.1809062E+03  0.7818608E-02  0.1167025E+00
         21   -1    0    0  503  502  0.00000000000E+00  0.00000000000E+00  0.27130165919E+03  0.27130165919E+03  0.00000000000E+00 0.  1.
         21   -1    0    0  501  503 -0.00000000000E+00 -0.00000000000E+00 -0.12126783086E+03  0.12126783086E+03  0.00000000000E+00 0.  1.
          6    2    1    2  501    0 -0.53783382422E+02  0.87573628876E+01  0.91889842608E+02  0.20254902809E+03  0.17208434553E+03 0.  0.
         24    2    3    3    0    0  0.52818691362E+01 -0.11622153222E+02  0.11027227047E+03  0.13724947011E+03  0.80712271822E+02 0.  0.
         -6    2    1    2    0  502  0.53783382422E+02 -0.87573628876E+01  0.58143985722E+02  0.19002046195E+03  0.17250422967E+03 0.  0.
        -24    2    5    5    0    0  0.62231554334E+02 -0.19298896824E+02 -0.21987842399E+02  0.10862208712E+03  0.84083760762E+02 0.  0.
          5    1    3    3  501    0 -0.59065251558E+02  0.20379516109E+02 -0.18382427867E+02  0.65299557982E+02  0.47000000000E+01 0. -1.
        -11    1    4    4    0    0  0.10208097624E+02  0.10188021267E+02 -0.82644475241E+01  0.16622338202E+02  0.00000000000E+00 0.  1.
         12    1    4    4    0    0 -0.49262284874E+01 -0.21810174488E+02  0.11853671800E+03  0.12062713191E+03  0.00000000000E+00 0. -1.
         -5    1    5    5    0  502 -0.84481719123E+01  0.10541533937E+02  0.80131828121E+02  0.81398374827E+02  0.47000000000E+01 0.  1.
         11    1    6    6    0    0  0.71869902354E+02 -0.40577099250E+02 -0.21366835097E+02  0.85254474897E+02  0.00000000000E+00 0. -1.
        -12    1    6    6    0    0 -0.96383480206E+01  0.21278202425E+02 -0.62100730251E+00  0.23367612225E+02  0.00000000000E+00 0.  1.
</event>
<event>
12    1  0.1061634E+000  0.1866005E+03  0.7818608E-02  0.1162479E+00
         21   -1    0    0  501  502  0.00000000000E+00  0.00000000000E+00  0.16981430951E+03  0.16981430951E+03  0.00000000000E+00 0. -1.
         21   -1    0    0  502  503 -0.00000000000E+00 -0.00000000000E+00 -0.20490064271E+03  0.20490064271E+03  0.00000000000E+00 0. -1.
         -6    2    1    2    0  503  0.12205900314E+02  0.59354844111E+02  0.92611183991E+01  0.18291704140E+03  0.17233947371E+03 0.  0.
        -24    2    3    3    0    0  0.48168505038E+02 -0.13743101720E+02 -0.17070128445E+02  0.97172985144E+02  0.81499214929E+02 0.  0.
          6    2    1    2  501    0 -0.12205900314E+02 -0.59354844111E+02 -0.44347451592E+02  0.19179791082E+03  0.17648728172E+03 0.  0.
         24    2    5    5    0    0 -0.60336546423E+02 -0.85315511957E+02 -0.27791897863E+02  0.13446823500E+03  0.79937983607E+02 0.  0.
          5    1    5    5  501    0  0.48130646109E+02  0.25960667847E+02 -0.16555553729E+02  0.57329675816E+02  0.47000000000E+01 0. -1.
        -13    1    6    6    0    0  0.40437331464E+01 -0.13354528717E+02  0.21828958228E+02  0.25907501468E+02  0.00000000000E+00 0.  1.
         14    1    6    6    0    0 -0.64380279570E+02 -0.71960983241E+02 -0.49620856091E+02  0.10856073354E+03  0.00000000000E+00 0. -1.
         -5    1    3    3    0  503 -0.35962604724E+02  0.73097945830E+02  0.26331246844E+02  0.85744056258E+02  0.47000000000E+01 0.  1.
         11    1    4    4    0    0  0.37027682318E+02  0.10786194468E+02  0.25899517434E+02  0.46456175610E+02  0.00000000000E+00 0. -1.
        -12    1    4    4    0    0  0.11140822720E+02 -0.24529296188E+02 -0.42969645879E+02  0.50716809534E+02  0.00000000000E+00 0.  1.
</event>
<event>
12    1  0.1298786E+000  0.3503847E+03  0.7818608E-02  0.1062540E+00
         21   -1    0    0  503  502  0.00000000000E+00  0.00000000000E+00  0.43883768789E+03  0.43883768789E+03  0.00000000000E+00 0. -1.
         21   -1    0    0  501  503 -0.00000000000E+00 -0.00000000000E+00 -0.55291246194E+03  0.55291246194E+03  0.00000000000E+00 0. -1.
          6    2    1    2  501    0  0.63975049063E+02  0.29801680795E+03  0.29193842739E+03  0.45545161086E+03  0.17117622420E+03 0.  0.
         24    2    3    3    0    0 -0.59759098289E+01  0.24141485368E+03  0.24598916095E+03  0.35430645298E+03  0.81887436419E+02 0.  0.
         -6    2    1    2    0  502 -0.63975049063E+02 -0.29801680795E+03 -0.40601320144E+03  0.53629853897E+03  0.17280792352E+03 0.  0.
        -24    2    5    5    0    0 -0.98746518425E+02 -0.14845264160E+03 -0.25593843241E+03  0.32153582983E+03  0.78049644322E+02 0.  0.
          5    1    3    3  501    0  0.69950958892E+02  0.56601954274E+02  0.45949266435E+02  0.10114515788E+03  0.47000000000E+01 0. -1.
        -13    1    4    4    0    0  0.31694513468E+02  0.10955272936E+03  0.81630604546E+02  0.14024941459E+03  0.00000000000E+00 0.  1.
         14    1    4    4    0    0 -0.37670423297E+02  0.13186212432E+03  0.16435855641E+03  0.21405703839E+03  0.00000000000E+00 0. -1.
         -5    1    5    5    0  502  0.34771469362E+02 -0.14956416635E+03 -0.15007476903E+03  0.21476270914E+03  0.47000000000E+01 0.  1.
         13    1    6    6    0    0 -0.32757617059E+02 -0.33096170235E+01 -0.27166546268E+02  0.42685316871E+02  0.00000000000E+00 0. -1.
        -14    1    6    6    0    0 -0.65988901366E+02 -0.14514302458E+03 -0.22877188614E+03  0.27885051296E+03  0.00000000000E+00 0.  1.
</event>
<event>
12    1  0.1061634E+000  0.2330756E+03  0.7818608E-02  0.1125656E+00
         21   -1    0    0  503  502  0.00000000000E+00  0.00000000000E+00  0.16901679552E+03  0.16901679552E+03  0.00000000000E+00 0. -1.
         21   -1    0    0  501  503 -0.00000000000E+00 -0.00000000000E+00 -0.32281890919E+03  0.32281890919E+03  0.00000000000E+00 0. -1.
          6    2    1    2  501    0  0.15778402245E+03 -0.26520952675E+01 -0.31544950694E+02  0.22864180702E+03  0.16241662677E+03 0.  0.
         24    2    3    3    0    0  0.15930929014E+02 -0.91715006535E+01 -0.23707506444E+02  0.86345221331E+02  0.80966292131E+02 0.  0.
         -6    2    1    2    0  502 -0.15778402245E+03  0.26520952675E+01 -0.12225716297E+03  0.26319389769E+03  0.17152662340E+03 0.  0.
        -24    2    5    5    0    0 -0.11878044288E+03 -0.41228687687E+02 -0.27379243389E+02  0.15152155574E+03  0.80003503589E+02 0.  0.
          5    1    3    3  501    0  0.14185309344E+03  0.65194053859E+01 -0.78374442499E+01  0.14229658569E+03  0.47000000000E+01 0. -1.
        -13    1    4    4    0    0  0.38592446997E+02  0.86779465094E+01  0.11151712959E+02  0.41097985629E+02  0.00000000000E+00 0.  1.
         14    1    4    4    0    0 -0.22661517983E+02 -0.17849447163E+02 -0.34859219404E+02  0.45247235702E+02  0.00000000000E+00 0. -1.
         -5    1    5    5    0  502 -0.39003579571E+02  0.43880782955E+02 -0.94877919584E+02  0.11167234195E+03  0.47000000000E+01 0.  1.
         11    1    6    6    0    0  0.22006802606E+01  0.14290879905E+02  0.34950710034E+01  0.14875744129E+02  0.00000000000E+00 0. -1.
        -12    1    6    6    0    0 -0.12098112314E+03 -0.55519567592E+02 -0.30874314392E+02  0.13664581162E+03  0.00000000000E+00 0.  1.
</event>
<event>
12    1  0.1061634E+000  0.1911974E+03  0.7818608E-02  0.1157708E+00
         21   -1    0    0  501  502  0.00000000000E+00  0.00000000000E+00  0.52251604726E+02  0.52251604726E+02  0.00000000000E+00 0. -1.
         21   -1    0    0  502  503 -0.00000000000E+00 -0.00000000000E+00 -0.10139057828E+04  0.10139057828E+04  0.00000000000E+00 0. -1.
         -6    2    1    2    0  503 -0.65809950612E+02 -0.47954026801E+02 -0.18033251139E+03  0.26178186338E+03  0.17140417452E+03 0.  0.
        -24    2    3    3    0    0 -0.56250509798E+01 -0.53341602087E+02 -0.28797826150E+02  0.98576168190E+02  0.77530500013E+02 0.  0.
          6    2    1    2  501    0  0.65809950612E+02  0.47954026801E+02 -0.78132166673E+03  0.80437552419E+03  0.17299103657E+03 0.  0.
         24    2    5    5    0    0  0.58790213383E+02  0.90272552619E+02 -0.41534133904E+03  0.43585981951E+03  0.76550188805E+02 0.  0.
          5    1    5    5  501    0  0.70197372293E+01 -0.42318525818E+02 -0.36598032769E+03  0.36851570468E+03  0.47000000000E+01 0. -1.
        -11    1    6    6    0    0 -0.11146658878E+02 -0.58427608938E+01 -0.28192977388E+02  0.30874420367E+02  0.00000000000E+00 0.  1.
         12    1    6    6    0    0  0.69936872260E+02  0.96115313513E+02 -0.38714836165E+03  0.40498539915E+03  0.00000000000E+00 0. -1.
         -5    1    3    3    0  503 -0.60184899632E+02  0.53875752865E+01 -0.15153468524E+03  0.16320569519E+03  0.47000000000E+01 0.  1.
         11    1    4    4    0    0  0.10182176402E+00 -0.12404804525E+02  0.26662041312E+02  0.29406699745E+02  0.00000000000E+00 0. -1.
        -12    1    4    4    0    0 -0.57268727438E+01 -0.40936797563E+02 -0.55459867462E+02  0.69169468445E+02  0.00000000000E+00 0.  1.
</event>
<event>
12    1  0.1061634E+000  0.2310319E+03  0.7818608E-02  0.1126182E+00
         21   -1    0    0  503  502  0.00000000000E+00  0.00000000000E+00  0.40255956384E+03  0.40255956384E+03  0.00000000000E+00 0.  1.
         21   -1    0    0  501  503 -0.00000000000E+00 -0.00000000000E+00 -0.15843800603E+03  0.15843800603E+03  0.00000000000E+00 0.  1.
          6    2    1    2  501    0 -0.72309831808E+02 -0.13394056764E+03  0.23758111908E+03  0.33139179838E+03  0.17380146275E+03 0.  0.
         24    2    3    3    0    0 -0.44910276021E+01 -0.10601707730E+02  0.13423036342E+03  0.15670541292E+03  0.80038930784E+02 0.  0.
         -6    2    1    2    0  502  0.72309831808E+02  0.13394056764E+03  0.65404387326E+01  0.22960577149E+03  0.17177673163E+03 0.  0.
        -24    2    5    5    0    0  0.16974753466E+02  0.47231567200E+02  0.61124717322E+02  0.11306412605E+03  0.80797910476E+02 0.  0.
          5    1    3    3  501    0 -0.67818804206E+02 -0.12333885991E+03  0.10335075566E+03  0.17468638545E+03  0.47000000000E+01 0. -1.
        -11    1    4    4    0    0  0.25208303772E+02 -0.22187648190E+02  0.11424783824E+03  0.11908114399E+03  0.00000000000E+00 0.  1.
         12    1    4    4    0    0 -0.29699331374E+02  0.11585940460E+02  0.19982525176E+02  0.37624268934E+02  0.00000000000E+00 0. -1.
         -5    1    5    5    0  502  0.55335078342E+02  0.86709000439E+02 -0.54584278589E+02  0.11654164544E+03  0.47000000000E+01 0.  1.
         13    1    6    6    0    0 -0.43062571119E+01 -0.21693303408E+02  0.81663779953E+01  0.23576110634E+02  0.00000000000E+00 0. -1.
        -14    1    6    6    0    0  0.21281010578E+02  0.68924870608E+02  0.52958339327E+02  0.89488015420E+02  0.00000000000E+00 0.  1.
</event>
<event>
12    1  0.1061634E+000  0.2714448E+03  0.7818608E-02  0.1100516E+00
         21   -1    0    0  501  502  0.00000000000E+00  0.00000000000E+00  0.70854272137E+03  0.70854272137E+03  0.00000000000E+00 0. -1.
         21   -1    0    0  502  503 -0.00000000000E+00 -0.00000000000E+00 -0.17118284627E+03  0.17118284627E+03  0.00000000000E+00 0. -1.
         -6    2    1    2    0  503 -0.78269634036E+02 -0.19510764070E+03 -0.71047812319E+01  0.27153778821E+03  0.17172409685E+03 0.  0.
        -24    2    3    3    0    0  0.23958447364E+02 -0.91512842057E+02  0.17173158590E+02  0.12390997480E+03  0.78167493349E+02 0.  0.
          6    2    1    2  501    0  0.78269634036E+02  0.19510764070E+03  0.54446465633E+03  0.60818777942E+03  0.17104819781E+03 0.  0.
         24    2    5    5    0    0  0.59948311442E+02  0.10556670800E+03  0.17643516147E+03  0.22895032270E+03  0.80936729491E+02 0.  0.
          5    1    5    5  501    0  0.18321322594E+02  0.89540932699E+02  0.36802949487E+03  0.37923745672E+03  0.47000000000E+01 0. -1.
        -11    1    6    6    0    0  0.56554256837E+02  0.77743531402E+02  0.17642779092E+03  0.20092089501E+03  0.00000000000E+00 0.  1.
         12    1    6    6    0    0  0.33940546042E+01  0.27823176597E+02  0.73705471226E-02  0.28029427695E+02  0.00000000000E+00 0. -1.
         -5    1    3    3    0  503 -0.10222808140E+03 -0.10359479864E+03 -0.24277939822E+02  0.14762781342E+03  0.47000000000E+01 0.  1.
         11    1    4    4    0    0  0.47488808232E+02 -0.32157509535E+02  0.17821251225E+02  0.60057383577E+02  0.00000000000E+00 0. -1.
        -12    1    4    4    0    0 -0.23530360868E+02 -0.59355332522E+02 -0.64809263463E+00  0.63852591219E+02  0.00000000000E+00 0.  1.
</event>
<event>
12    1  0.1061634E+000  0.2352240E+03  0.7818608E-02  0.1123270E+00
         21   -1    0    0  501  502  0.00000000000E+00  0.00000000000E+00  0.71014459524E+02  0.71014459524E+02  0.00000000000E+00 0. -1.
         21   -1    0    0  502  503 -0.00000000000E+00 -0.00000000000E+00 -0.10511404901E+04  0.10511404901E+04  0.00000000000E+00 0. -1.
         -6    2    1    2    0  503 -0.12834299560E+03  0.95606384174E+02 -0.20094769919E+03  0.30824512055E+03  0.17036012244E+03 0.  0.
        -24    2    3    3    0    0 -0.39260510871E+02 -0.61425556039E+00 -0.32261030820E+02  0.94536480849E+02  0.79715789389E+02 0.  0.
          6    2    1    2  501    0  0.12834299560E+03 -0.95606384174E+02 -0.77917833135E+03  0.81390982904E+03  0.17238860910E+03 0.  0.
         24    2    5    5    0    0  0.19482909632E+02  0.10481445851E+02 -0.32428146140E+03  0.33426579615E+03  0.78010972257E+02 0.  0.
          5    1    5    5  501    0  0.10886008597E+03 -0.10608783002E+03 -0.45489686995E+03  0.47964403289E+03  0.47000000000E+01 0. -1.
        -13    1    6    6    0    0  0.42995407480E+02 -0.15298905635E+02 -0.20289394119E+03  0.20796300861E+03  0.00000000000E+00 0.  1.
         14    1    6    6    0    0 -0.23512497847E+02  0.25780351485E+02 -0.12138752022E+03  0.12630278755E+03  0.00000000000E+00 0. -1.
         -5    1    3    3    0  503 -0.89082484732E+02  0.96220639734E+02 -0.16868666837E+03  0.21370863970E+03  0.47000000000E+01 0.  1.
         11    1    4    4    0    0 -0.21824471266E+02  0.94739553706E+01 -0.57509532821E+02  0.62236723417E+02  0.00000000000E+00 0. -1.
        -12    1    4    4    0    0 -0.17436039605E+02 -0.10088210931E+02  0.25248502000E+02  0.32299757432E+02  0.00000000000E+00 0.  1.
</event>
<event>
12    1  0.1061634E+000  0.1869031E+03  0.7818608E-02  0.1161321E+00
         21   -1    0    0  501  502  0.00000000000E+00  0.00000000000E+00  0.30778733345E+02  0.30778733345E+02  0.00000000000E+00 0.  1.
         21   -1    0    0  502  503 -0.00000000000E+00 -0.00000000000E+00 -0.13159497329E+04  0.13159497329E+04  0.00000000000E+00 0.  1.
         -6    2    1    2    0  503  0.94881426255E+01  0.72509381214E+02 -0.89319992745E+03  0.91254528407E+03  0.17200334261E+03 0.  0.
        -24    2    3    3    0    0  0.28894110476E+02 -0.10826661205E+02 -0.26114224191E+03  0.27470479037E+03  0.79469271608E+02 0.  0.
          6    2    1    2  501    0 -0.94881426255E+01 -0.72509381214E+02 -0.39197107215E+03  0.43418318222E+03  0.17183154281E+03 0.  0.
         24    2    5    5    0    0 -0.14706582415E+02  0.53182522716E+01 -0.85017889835E+02  0.11743924971E+03  0.79494455196E+02 0.  0.
          5    1    5    5  501    0  0.52184397896E+01 -0.77827633485E+02 -0.30695318232E+03  0.31674393251E+03  0.47000000000E+01 0. -1.
        -13    1    6    6    0    0  0.32542165784E+02 -0.37736835309E+01 -0.37882268495E+02  0.50082926309E+02  0.00000000000E+00 0.  1.
         14    1    6    6    0    0 -0.47248748199E+02  0.90919358025E+01 -0.47135621340E+02  0.67356323401E+02  0.00000000000E+00 0. -1.
         -5    1    3    3    0  503 -0.19405967850E+02  0.83336042419E+02 -0.63205768554E+03  0.63784049370E+03  0.47000000000E+01 0.  1.
         11    1    4    4    0    0 -0.20625743058E+02  0.95684711873E+01 -0.31186392465E+02  0.38594921849E+02  0.00000000000E+00 0. -1.
        -12    1    4    4    0    0  0.49519853534E+02 -0.20395132393E+02 -0.22995584945E+03  0.23610986852E+03  0.00000000000E+00 0.  1.
</event>
<event>
12    1  0.1061634E+000  0.2000498E+03  0.7818608E-02  0.1150932E+00
         21   -1    0    0  503  502  0.00000000000E+00  0.00000000000E+00  0.61756208024E+02  0.61756208024E+02  0.00000000000E+00 0.  1.
         21   -1    0    0  501  503 -0.00000000000E+00 -0.00000000000E+00 -0.64194146353E+03  0.64194146353E+03  0.00000000000E+00 0.  1.
          6    2    1    2  501    0  0.61955865680E+02  0.70105344993E+02 -0.23692114212E+03  0.30639402186E+03  0.17027149016E+03 0.  0.
         24    2    3    3    0    0  0.88563486362E+02 -0.41566633818E+01 -0.15751370394E+03  0.19436526392E+03  0.71459918315E+02 0.  0.
         -6    2    1    2    0  502 -0.61955865680E+02 -0.70105344993E+02 -0.34326411338E+03  0.39730364969E+03  0.17682378186E+03 0.  0.
        -24    2    5    5    0    0 -0.35626702477E+02  0.31991582291E+02 -0.16397234486E+03  0.18925405066E+03  0.81470501075E+02 0.  0.
          5    1    3    3  501    0 -0.26607620682E+02  0.74262008375E+02 -0.79407438185E+02  0.11202875794E+03  0.47000000000E+01 0. -1.
        -11    1    4    4    0    0 -0.94521902650E+01  0.25227667483E+01 -0.40077959896E+02  0.41254710304E+02  0.00000000000E+00 0.  1.
         12    1    4    4    0    0  0.98015676627E+02 -0.66794301301E+01 -0.11743574404E+03  0.15311055362E+03  0.00000000000E+00 0. -1.
         -5    1    5    5    0  502 -0.26329163203E+02 -0.10209692728E+03 -0.17929176852E+03  0.20804959903E+03  0.47000000000E+01 0.  1.
         11    1    6    6    0    0 -0.59297101615E+02  0.32311081642E+02 -0.14065823037E+03  0.15602849108E+03  0.00000000000E+00 0. -1.
        -12    1    6    6    0    0  0.23670399138E+02 -0.31949935058E+00 -0.23314114491E+02  0.33225559584E+02  0.00000000000E+00 0.  1.
</event>
<event>
12    1  0.1061634E+000  0.2730538E+03  0.7818608E-02  0.1099551E+00
         21   -1    0    0  503  502  0.00000000000E+00  0.00000000000E+00  0.14275876817E+03  0.14275876817E+03  0.00000000000E+00 0.  1.
         21   -1    0    0  501  503 -0.00000000000E+00 -0.00000000000E+00 -0.53391583941E+03  0.53391583941E+03  0.00000000000E+00 0.  1.
          6    2    1    2  501    0  0.13083478778E+03 -0.16633357733E+03 -0.24574749784E+03  0.36735567109E+03  0.17255073384E+03 0.  0.
         24    2    3    3    0    0  0.28825202213E+02 -0.13248448788E+03 -0.98949730466E+02  0.18535734443E+03  0.78633734242E+02 0.  0.
         -6    2    1    2    0  502 -0.13083478778E+03  0.16633357733E+03 -0.14540957340E+03  0.30931893648E+03  0.17248089689E+03 0.  0.
        -24    2    5    5    0    0 -0.15740118395E+03  0.11965164730E+03 -0.14016463870E+03  0.25514721566E+03  0.79764191883E+02 0.  0.
          5    1    3    3  501    0  0.10200958556E+03 -0.33849089441E+02 -0.14679776737E+03  0.18199832666E+03  0.47000000000E+01 0. -1.
        -13    1    4    4    0    0 -0.23278614120E+01 -0.47539450370E+01  0.12133556274E+02  0.13237904669E+02  0.00000000000E+00 0.  1.
         14    1    4    4    0    0  0.31153063625E+02 -0.12773054285E+03 -0.11108328674E+03  0.17211943976E+03  0.00000000000E+00 0. -1.
         -5    1    5    5    0  502  0.26566396174E+02  0.46681930026E+02 -0.52449346993E+01  0.54171720821E+02  0.47000000000E+01 0.  1.
         11    1    6    6    0    0 -0.12604562132E+03  0.10318024123E+03 -0.14660251989E+03  0.21914825957E+03  0.00000000000E+00 0. -1.
        -12    1    6    6    0    0 -0.31355562631E+02  0.16471406069E+02  0.64378811829E+01  0.35998956095E+02  0.00000000000E+00 0.  1.
</event>
<event>
12    1  0.1061634E+000  0.2202294E+03  0.7818608E-02  0.1133731E+00
         21   -1    0    0  501  502  0.00000000000E+00  0.00000000000E+00  0.19507707953E+03  0.19507707953E+03  0.00000000000E+00 0.  1.
         21   -1    0    0  502  503 -0.00000000000E+00 -0.00000000000E+00 -0.24854117661E+03  0.24854117661E+03  0.00000000000E+00 0.  1.
         -6    2    1    2    0  503  0.22347649581E+02  0.13592363267E+03 -0.29250342238E+02  0.22216338867E+03  0.17183229436E+03 0.  0.
        -24    2    3    3    0    0 -0.71621498192E+01  0.15329204373E+03 -0.52408365255E+02  0.18055961488E+03  0.79406490399E+02 0.  0.
          6    2    1    2  501    0 -0.22347649581E+02 -0.13592363267E+03 -0.24213754836E+02  0.22145486747E+03  0.17170119698E+03 0.  0.
         24    2    5    5    0    0  0.43699582428E+02 -0.78897343289E+02 -0.58282679205E+02  0.12766245763E+03  0.69039033234E+02 0.  0.
          5    1    5    5  501    0 -0.66047232009E+02 -0.57026289380E+02  0.34068924369E+02  0.93792409843E+02  0.47000000000E+01 0. -1.
        -11    1    6    6    0    0  0.29484690506E+01 -0.57208044348E+02 -0.57969257907E+02  0.81497783223E+02  0.00000000000E+00 0.  1.
         12    1    6    6    0    0  0.40751113377E+02 -0.21689298940E+02 -0.31342129779E+00  0.46164674405E+02  0.00000000000E+00 0. -1.
         -5    1    3    3    0  503  0.29509799400E+02 -0.17368411058E+02  0.23158023017E+02  0.41603773787E+02  0.47000000000E+01 0.  1.
         13    1    4    4    0    0  0.33578949616E+02  0.43628426604E+02 -0.24670595939E+02  0.60329294453E+02  0.00000000000E+00 0. -1.
        -14    1    4    4    0    0 -0.40741099435E+02  0.10966361712E+03 -0.27737769316E+02  0.12023032043E+03  0.00000000000E+00 0.  1.
</event>
<event>
12    1  0.1061634E+000  0.2713988E+03  0.7818608E-02  0.1100584E+00
         21   -1    0    0  503  502  0.00000000000E+00  0.00000000000E+00  0.72140711713E+02  0.72140711713E+02  0.00000000000E+00 0.  1.
         21   -1    0    0  501  503 -0.00000000000E+00 -0.00000000000E+00 -0.10403919484E+04  0.10403919484E+04  0.00000000000E+00 0.  1.
          6    2    1    2  501    0  0.14402371404E+03  0.15222487267E+03 -0.56578237666E+03  0.62750857994E+03  0.17245891715E+03 0.  0.
         24    2    3    3    0    0  0.11460057241E+03  0.28480054079E+02 -0.26949301607E+03  0.30503691206E+03  0.80477495809E+02 0.  0.
         -6    2    1    2    0  502 -0.14402371404E+03 -0.15222487267E+03 -0.40246886000E+03  0.48502408013E+03  0.17132405838E+03 0.  0.
        -24    2    5    5    0    0 -0.72293978637E+02 -0.16095266248E+03 -0.33148908897E+03  0.38362611590E+03  0.78433422645E+02 0.  0.
          5    1    3    3  501    0  0.29423141634E+02  0.12374481859E+03 -0.29628936059E+03  0.32247166789E+03  0.47000000000E+01 0. -1.
        -13    1    4    4    0    0  0.22457392413E+02  0.32682178142E+02 -0.34398459789E+02  0.52494888113E+02  0.00000000000E+00 0.  1.
         14    1    4    4    0    0  0.92143179996E+02 -0.42021240637E+01 -0.23509455628E+03  0.25254202394E+03  0.00000000000E+00 0. -1.
         -5    1    5    5    0  502 -0.71729735406E+02  0.87277898072E+01 -0.70979771025E+02  0.10139796424E+03  0.47000000000E+01 0.  1.
         11    1    6    6    0    0 -0.46379387822E+02 -0.66277988264E+02 -0.80487498556E+02  0.11411422684E+03  0.00000000000E+00 0. -1.
        -12    1    6    6    0    0 -0.25914590814E+02 -0.94674674212E+02 -0.25100159042E+03  0.26951188906E+03  0.00000000000E+00 0.  1.
</event>
<event>
12    1  0.1061634E+000  0.2751395E+03  0.7818608E-02  0.1098406E+00
         21   -1    0    0  503  502  0.00000000000E+00  0.00000000000E+00  0.31699120318E+04  0.31699120318E+04  0.00000000000E+00 0. -1.
         21   -1    0    0  501  503 -0.00000000000E+00 -0.00000000000E+00 -0.23921121956E+02  0.23921121956E+02  0.00000000000E+00 0. -1.
          6    2    1    2  501    0  0.49532817719E+02 -0.20914434118E+03  0.14926328201E+04  0.15177380656E+04  0.17140958186E+03 0.  0.
         24    2    3    3    0    0  0.86468498275E+02 -0.15835851249E+03  0.88767618061E+03  0.90951272042E+03  0.81793442992E+02 0.  0.
         -6    2    1    2    0  502 -0.49532817719E+02  0.20914434118E+03  0.16533580898E+04  0.16760950882E+04  0.17177577252E+03 0.  0.
        -24    2    5    5    0    0  0.96818688278E+01  0.10901111215E+03  0.12138660148E+04  0.12214431151E+04  0.80469996371E+02 0.  0.
          5    1    3    3  501    0 -0.36935680556E+02 -0.50785828694E+02  0.60495663948E+03  0.60822534520E+03  0.47000000000E+01 0. -1.
        -11    1    4    4    0    0  0.81234253464E+02 -0.16690897825E+03  0.86539889960E+03  0.88508353639E+03  0.00000000000E+00 0.  1.
         12    1    4    4    0    0  0.52342448112E+01  0.85504657579E+01  0.22277281010E+02  0.24429184035E+02  0.00000000000E+00 0. -1.
         -5    1    5    5    0  502 -0.59214686547E+02  0.10013322903E+03  0.43949207496E+03  0.45465197306E+03  0.47000000000E+01 0.  1.
         13    1    6    6    0    0 -0.76082245024E+01  0.78665986888E+02  0.45787709531E+03  0.46464788494E+03  0.00000000000E+00 0. -1.
        -14    1    6    6    0    0  0.17290093330E+02  0.30345125266E+02  0.75598891952E+03  0.75679523015E+03  0.00000000000E+00 0.  1.
</event>
<event>
12    1  0.1061634E+000  0.2484489E+03  0.7818608E-02  0.1114452E+00
         21   -1    0    0  503  502  0.00000000000E+00  0.00000000000E+00  0.60219098599E+03  0.60219098599E+03  0.00000000000E+00 0. -1.
         21   -1    0    0  501  503 -0.00000000000E+00 -0.00000000000E+00 -0.10410290699E+03  0.10410290699E+03  0.00000000000E+00 0. -1.
          6    2    1    2  501    0 -0.17051030825E+03  0.52709184364E+02  0.29774194931E+03  0.38713027955E+03  0.17136966369E+03 0.  0.
         24    2    3    3    0    0 -0.80309868870E+02 -0.20485952610E+02  0.21999832539E+03  0.24727389464E+03  0.76653548542E+02 0.  0.
         -6    2    1    2    0  502  0.17051030825E+03 -0.52709184364E+02  0.20034612969E+03  0.31916361343E+03  0.17284333115E+03 0.  0.
        -24    2    5    5    0    0  0.17201192034E+03  0.53023437465E+01  0.16029272725E+03  0.24849567672E+03  0.80250404060E+02 0.  0.
          5    1    3    3  501    0 -0.90200439376E+02  0.73195136974E+02  0.77743623921E+02  0.13985638491E+03  0.47000000000E+01 0. -1.
        -13    1    4    4    0    0 -0.10071981716E+02  0.26400810837E+02  0.61522623276E+02  0.67701409167E+02  0.00000000000E+00 0.  1.
         14    1    4    4    0    0 -0.70237887154E+02 -0.46886763447E+02  0.15847570211E+03  0.17957248547E+03  0.00000000000E+00 0. -1.
         -5    1    5    5    0  502 -0.15016120897E+01 -0.58011528110E+02  0.40053402438E+02  0.70667936714E+02  0.47000000000E+01 0.  1.
         11    1    6    6    0    0  0.29259036308E+02 -0.22878495802E+02  0.64046163079E+02  0.74036665113E+02  0.00000000000E+00 0. -1.
        -12    1    6    6    0    0  0.14275288403E+03  0.28180839549E+02  0.96246564173E+02  0.17445901161E+03  0.00000000000E+00 0.  1.
</event>
<event>
12    1  0.1061634E+000  0.2028289E+03  0.7818608E-02  0.1147468E+00
         21   -1    0    0  501  502  0.00000000000E+00  0.00000000000E+00  0.77992919516E+02  0.77992919516E+02  0.00000000000E+00 0.  1.
         21   -1    0    0  502  503 -0.00000000000E+00 -0.00000000000E+00 -0.52662929662E+03  0.52662929662E+03  0.00000000000E+00 0.  1.
         -6    2    1    2    0  503 -0.95777051469E+02  0.45823415525E+02 -0.23210161270E+03  0.30823806418E+03  0.17281931776E+03 0.  0.
        -24    2    3    3    0    0 -0.36740898605E+02  0.88746919547E+02 -0.17519088769E+03  0.21556328247E+03  0.80930663296E+02 0.  0.
          6    2    1    2  501    0  0.95777051469E+02 -0.45823415525E+02 -0.21653476440E+03  0.29638415196E+03  0.17228822461E+03 0.  0.
         24    2    5    5    0    0  0.49210588976E+02 -0.78654353429E+02 -0.74538651134E+02  0.14331131931E+03  0.79836923460E+02 0.  0.
          5    1    5    5  501    0  0.46566462494E+02  0.32830937905E+02 -0.14199611327E+03  0.15307283265E+03  0.47000000000E+01 0. -1.
        -11    1    6    6    0    0 -0.75871617444E+00 -0.60493695988E+02 -0.65879516305E+02  0.89443689398E+02  0.00000000000E+00 0.  1.
         12    1    6    6    0    0  0.49969305150E+02 -0.18160657442E+02 -0.86591348285E+01  0.53867629908E+02  0.00000000000E+00 0. -1.
         -5    1    3    3    0  503 -0.59036152865E+02 -0.42923504022E+02 -0.56910725008E+02  0.92674781702E+02  0.47000000000E+01 0.  1.
         11    1    4    4    0    0 -0.49852368220E+02  0.91618865085E+02 -0.12107409482E+03  0.15980679426E+03  0.00000000000E+00 0. -1.
        -12    1    4    4    0    0  0.13111469616E+02 -0.28719455386E+01 -0.54116792874E+02  0.55756488211E+02  0.00000000000E+00 0.  1.
</event>
<event>
12    1  0.1061634E+000  0.1932093E+03  0.7818608E-02  0.1155656E+00
         21   -1    0    0  501  502  0.00000000000E+00  0.00000000000E+00  0.30008624439E+02  0.30008624439E+02  0.00000000000E+00 0. -1.
         21   -1    0    0  502  503 -0.00000000000E+00 -0.00000000000E+00 -0.16495542385E+04  0.16495542385E+04  0.00000000000E+00 0. -1.
         -6    2    1    2    0  503  0.72913566001E+02 -0.50081348258E+02 -0.39290675207E+03  0.43784191475E+03  0.17177105968E+03 0.  0.
        -24    2    3    3    0    0 -0.17652907210E+02 -0.11324039411E+02 -0.25764548747E+03  0.27044384201E+03  0.79490977242E+02 0.  0.
          6    2    1    2  501    0 -0.72913566001E+02  0.50081348258E+02 -0.12266388620E+04  0.12417209482E+04  0.17147444668E+03 0.  0.
         24    2    5    5    0    0  0.11373198036E+02  0.69271555545E+02 -0.71722537224E+03  0.72500369844E+03  0.79310970997E+02 0.  0.
          5    1    5    5  501    0 -0.84286764037E+02 -0.19190207287E+02 -0.50941348973E+03  0.51671724973E+03  0.47000000000E+01 0. -1.
        -11    1    6    6    0    0  0.55924772916E+01 -0.15355420406E+02 -0.55260701998E+02  0.57626468948E+02  0.00000000000E+00 0.  1.
         12    1    6    6    0    0  0.57807207443E+01  0.84626975951E+02 -0.66196467025E+03  0.66737722949E+03  0.00000000000E+00 0. -1.
         -5    1    3    3    0  503  0.90566473210E+02 -0.38757308847E+02 -0.13526126459E+03  0.16739807274E+03  0.47000000000E+01 0.  1.
         13    1    4    4    0    0 -0.30346456162E+02 -0.14104136172E+02 -0.38901931551E+02  0.51314660061E+02  0.00000000000E+00 0. -1.
        -14    1    4    4    0    0  0.12693548953E+02  0.27800967615E+01 -0.21874355592E+03  0.21912918195E+03  0.00000000000E+00 0.  1.
</event>
<event>
12    1  0.1061634E+000  0.1942408E+03  0.7818608E-02  0.1155704E+00
         21   -1    0    0  501  502  0.00000000000E+00  0.00000000000E+00  0.64438983206E+03  0.64438983206E+03  0.00000000000E+00 0.  1.
         21   -1    0    0  502  503 -0.00000000000E+00 -0.00000000000E+00 -0.68848118480E+02  0.68848118480E+02  0.00000000000E+00 0.  1.
         -6    2    1    2    0  503  0.76924971797E+02  0.28408433992E+02  0.43171626474E+03  0.47154544796E+03  0.17103124228E+03 0.  0.
        -24    2    3    3    0    0  0.75798102729E+02  0.33315142372E+02  0.14459997640E+03  0.18434656451E+03  0.78862231661E+02 0.  0.
          6    2    1    2  501    0 -0.76924971797E+02 -0.28408433992E+02  0.14382544883E+03  0.24169250258E+03  0.17608241157E+03 0.  0.
         24    2    5    5    0    0  0.22539360114E+02 -0.31906986445E+02  0.35047725338E+02  0.94179532575E+02  0.78200784947E+02 0.  0.
          5    1    5    5  501    0 -0.99464331911E+02  0.34985524529E+01  0.10877772350E+03  0.14751297001E+03  0.47000000000E+01 0. -1.
        -13    1    6    6    0    0 -0.18405648847E+02 -0.37147147140E+02  0.32757919610E+02  0.52837105781E+02  0.00000000000E+00 0.  1.
         14    1    6    6    0    0  0.40945008961E+02  0.52401606949E+01  0.22898057279E+01  0.41342426794E+02  0.00000000000E+00 0. -1.
         -5    1    3    3    0  503  0.11268690680E+01 -0.49067083796E+01  0.28711628834E+03  0.28719888344E+03  0.47000000000E+01 0.  1.
         11    1    4    4    0    0  0.60506708068E+02 -0.16038534903E+02  0.82619481101E+02  0.10365459459E+03  0.00000000000E+00 0. -1.
        -12    1    4    4    0    0  0.15291394661E+02  0.49353677275E+02  0.61980495301E+02  0.80691969916E+02  0.00000000000E+00 0.  1.
</event>
<event>
12    1  0.1061634E+000  0.2151537E+03  0.7818608E-02  0.1139625E+00
         21   -1    0    0  501  502  0.00000000000E+00  0.00000000000E+00  0.20835227939E+03  0.20835227939E+03  0.00000000000E+00 0.  1.
         21   -1    0    0  502  503 -0.00000000000E+00 -0.00000000000E+00 -0.57691402303E+03  0.57691402303E+03  0.00000000000E+00 0.  1.
         -6    2    1    2    0  503 -0.92115433396E+02 -0.84736463874E+02  0.12649855140E+03  0.24958567649E+03  0.17500172863E+03 0.  0.
        -24    2    3    3    0    0 -0.11234017759E+03 -0.40388928894E+02  0.12615779724E+03  0.20061680628E+03  0.10039786890E+03 0.  0.
          6    2    1    2  501    0  0.92115433396E+02  0.84736463874E+02 -0.49506029504E+03  0.53568062593E+03  0.16187500082E+03 0.  0.
         24    2    5    5    0    0  0.23031073996E+02  0.70398301027E+02 -0.41774203315E+03  0.43090259747E+03  0.75380972944E+02 0.  0.
          5    1    5    5  501    0  0.69084359400E+02  0.14338162847E+02 -0.77318261883E+02  0.10477802846E+03  0.47000000000E+01 0. -1.
        -11    1    6    6    0    0  0.35605881678E+02  0.15868239711E+01 -0.14950553052E+03  0.15369515437E+03  0.00000000000E+00 0.  1.
         12    1    6    6    0    0 -0.12574807682E+02  0.68811477056E+02 -0.26823650263E+03  0.27720744310E+03  0.00000000000E+00 0. -1.
         -5    1    3    3    0  503  0.20224744195E+02 -0.44347534981E+02  0.34075416084E+00  0.48968870214E+02  0.47000000000E+01 0.  1.
         13    1    4    4    0    0 -0.39498907172E+01 -0.33859435338E+02 -0.97342728635E-01  0.34089184116E+02  0.00000000000E+00 0. -1.
        -14    1    4    4    0    0 -0.10839028687E+03 -0.65294935556E+01  0.12625513997E+03  0.16652762216E+03  0.00000000000E+00 0.  1.
</event>
<event>
12    1  0.1061634E+000  0.2911815E+03  0.7818608E-02  0.1089762E+00
         21   -1    0    0  503  502  0.00000000000E+00  0.00000000000E+00  0.74127847642E+02  0.74127847642E+02  0.00000000000E+00 0. -1.
         21   -1    0    0  501  503 -0.00000000000E+00 -0.00000000000E+00 -0.19341417930E+04  0.19341417930E+04  0.00000000000E+00 0. -1.
          6    2    1    2  501    0 -0.19149623274E+03  0.13541485209E+03 -0.28798192806E+03  0.40953665145E+03  0.17256502737E+03 0.  0.
         24    2    3    3    0    0 -0.18842080146E+03  0.90525953782E+02 -0.16335891455E+03  0.27695664931E+03  0.79507885822E+02 0.  0.
         -6    2    1    2    0  502  0.19149623274E+03 -0.13541485209E+03 -0.15720320173E+04  0.15987329892E+04  0.17220487219E+03 0.  0.
        -24    2    5    5    0    0  0.19223792984E+03 -0.12111155791E+03 -0.15621560338E+04  0.15807119074E+04  0.81824379863E+02 0.  0.
          5    1    3    3  501    0 -0.30754312817E+01  0.44888898304E+02 -0.12462301352E+03  0.13258000214E+03  0.47000000000E+01 0. -1.
        -11    1    4    4    0    0 -0.53500342589E+02  0.63831133895E+02 -0.83406797953E+02  0.11787024330E+03  0.00000000000E+00 0.  1.
         12    1    4    4    0    0 -0.13492045887E+03  0.26694819887E+02 -0.79952116593E+02  0.15908640601E+03  0.00000000000E+00 0. -1.
         -5    1    5    5    0  502 -0.74169710501E+00 -0.14303294181E+02 -0.98759835101E+01  0.18021081802E+02  0.47000000000E+01 0.  1.
         11    1    6    6    0    0  0.16315972728E+02 -0.39676553840E+02 -0.18082712919E+03  0.18584641654E+03  0.00000000000E+00 0. -1.
        -12    1    6    6    0    0  0.17592195712E+03 -0.81435004065E+02 -0.13813289046E+04  0.13948654908E+04  0.00000000000E+00 0.  1.
</event>
<event>
12    1  0.1061634E+000  0.2605345E+03  0.7818608E-02  0.1107213E+00
         21   -1    0    0  501  502  0.00000000000E+00  0.00000000000E+00  0.11252043374E+03  0.11252043374E+03  0.00000000000E+00 0. -1.
         21   -1    0    0  502  503 -0.00000000000E+00 -0.00000000000E+00 -0.59770595591E+03  0.59770595591E+03  0.00000000000E+00 0. -1.
         -6    2    1    2    0  503 -0.65807670616E+02 -0.18442593727E+03 -0.23423239249E+03  0.35034699252E+03  0.17185640991E+03 0.  0.
        -24    2    3    3    0    0  0.28448174370E+02 -0.58312520247E+02 -0.69037117321E+02  0.12209203156E+03  0.77010985965E+02 0.  0.
          6    2    1    2  501    0  0.65807670616E+02  0.18442593727E+03 -0.25095312968E+03  0.35987939713E+03  0.16790512599E+03 0.  0.
         24    2    5    5    0    0  0.96664759448E+02  0.10705750033E+03 -0.21099121684E+03  0.26737491376E+03  0.78528127626E+02 0.  0.
          5    1    5    5  501    0 -0.30857088833E+02  0.77368436942E+02 -0.39961912846E+02  0.92504483374E+02  0.47000000000E+01 0. -1.
        -11    1    6    6    0    0  0.81413331134E+02  0.61901678420E+02 -0.18897118760E+03  0.21487218997E+03  0.00000000000E+00 0.  1.
         12    1    6    6    0    0  0.15251428314E+02  0.45155821908E+02 -0.22020029235E+02  0.52502723790E+02  0.00000000000E+00 0. -1.
         -5    1    3    3    0  503 -0.94255844985E+02 -0.12611341702E+03 -0.16519527517E+03  0.22825496096E+03  0.47000000000E+01 0.  1.
         13    1    4    4    0    0  0.41054664366E+02 -0.46578754454E+02 -0.12956619407E+02  0.63426649124E+02  0.00000000000E+00 0. -1.
        -14    1    4    4    0    0 -0.12606489996E+02 -0.11733765793E+02 -0.56080497914E+02  0.58665382433E+02  0.00000000000E+00 0.  1.
</event>
<event>
12    1  0.1061634E+000  0.2012558E+03  0.7818608E-02  0.1148893E+00
         21   -1    0    0  501  502  0.00000000000E+00  0.00000000000E+00  0.39096850207E+03  0.39096850207E+03  0.00000000000E+00 0.  1.
         21   -1    0    0  502  503 -0.00000000000E+00 -0.00000000000E+00 -0.11547022679E+03  0.11547022679E+03  0.00000000000E+00 0.  1.
         -6    2    1    2    0  503 -0.51006092539E+02  0.91061434900E+02  0.54516881325E+02  0.20754633600E+03  0.17090811810E+03 0.  0.
        -24    2    3    3    0    0  0.25890634072E+02  0.23543618523E+02 -0.64396606563E+01  0.88342510126E+02  0.80859773437E+02 0.  0.
          6    2    1    2  501    0  0.51006092539E+02 -0.91061434900E+02  0.22098139395E+03  0.29889239287E+03  0.17207579620E+03 0.  0.
         24    2    5    5    0    0 -0.21688394842E+01 -0.63405428582E+02  0.41094473024E+02  0.10922472983E+03  0.78843729329E+02 0.  0.
          5    1    5    5  501    0  0.53174932023E+02 -0.27656006318E+02  0.17988692093E+03  0.18966766304E+03  0.47000000000E+01 0. -1.
        -13    1    6    6    0    0 -0.10185606467E+01  0.88403340538E+01 -0.15210378550E+02  0.17622275325E+02  0.00000000000E+00 0.  1.
         14    1    6    6    0    0 -0.11502788376E+01 -0.72245762636E+02  0.56304851574E+02  0.91602454503E+02  0.00000000000E+00 0. -1.
         -5    1    3    3    0  503 -0.76896726611E+02  0.67517816377E+02  0.60956541981E+02  0.11920382587E+03  0.47000000000E+01 0.  1.
         13    1    4    4    0    0  0.15588154468E+02  0.26584550719E+02 -0.41489948285E+02  0.51683118185E+02  0.00000000000E+00 0. -1.
        -14    1    4    4    0    0  0.10302479604E+02 -0.30409321958E+01  0.35050287629E+02  0.36659391941E+02  0.00000000000E+00 0.  1.
</event>
<event>
12    1  0.1061634E+000  0.2536497E+03  0.7818608E-02  0.1111022E+00
         21   -1    0    0  503  502  0.00000000000E+00  0.00000000000E+00  0.43139760245E+03  0.43139760245E+03  0.00000000000E+00 0. -1.
         21   -1    0    0  501  503 -0.00000000000E+00 -0.00000000000E+00 -0.17349329641E+03  0.17349329641E+03  0.00000000000E+00 0. -1.
          6    2    1    2  501    0 -0.80605466694E+02 -0.16791389472E+03  0.15614092274E+02  0.25411643528E+03  0.17215994163E+03 0.  0.
         24    2    3    3    0    0 -0.44981198839E+02 -0.16086174772E+03 -0.38782317454E+02  0.18854296024E+03  0.78387304967E+02 0.  0.
         -6    2    1    2    0  502  0.80605466694E+02  0.16791389472E+03  0.24229021376E+03  0.35077446357E+03  0.17217972966E+03 0.  0.
        -24    2    5    5    0    0  0.68480646285E+00  0.15381530633E+03  0.15700949768E+03  0.23295692386E+03  0.77183732696E+02 0.  0.
          5    1    3    3  501    0 -0.35624267855E+02 -0.70521469978E+01  0.54396409728E+02  0.65573475040E+02  0.47000000000E+01 0. -1.
        -11    1    4    4    0    0  0.57822161726E+01 -0.97713041978E+02  0.18525234011E+01  0.97901503765E+02  0.00000000000E+00 0.  1.
         12    1    4    4    0    0 -0.50763415012E+02 -0.63148705746E+02 -0.40634840855E+02  0.90641456477E+02  0.00000000000E+00 0. -1.
         -5    1    5    5    0  502  0.79920660231E+02  0.14098588393E+02  0.85280716084E+02  0.11781753971E+03  0.47000000000E+01 0.  1.
         11    1    6    6    0    0 -0.24686854595E+02  0.62786633238E+02  0.10578637277E+03  0.12546855689E+03  0.00000000000E+00 0. -1.
        -12    1    6    6    0    0  0.25371661058E+02  0.91028673091E+02  0.51223124907E+02  0.10748836697E+03  0.00000000000E+00 0.  1.
</event>
<event>
12    1  0.1061634E+000  0.3116206E+03  0.7818608E-02  0.1079641E+00
         21   -1    0    0  501  502  0.00000000000E+00  0.00000000000E+00  0.55825396411E+02  0.55825396411E+02  0.00000000000E+00 0.  1.
         21   -1    0    0  502  503 -0.00000000000E+00 -0.00000000000E+00 -0.18228057456E+04  0.18228057456E+04  0.00000000000E+00 0.  1.
         -6    2    1    2    0  503 -0.25664560774E+03  0.41420997444E+02 -0.67798454691E+03  0.74592675563E+03  0.17076595655E+03 0.  0.
        -24    2    3    3    0    0 -0.21526100295E+03  0.10126760902E+02 -0.63956196277E+03  0.68119345874E+03  0.92440106744E+02 0.  0.
          6    2    1    2  501    0  0.25664560774E+03 -0.41420997444E+02 -0.10889958023E+04  0.11327043864E+04  0.17182753719E+03 0.  0.
         24    2    5    5    0    0  0.37114522626E+02 -0.78205242964E+00 -0.32335977403E+03  0.33516690203E+03  0.79982556608E+02 0.  0.
          5    1    5    5  501    0  0.21953108511E+03 -0.40638945015E+02 -0.76563602822E+03  0.79753748432E+03  0.47000000000E+01 0. -1.
        -11    1    6    6    0    0  0.46992508819E+02  0.18435747701E+02 -0.29614873939E+03  0.30042012004E+03  0.00000000000E+00 0.  1.
         12    1    6    6    0    0 -0.98779861928E+01 -0.19217800130E+02 -0.27211034635E+02  0.34746781995E+02  0.00000000000E+00 0. -1.
         -5    1    3    3    0  503 -0.41384604786E+02  0.31294236542E+02 -0.38422584141E+02  0.64733296889E+02  0.47000000000E+01 0.  1.
         11    1    4    4    0    0 -0.73795760034E+02  0.25011556297E+02 -0.12469606320E+03  0.14703911155E+03  0.00000000000E+00 0. -1.
        -12    1    4    4    0    0 -0.14146524292E+03 -0.14884795395E+02 -0.51486589957E+03  0.53415434719E+03  0.00000000000E+00 0.  1.
</event>
<event>
12    1  0.1061634E+000  0.2905685E+03  0.7818608E-02  0.1090179E+00
         21   -1    0    0  501  502  0.00000000000E+00  0.00000000000E+00  0.82397708292E+03  0.82397708292E+03  0.00000000000E+00 0.  1.
         21   -1    0    0  502  503 -0.00000000000E+00 -0.00000000000E+00 -0.10523362496E+03  0.10523362496E+03  0.00000000000E+00 0. -1.
         -6    2    1    2    0  503  0.22898091523E+03 -0.47099547638E+02  0.27893254351E+03  0.40208294532E+03  0.17092894476E+03 0.  0.
        -24    2    3    3    0    0  0.20621904615E+03 -0.28907666088E+02  0.29414889912E+03  0.36887639902E+03  0.78640159912E+02 0.  0.
          6    2    1    2  501    0 -0.22898091523E+03  0.47099547638E+02  0.43981091445E+03  0.52712776256E+03  0.17256711931E+03 0.  0.
         24    2    5    5    0    0 -0.16441661540E+03  0.98321070651E+02  0.32741378468E+03  0.38767383464E+03  0.79945977468E+02 0.  0.
          5    1    5    5  501    0 -0.64564299830E+02 -0.51221523013E+02  0.11239712976E+03  0.13945392792E+03  0.47000000000E+01 0. -1.
        -11    1    6    6    0    0 -0.11733377499E+03  0.53113697538E+02  0.27604161842E+03  0.30461000430E+03  0.00000000000E+00 0.  1.
         12    1    6    6    0    0 -0.47082840410E+02  0.45207373113E+02  0.51372166263E+02  0.83063830344E+02  0.00000000000E+00 0. -1.
         -5    1    3    3    0  503  0.22761869086E+02 -0.18191881550E+02 -0.15216355611E+02  0.33206546293E+02  0.47000000000E+01 0.  1.
         11    1    4    4    0    0  0.61361009550E+02  0.22485130083E+02  0.59575269656E+02  0.88430579115E+02  0.00000000000E+00 0. -1.
        -12    1    4    4    0    0  0.14485803660E+03 -0.51392796171E+02  0.23457362946E+03  0.28044581991E+03  0.00000000000E+00 0.  1.
</event>
<event>
12    1  0.1061634E+000  0.2898066E+03  0.7818608E-02  0.1090474E+00
         21   -1    0    0  503  502  0.00000000000E+00  0.00000000000E+00  0.46394936112E+03  0.46394936112E+03  0.00000000000E+00 0.  1.
         21   -1    0    0  501  503 -0.00000000000E+00 -0.00000000000E+00 -0.25587453109E+03  0.25587453109E+03  0.00000000000E+00 0.  1.
          6    2    1    2  501    0 -0.55448997235E+02  0.22706077307E+03  0.29886564105E+03  0.41630344944E+03  0.17133798368E+03 0.  0.
         24    2    3    3    0    0 -0.29352911894E+02  0.30087363345E+02  0.11647615080E+03  0.14654884621E+03  0.78377469659E+02 0.  0.
         -6    2    1    2    0  502  0.55448997235E+02 -0.22706077307E+03 -0.90790811025E+02  0.30352044278E+03  0.17102778095E+03 0.  0.
        -24    2    5    5    0    0 -0.27416873179E+02 -0.16792381805E+03 -0.60519920856E+02  0.19720793778E+03  0.79235196081E+02 0.  0.
          5    1    3    3  501    0 -0.26096085341E+02  0.19697340972E+03  0.18238949025E+03  0.26975460323E+03  0.47000000000E+01 0. -1.
        -13    1    4    4    0    0 -0.49150169856E+02  0.42951576972E+02  0.83234763116E+02  0.10577619275E+03  0.00000000000E+00 0.  1.
         14    1    4    4    0    0  0.19797257962E+02 -0.12864213627E+02  0.33241387683E+02  0.40772653460E+02  0.00000000000E+00 0. -1.
         -5    1    5    5    0  502  0.82865870414E+02 -0.59136955017E+02 -0.30270890169E+02  0.10631250500E+03  0.47000000000E+01 0.  1.
         11    1    6    6    0    0 -0.53536259806E+01 -0.10630466257E+03 -0.74957576883E+02  0.13018441123E+03  0.00000000000E+00 0. -1.
        -12    1    6    6    0    0 -0.22063247199E+02 -0.61619155478E+02  0.14437656027E+02  0.67023526543E+02  0.00000000000E+00 0.  1.
</event>
<event>
12    1  0.1061634E+000  0.1913971E+03  0.7818608E-02  0.1161066E+00
         21   -1    0    0  503  502  0.00000000000E+00  0.00000000000E+00  0.58864474184E+02  0.58864474184E+02  0.00000000000E+00 0. -1.
         21   -1    0    0  501  503 -0.00000000000E+00 -0.00000000000E+00 -0.57014180263E+03  0.57014180263E+03  0.00000000000E+00 0. -1.
          6    2    1    2  501    0  0.23562111619E+02 -0.46525258492E+01 -0.27314220749E+03  0.33352586692E+03  0.18988422602E+03 0.  0.
         24    2    3    3    0    0  0.13506615211E+02 -0.22027042305E+02 -0.29288338746E+03  0.30498132248E+03  0.81026595420E+02 0.  0.
         -6    2    1    2    0  502 -0.23562111619E+02  0.46525258492E+01 -0.23813512095E+03  0.29548040989E+03  0.17327295721E+03 0.  0.
        -24    2    5    5    0    0  0.47836506905E+02  0.40503224499E+02 -0.11327974622E+03  0.14717670151E+03  0.69998842675E+02 0.  0.
          5    1    3    3  501    0  0.10055496409E+02  0.17374516455E+02  0.19741179974E+02  0.28544544433E+02  0.47000000000E+01 0. -1.
        -13    1    4    4    0    0 -0.13367023821E+02  0.25948937526E+02 -0.12316732705E+03  0.12657888899E+03  0.00000000000E+00 0.  1.
         14    1    4    4    0    0  0.26873639032E+02 -0.47975979831E+02 -0.16971606041E+03  0.17840243349E+03  0.00000000000E+00 0. -1.
         -5    1    5    5    0  502 -0.71398618524E+02 -0.35850698650E+02 -0.12485537473E+03  0.14830370838E+03  0.47000000000E+01 0.  1.
         13    1    6    6    0    0 -0.14424643283E+02  0.26437237637E+02 -0.35118216523E+02  0.46263235938E+02  0.00000000000E+00 0. -1.
        -14    1    6    6    0    0  0.62261150187E+02  0.14065986862E+02 -0.78161529701E+02  0.10091346557E+03  0.00000000000E+00 0.  1.
</event>
<event>
12    1  0.1061634E+000  0.1985035E+03  0.7818608E-02  0.1151534E+00
         21   -1    0    0  503  502  0.00000000000E+00  0.00000000000E+00  0.66310407573E+02  0.66310407573E+02  0.00000000000E+00 0.  1.
         21   -1    0    0  501  503 -0.00000000000E+00 -0.00000000000E+00 -0.64812417278E+03  0.64812417278E+03  0.00000000000E+00 0. -1.
          6    2    1    2  501    0  0.35860644740E+02 -0.93040754603E+02 -0.17948604241E+03  0.26580194335E+03  0.16879829919E+03 0.  0.
         24    2    3    3    0    0  0.62145708491E+02 -0.11292242181E+03 -0.17541602207E+03  0.23226330395E+03  0.81005549983E+02 0.  0.
         -6    2    1    2    0  502 -0.35860644740E+02  0.93040754603E+02 -0.40232772281E+03  0.44863263701E+03  0.17164229838E+03 0.  0.
        -24    2    5    5    0    0 -0.35370419206E+02 -0.14836811997E+02 -0.21112836357E+03  0.22904872442E+03  0.80105772005E+02 0.  0.
          5    1    3    3  501    0 -0.26285063751E+02  0.19881667209E+02 -0.40700203309E+01  0.33538639401E+02  0.47000000000E+01 0. -1.
        -13    1    4    4    0    0  0.48448694577E+02 -0.33868104927E+02 -0.30255734557E+02  0.66405828141E+02  0.00000000000E+00 0.  1.
         14    1    4    4    0    0  0.13697013914E+02 -0.79054316884E+02 -0.14516028752E+03  0.16585747580E+03  0.00000000000E+00 0. -1.
         -5    1    5    5    0  502 -0.49022553410E+00  0.10787756660E+03 -0.19119935923E+03  0.21958391259E+03  0.47000000000E+01 0.  1.
         13    1    6    6    0    0 -0.33798767567E+02 -0.37893411925E+02 -0.72533114412E+02  0.88539934734E+02  0.00000000000E+00 0. -1.
        -14    1    6    6    0    0 -0.15716516388E+01  0.23056599928E+02 -0.13859524916E+03  0.14050878969E+03  0.00000000000E+00 0.  1.
</event>
<event>
12    1  0.1061634E+000  0.3017975E+03  0.7818608E-02  0.1084421E+00
         21   -1    0    0  501  502  0.00000000000E+00  0.00000000000E+00  0.64281494579E+02  0.64281494579E+02  0.00000000000E+00 0. -1.
         21   -1    0    0  502  503 -0.00000000000E+00 -0.00000000000E+00 -0.14638260965E+04  0.14638260965E+04  0.00000000000E+00 0. -1.
         -6    2    1    2    0  503 -0.22884318024E+02 -0.24663488859E+03 -0.55959401230E+03  0.63578864809E+03  0.17242182624E+03 0.  0.
        -24    2    3    3    0    0  0.11700791501E+02 -0.10552168498E+03 -0.39425769294E+03  0.41563584994E+03  0.77732212093E+02 0.  0.
          6    2    1    2  501    0  0.22884318024E+02  0.24663488859E+03 -0.83995058958E+03  0.89231894294E+03  0.17135822921E+03 0.  0.
         24    2    5    5    0    0  0.10738135305E+01  0.21582280642E+03 -0.50400855712E+03  0.55422986934E+03  0.81027684014E+02 0.  0.
          5    1    5    5  501    0  0.21810504493E+02  0.30812082171E+02 -0.33594203246E+03  0.33808907360E+03  0.47000000000E+01 0. -1.
        -13    1    6    6    0    0 -0.38071032126E+02  0.12063459263E+03 -0.25060786294E+03  0.28072479298E+03  0.00000000000E+00 0.  1.
         14    1    6    6    0    0  0.39144845656E+02  0.95188213784E+02 -0.25340069418E+03  0.27350507636E+03  0.00000000000E+00 0. -1.
         -5    1    3    3    0  503 -0.34585109525E+02 -0.14111320361E+03 -0.16533631936E+03  0.22015279815E+03  0.47000000000E+01 0.  1.
         11    1    4    4    0    0  0.44176461386E+02 -0.52755275443E+02 -0.23038181331E+03  0.24043805591E+03  0.00000000000E+00 0. -1.
        -12    1    4    4    0    0 -0.32475669885E+02 -0.52766409540E+02 -0.16387587963E+03  0.17519779403E+03  0.00000000000E+00 0.  1.
</event>
<event>
12    1  0.1061634E+000  0.8503419E+03  0.7818608E-02  0.9489922E-01
         21   -1    0    0  503  502  0.00000000000E+00  0.00000000000E+00  0.63335323551E+03  0.63335323551E+03  0.00000000000E+00 0.  1.
         21   -1    0    0  501  503 -0.00000000000E+00 -0.00000000000E+00 -0.11659912459E+04  0.11659912459E+04  0.00000000000E+00 0. -1.
          6    2    1    2  501    0 -0.47876529267E+03  0.68153682496E+03 -0.39673524067E+03  0.93833909447E+03  0.17138481780E+03 0.  0.
         24    2    3    3    0    0 -0.10981471163E+03  0.12253008208E+03 -0.92477342955E+02  0.20267067177E+03  0.73827165257E+02 0.  0.
         -6    2    1    2    0  502  0.47876529267E+03 -0.68153682496E+03 -0.13590276975E+03  0.86100538698E+03  0.17073975618E+03 0.  0.
        -24    2    5    5    0    0  0.40118812933E+03 -0.50596584697E+03 -0.15196524662E+03  0.66833084858E+03  0.81359286929E+02 0.  0.
          5    1    3    3  501    0 -0.36895058104E+03  0.55900674288E+03 -0.30425789772E+03  0.73566842269E+03  0.47000000000E+01 0. -1.
        -13    1    4    4    0    0 -0.97399489147E+02  0.11555796444E+03 -0.52103574231E+02  0.15985958238E+03  0.00000000000E+00 0.  1.
         14    1    4    4    0    0 -0.12415222485E+02  0.69721176451E+01 -0.40373768724E+02  0.42811089391E+02  0.00000000000E+00 0. -1.
         -5    1    5    5    0  502  0.77577163339E+02 -0.17557097799E+03  0.16062476865E+02  0.19267453840E+03  0.47000000000E+01 0.  1.
         11    1    6    6    0    0  0.29338344222E+03 -0.39013836831E+03 -0.80608694413E+02  0.49475201082E+03  0.00000000000E+00 0. -1.
        -12    1    6    6    0    0  0.10780468711E+03 -0.11582747866E+03 -0.71356552204E+02  0.17357883776E+03  0.00000000000E+00 0.  1.
</event>
<event>
12    1  0.1061634E+000  0.1964508E+03  0.7818608E-02  0.1152949E+00
         21   -1    0    0  501  502  0.00000000000E+00  0.00000000000E+00  0.17853373577E+03  0.17853373577E+03  0.00000000000E+00 0. -1.
         21   -1    0    0  502  503 -0.00000000000E+00 -0.00000000000E+00 -0.26698503957E+03  0.26698503957E+03  0.00000000000E+00 0. -1.
         -6    2    1    2    0  503 -0.33369074752E+01 -0.95134363632E+02  0.53757072849E+02  0.20367309454E+03  0.17184651426E+03 0.  0.
        -24    2    3    3    0    0  0.11177797444E+02 -0.10174909176E+03 -0.17367837333E+02  0.13063013365E+03  0.79276536333E+02 0.  0.
          6    2    1    2  501    0  0.33369074752E+01  0.95134363632E+02 -0.14220837665E+03  0.24184568080E+03  0.17089303332E+03 0.  0.
         24    2    5    5    0    0 -0.15415071487E+01 -0.89646221523E+01 -0.99713425530E+01  0.73414326955E+02  0.72162975516E+02 0.  0.
          5    1    5    5  501    0  0.48784146239E+01  0.10409898578E+03 -0.13223703410E+03  0.16843135385E+03  0.47000000000E+01 0. -1.
        -13    1    6    6    0    0 -0.11725415278E+02  0.14236760624E+02  0.24478910694E+02  0.30649433686E+02  0.00000000000E+00 0.  1.
         14    1    6    6    0    0  0.10183908129E+02 -0.23201382777E+02 -0.34450253247E+02  0.42764893269E+02  0.00000000000E+00 0. -1.
         -5    1    3    3    0  503 -0.14514704919E+02  0.66147281301E+01  0.71124910182E+02  0.73042960890E+02  0.47000000000E+01 0.  1.
         11    1    4    4    0    0  0.18315446986E+02 -0.30102893277E+02  0.28449032620E+02  0.45287826609E+02  0.00000000000E+00 0. -1.
        -12    1    4    4    0    0 -0.71376495425E+01 -0.71646198485E+02 -0.45816869953E+02  0.85342307038E+02  0.00000000000E+00 0.  1.
</event>
<event>
12    1  0.1061634E+000  0.1859906E+03  0.7818608E-02  0.1162731E+00
         21   -1    0    0  503  502  0.00000000000E+00  0.00000000000E+00  0.93294210668E+03  0.93294210668E+03  0.00000000000E+00 0. -1.
         21   -1    0    0  501  503 -0.00000000000E+00 -0.00000000000E+00 -0.37577668736E+02  0.37577668736E+02  0.00000000000E+00 0. -1.
          6    2    1    2  501    0 -0.42102811656E+02 -0.45408795764E+02  0.52424271932E+03  0.55540069812E+03  0.17264096046E+03 0.  0.
         24    2    3    3    0    0 -0.91663160978E+02 -0.21912289838E+02  0.30650482110E+03  0.33081174840E+03  0.81295288879E+02 0.  0.
         -6    2    1    2    0  502  0.42102811656E+02  0.45408795764E+02  0.37112171863E+03  0.41511907730E+03  0.17537933978E+03 0.  0.
        -24    2    5    5    0    0 -0.21206183396E+01 -0.19928305422E+02  0.82724704016E+02  0.11608801439E+03  0.78939318785E+02 0.  0.
          5    1    3    3  501    0  0.49560349322E+02 -0.23496505926E+02  0.21773789822E+03  0.22458894972E+03  0.47000000000E+01 0. -1.
        -11    1    4    4    0    0  0.62714397142E+01 -0.13132019147E+02  0.81664606224E+01  0.16687479200E+02  0.00000000000E+00 0.  1.
         12    1    4    4    0    0 -0.97934600692E+02 -0.87802706904E+01  0.29833836048E+03  0.31412426920E+03  0.00000000000E+00 0. -1.
         -5    1    5    5    0  502  0.44223429996E+02  0.65337101186E+02  0.28839701461E+03  0.29903106291E+03  0.47000000000E+01 0.  1.
         13    1    6    6    0    0 -0.37608063562E+02 -0.72134871135E+01  0.62527348532E+02  0.73321689531E+02  0.00000000000E+00 0. -1.
        -14    1    6    6    0    0  0.35487445223E+02 -0.12714818309E+02  0.20197355485E+02  0.42766324855E+02  0.00000000000E+00 0.  1.
</event>
<event>
12    1  0.1061634E+000  0.3440094E+03  0.7818608E-02  0.1065148E+00
         21   -1    0    0  501  502  0.00000000000E+00  0.00000000000E+00  0.96511051861E+02  0.96511051861E+02  0.00000000000E+00 0. -1.
         21   -1    0    0  502  503 -0.00000000000E+00 -0.00000000000E+00 -0.12278034294E+04  0.12278034294E+04  0.00000000000E+00 0. -1.
         -6    2    1    2    0  503  0.10775216546E+03  0.27742831533E+03 -0.53218740193E+03  0.63369227205E+03  0.17252670976E+03 0.  0.
        -24    2    3    3    0    0  0.44679378227E+02  0.25542844651E+03 -0.46685285457E+03  0.54013553100E+03  0.80962126391E+02 0.  0.
          6    2    1    2  501    0 -0.10775216546E+03 -0.27742831533E+03 -0.59910497565E+03  0.69062220924E+03  0.17162536162E+03 0.  0.
         24    2    5    5    0    0 -0.54555720987E+02 -0.21278267887E+03 -0.53859332603E+03  0.58721684306E+03  0.80548462449E+02 0.  0.
          5    1    5    5  501    0 -0.53196444470E+02 -0.64645636456E+02 -0.60511649613E+02  0.10340536619E+03  0.47000000000E+01 0. -1.
        -13    1    6    6    0    0 -0.20990400595E+02 -0.15232254112E+03 -0.27893874775E+03  0.31851150442E+03  0.00000000000E+00 0.  1.
         14    1    6    6    0    0 -0.33565320392E+02 -0.60460137752E+02 -0.25965457828E+03  0.26870533864E+03  0.00000000000E+00 0. -1.
         -5    1    3    3    0  503  0.63072787231E+02  0.21999868823E+02 -0.65334547360E+02  0.93556741051E+02  0.47000000000E+01 0.  1.
         13    1    4    4    0    0 -0.22672416623E+02  0.77271274857E+02 -0.15639523705E+03  0.17591008660E+03  0.00000000000E+00 0. -1.
        -14    1    4    4    0    0  0.67351794850E+02  0.17815717165E+03 -0.31045761751E+03  0.36422544441E+03  0.00000000000E+00 0.  1.
</event>
<event>
12    1  0.1061634E+000  0.2605984E+03  0.7818608E-02  0.1107417E+00
         21   -1    0    0  501  502  0.00000000000E+00  0.00000000000E+00  0.23392941793E+03  0.23392941793E+03  0.00000000000E+00 0. -1.
         21   -1    0    0  502  503 -0.00000000000E+00 -0.00000000000E+00 -0.86262170747E+03  0.86262170747E+03  0.00000000000E+00 0. -1.
         -6    2    1    2    0  503 -0.93577975304E+01  0.18983614393E+03  0.13488665022E+03  0.28972752911E+03  0.17211130934E+03 0.  0.
        -24    2    3    3    0    0  0.87061130749E+01  0.24793148833E+02  0.20071984045E+02  0.87811723234E+02  0.81348125731E+02 0.  0.
          6    2    1    2  501    0  0.93577975304E+01 -0.18983614393E+03 -0.76357893976E+03  0.80682359629E+03  0.17828681491E+03 0.  0.
         24    2    5    5    0    0 -0.35198832295E+02 -0.38679139980E+02 -0.19242444188E+03  0.21430922216E+03  0.78525430310E+02 0.  0.
          5    1    5    5  501    0  0.44556629825E+02 -0.15115700395E+03 -0.57115449788E+03  0.59251437413E+03  0.47000000000E+01 0. -1.
        -11    1    6    6    0    0  0.17111603054E+02  0.21972279316E+01 -0.94118702831E+02  0.95686806782E+02  0.00000000000E+00 0.  1.
         12    1    6    6    0    0 -0.52310435349E+02 -0.40876367912E+02 -0.98305739052E+02  0.11862241538E+03  0.00000000000E+00 0. -1.
         -5    1    3    3    0  503 -0.18063910605E+02  0.16504299509E+03  0.11481466617E+03  0.20191580588E+03  0.47000000000E+01 0.  1.
         13    1    4    4    0    0 -0.31215336445E+02  0.23913318424E+02  0.26427718016E+02  0.47377930590E+02  0.00000000000E+00 0. -1.
        -14    1    4    4    0    0  0.39921449520E+02  0.87983040919E+00 -0.63557339707E+01  0.40433792645E+02  0.00000000000E+00 0.  1.
</event>
<event>
12    1  0.1061634E+000  0.2759037E+03  0.7818608E-02  0.1098077E+00
         21   -1    0    0  503  502  0.00000000000E+00  0.00000000000E+00  0.64956915393E+03  0.64956915393E+03  0.00000000000E+00 0. -1.
         21   -1    0    0  501  503 -0.00000000000E+00 -0.00000000000E+00 -0.11823933655E+03  0.11823933655E+03  0.00000000000E+00 0. -1.
          6    2    1    2  501    0  0.20525953359E+03 -0.63513880234E+02  0.30854003294E+03  0.41390794140E+03  0.17308189656E+03 0.  0.
         24    2    3    3    0    0  0.10204431588E+03  0.10246467397E+02  0.23053024032E+03  0.26490596895E+03  0.80702838777E+02 0.  0.
         -6    2    1    2    0  502 -0.20525953359E+03  0.63513880234E+02  0.22278978444E+03  0.35390054907E+03  0.17159493427E+03 0.  0.
        -24    2    5    5    0    0 -0.16856813125E+03  0.88682970107E+02  0.22942905980E+03  0.30866878956E+03  0.79742360843E+02 0.  0.
          5    1    3    3  501    0  0.10321521771E+03 -0.73760347631E+02  0.78009792622E+02  0.14900197245E+03  0.47000000000E+01 0. -1.
        -13    1    4    4    0    0  0.37119156252E+02 -0.32933822344E+02  0.63649043321E+02  0.80707305312E+02  0.00000000000E+00 0.  1.
         14    1    4    4    0    0  0.64925159629E+02  0.43180289741E+02  0.16688119700E+03  0.18419866364E+03  0.00000000000E+00 0. -1.
         -5    1    5    5    0  502 -0.36691402343E+02 -0.25169089873E+02 -0.66392753531E+01  0.45231759507E+02  0.47000000000E+01 0.  1.
         13    1    6    6    0    0 -0.68454033599E+02  0.30467364312E+01  0.44844935892E+02  0.81892036207E+02  0.00000000000E+00 0. -1.
        -14    1    6    6    0    0 -0.10011409765E+03  0.85636233676E+02  0.18458412390E+03  0.22677675336E+03  0.00000000000E+00 0.  1.
</event>
<event>
12    1  0.1061634E+000  0.2073977E+03  0.7818608E-02  0.1143671E+00
         21   -1    0    0  501  502  0.00000000000E+00  0.00000000000E+00  0.53881582383E+02  0.53881582383E+02  0.00000000000E+00 0. -1.
         21   -1    0    0  502  503 -0.00000000000E+00 -0.00000000000E+00 -0.84831249522E+03  0.84831249522E+03  0.00000000000E+00 0. -1.
         -6    2    1    2    0  503 -0.11290459546E+03 -0.26356258153E+02 -0.28697940585E+03  0.35399626752E+03  0.17179661818E+03 0.  0.
        -24    2    3    3    0    0 -0.14382958094E+03 -0.34002895441E+02 -0.27000255663E+03  0.31759394344E+03  0.78239293674E+02 0.  0.
          6    2    1    2  501    0  0.11290459546E+03  0.26356258153E+02 -0.50745150698E+03  0.54819781008E+03  0.17196426087E+03 0.  0.
         24    2    5    5    0    0  0.13014030640E+02 -0.31165775545E+02 -0.28265122573E+03  0.29552377945E+03  0.79384622301E+02 0.  0.
          5    1    5    5  501    0  0.99890564819E+02  0.57522033698E+02 -0.22480028125E+03  0.25267403062E+03  0.47000000000E+01 0. -1.
        -11    1    6    6    0    0  0.19730812591E+02  0.30603881367E+01 -0.23813592733E+03  0.23897152723E+03  0.00000000000E+00 0.  1.
         12    1    6    6    0    0 -0.67167819512E+01 -0.34226163682E+02 -0.44515298400E+02  0.56552252226E+02  0.00000000000E+00 0. -1.
         -5    1    3    3    0  503  0.30924985481E+02  0.76466372882E+01 -0.16976849225E+02  0.36402324080E+02  0.47000000000E+01 0.  1.
         13    1    4    4    0    0 -0.27132712864E+01 -0.24725801321E+02 -0.29438312748E+02  0.38540126485E+02  0.00000000000E+00 0. -1.
        -14    1    4    4    0    0 -0.14111630965E+03 -0.92770941201E+01 -0.24056424388E+03  0.27905381696E+03  0.00000000000E+00 0.  1.
</event>
<event>
12    1  0.1061634E+000  0.2903711E+03  0.7818608E-02  0.1090192E+00
         21   -1    0    0  501  502  0.00000000000E+00  0.00000000000E+00  0.15712862135E+03  0.15712862135E+03  0.00000000000E+00 0.  1.
         21   -1    0    0  502  503 -0.00000000000E+00 -0.00000000000E+00 -0.71765431637E+03  0.71765431637E+03  0.00000000000E+00 0.  1.
         -6    2    1    2    0  503  0.23236530037E+03 -0.21662988352E+02 -0.50016870718E+03  0.57820521861E+03  0.17230676513E+03 0.  0.
        -24    2    3    3    0    0  0.28984946843E+02 -0.10372391749E+02 -0.15241879350E+03  0.17516286570E+03  0.80640109476E+02 0.  0.
          6    2    1    2  501    0 -0.23236530037E+03  0.21662988352E+02 -0.60356987841E+02  0.29657771910E+03  0.17277864337E+03 0.  0.
         24    2    5    5    0    0 -0.24572983171E+03  0.31561782475E+02 -0.30215099597E+02  0.26183264391E+03  0.79145971919E+02 0.  0.
          5    1    5    5  501    0  0.13364531334E+02 -0.98987941235E+01 -0.30141888245E+02  0.34745075188E+02  0.47000000000E+01 0. -1.
        -11    1    6    6    0    0 -0.50041113969E+02  0.36865479343E+02  0.70623940041E+01  0.62554408825E+02  0.00000000000E+00 0.  1.
         12    1    6    6    0    0 -0.19568871774E+03 -0.53036968678E+01 -0.37277493601E+02  0.19927823509E+03  0.00000000000E+00 0. -1.
         -5    1    3    3    0  503  0.20338035353E+03 -0.11290596603E+02 -0.34774991368E+03  0.40304235291E+03  0.47000000000E+01 0.  1.
         13    1    4    4    0    0  0.48607188388E+02  0.11818441863E+02 -0.60024737245E+02  0.78136441001E+02  0.00000000000E+00 0. -1.
        -14    1    4    4    0    0 -0.19622241545E+02 -0.22190833612E+02 -0.92394056254E+02  0.97026424704E+02  0.00000000000E+00 0.  1.
</event>
<event>
12    1  0.1061634E+000  0.3012886E+03  0.7818608E-02  0.1085438E+00
         21   -1    0    0  503  502  0.00000000000E+00  0.00000000000E+00  0.65746784654E+03  0.65746784654E+03  0.00000000000E+00 0. -1.
         21   -1    0    0  501  503 -0.00000000000E+00 -0.00000000000E+00 -0.13504840501E+03  0.13504840501E+03  0.00000000000E+00 0. -1.
          6    2    1    2  501    0 -0.17788846203E+03 -0.16786723576E+03  0.26918321429E+03  0.40402276789E+03  0.17592919130E+03 0.  0.
         24    2    3    3    0    0 -0.54963874932E+02 -0.57030867644E+02  0.18966885755E+03  0.22033886130E+03  0.79381300464E+02 0.  0.
         -6    2    1    2    0  502  0.17788846203E+03  0.16786723576E+03  0.25323622725E+03  0.38849348366E+03  0.16424033089E+03 0.  0.
        -24    2    5    5    0    0  0.15228459609E+03  0.73277669439E+02  0.20992252477E+03  0.28125118403E+03  0.80464570261E+02 0.  0.
          5    1    3    3  501    0 -0.12292458710E+03 -0.11083636812E+03  0.79514356736E+02  0.18368390658E+03  0.47000000000E+01 0. -1.
        -11    1    4    4    0    0 -0.41104347032E+02 -0.15382221821E+02  0.26275977299E+02  0.51152781705E+02  0.00000000000E+00 0.  1.
         12    1    4    4    0    0 -0.13859527899E+02 -0.41648645823E+02  0.16339288025E+03  0.16918607960E+03  0.00000000000E+00 0. -1.
         -5    1    5    5    0  502  0.25603865942E+02  0.94589566320E+02  0.43313702479E+02  0.10724229963E+03  0.47000000000E+01 0.  1.
         11    1    6    6    0    0  0.60682149731E+02  0.33699857978E+01  0.30465692628E+02  0.67984104963E+02  0.00000000000E+00 0. -1.
        -12    1    6    6    0    0  0.91602446360E+02  0.69907683641E+02  0.17945683214E+03  0.21326707907E+03  0.00000000000E+00 0.  1.
</event>
<event>
12    1  0.1061634E+000  0.2098691E+03  0.7818608E-02  0.1141680E+00
         21   -1    0    0  501  502  0.00000000000E+00  0.00000000000E+00  0.31190893353E+03  0.31190893353E+03  0.00000000000E+00 0.  1.
         21   -1    0    0  502  503 -0.00000000000E+00 -0.00000000000E+00 -0.14414164725E+03  0.14414164725E+03  0.00000000000E+00 0. -1.
         -6    2    1    2    0  503 -0.11974201813E+03  0.79713026323E+01  0.51181228312E+02  0.21601979379E+03  0.17217241535E+03 0.  0.
        -24    2    3    3    0    0 -0.25073493119E+02 -0.43574038202E+02  0.43681071982E+02  0.10786530182E+03  0.84849928846E+02 0.  0.
          6    2    1    2  501    0  0.11974201813E+03 -0.79713026323E+01  0.11658605797E+03  0.24003078698E+03  0.17210687730E+03 0.  0.
         24    2    5    5    0    0  0.18006020410E+02 -0.21235156306E+02  0.10946049029E+03  0.13707930928E+03  0.77678758129E+02 0.  0.
          5    1    5    5  501    0  0.10173599772E+03  0.13263853674E+02  0.71255676809E+01  0.10295147770E+03  0.47000000000E+01 0. -1.
        -11    1    6    6    0    0  0.32748522933E+02  0.20158736663E+02  0.47395577085E+02  0.61034262061E+02  0.00000000000E+00 0.  1.
         12    1    6    6    0    0 -0.14742502523E+02 -0.41393892969E+02  0.62064913205E+02  0.76045047222E+02  0.00000000000E+00 0. -1.
         -5    1    3    3    0  503 -0.94668525007E+02  0.51545340835E+02  0.75001563295E+01  0.10815449197E+03  0.47000000000E+01 0.  1.
         11    1    4    4    0    0 -0.41850626811E+02 -0.32689132747E+02 -0.68277581865E+01  0.53541317186E+02  0.00000000000E+00 0. -1.
        -12    1    4    4    0    0  0.16777133691E+02 -0.10884905455E+02  0.50508830169E+02  0.54323984635E+02  0.00000000000E+00 0.  1.
</event>
<event>
12    1  0.1061634E+000  0.1864309E+03  0.7818608E-02  0.1161897E+00
         21   -1    0    0  501  502  0.00000000000E+00  0.00000000000E+00  0.13435637745E+03  0.13435637745E+03  0.00000000000E+00 0. -1.
         21   -1    0    0  502  503 -0.00000000000E+00 -0.00000000000E+00 -0.26715801973E+03  0.26715801973E+03  0.00000000000E+00 0. -1.
         -6    2    1    2    0  503 -0.69120619121E+02 -0.14541847059E+02 -0.10444081102E+03  0.21369224798E+03  0.17253222463E+03 0.  0.
        -24    2    3    3    0    0 -0.57430460656E+02 -0.22241875957E+01 -0.14132601851E+03  0.17281446585E+03  0.81170137851E+02 0.  0.
          6    2    1    2  501    0  0.69120619121E+02  0.14541847059E+02 -0.28360831263E+02  0.18782214921E+03  0.17170817592E+03 0.  0.
         24    2    5    5    0    0  0.25456178791E+01  0.61832626601E+02  0.92802161448E+00  0.10093961055E+03  0.79738258519E+02 0.  0.
          5    1    5    5  501    0  0.66575001242E+02 -0.47290779542E+02 -0.29288852877E+02  0.86882538654E+02  0.47000000000E+01 0. -1.
        -11    1    6    6    0    0  0.94333038700E+01  0.66226626237E+02 -0.26776867851E+02  0.72055214222E+02  0.00000000000E+00 0.  1.
         12    1    6    6    0    0 -0.68876859909E+01 -0.43939996358E+01  0.27704889466E+02  0.28884396331E+02  0.00000000000E+00 0. -1.
         -5    1    3    3    0  503 -0.11690158465E+02 -0.12317659463E+02  0.36885207490E+02  0.40877782121E+02  0.47000000000E+01 0.  1.
         13    1    4    4    0    0 -0.70988385309E+02  0.15635631676E+02 -0.12661273468E+03  0.14599523420E+03  0.00000000000E+00 0. -1.
        -14    1    4    4    0    0  0.13557924653E+02 -0.17859819272E+02 -0.14713283832E+02  0.26819231653E+02  0.00000000000E+00 0.  1.
</event>
<event>
12    1  0.1061634E+000  0.2015072E+03  0.7818608E-02  0.1148517E+00
         21   -1    0    0  501  502  0.00000000000E+00  0.00000000000E+00  0.70881321683E+02  0.70881321683E+02  0.00000000000E+00 0.  1.
         21   -1    0    0  502  503 -0.00000000000E+00 -0.00000000000E+00 -0.58298162498E+03  0.58298162498E+03  0.00000000000E+00 0.  1.
         -6    2    1    2    0  503 -0.53495421698E+02  0.91360713989E+02 -0.30049889284E+03  0.36180760367E+03  0.17145441747E+03 0.  0.
        -24    2    3    3    0    0 -0.58545156279E+02  0.97782898451E+01 -0.24106330685E+03  0.26063512405E+03  0.79347335849E+02 0.  0.
          6    2    1    2  501    0  0.53495421698E+02 -0.91360713989E+02 -0.21160141046E+03  0.29205534300E+03  0.17120930542E+03 0.  0.
         24    2    5    5    0    0 -0.16757688290E+02 -0.34579806717E+02 -0.17196717673E+03  0.19330042729E+03  0.79471769625E+02 0.  0.
          5    1    5    5  501    0  0.70253109989E+02 -0.56780907271E+02 -0.39634233726E+02  0.98754915709E+02  0.47000000000E+01 0. -1.
        -13    1    6    6    0    0  0.13794949107E+02 -0.83743229889E+01  0.55250586908E+00  0.16147296031E+02  0.00000000000E+00 0.  1.
         14    1    6    6    0    0 -0.30552637397E+02 -0.26205483729E+02 -0.17251968260E+03  0.17715313126E+03  0.00000000000E+00 0. -1.
         -5    1    3    3    0  503  0.50497345804E+01  0.81582424144E+02 -0.59435585992E+02  0.10117247961E+03  0.47000000000E+01 0.  1.
         13    1    4    4    0    0 -0.59886521400E+02  0.31737166331E+02 -0.12205450279E+03  0.13960997394E+03  0.00000000000E+00 0. -1.
        -14    1    4    4    0    0  0.13413651208E+01 -0.21958876486E+02 -0.11900880406E+03  0.12102515012E+03  0.00000000000E+00 0.  1.
</event>
<event>
12    1  0.1061634E+000  0.1950098E+03  0.7818608E-02  0.1155320E+00
         21   -1    0    0  501  502  0.00000000000E+00  0.00000000000E+00  0.91710833937E+03  0.91710833937E+03  0.00000000000E+00 0.  1.
         21   -1    0    0  502  503 -0.00000000000E+00 -0.00000000000E+00 -0.42620236565E+02  0.42620236565E+02  0.00000000000E+00 0.  1.
         -6    2    1    2    0  503  0.27205726033E+02  0.72320784998E+02  0.32984501157E+03  0.38317953710E+03  0.17904853678E+03 0.  0.
        -24    2    3    3    0    0  0.64282679765E+02 -0.81421825946E+01  0.15009629988E+03  0.18272834851E+03  0.81622252224E+02 0.  0.
          6    2    1    2  501    0 -0.27205726033E+02 -0.72320784998E+02  0.54464309124E+03  0.57654903884E+03  0.17263328149E+03 0.  0.
         24    2    5    5    0    0 -0.58030336256E+02 -0.54372039544E+02  0.52043116569E+03  0.53318290692E+03  0.84330157125E+02 0.  0.
          5    1    5    5  501    0  0.30824610222E+02 -0.17948745454E+02  0.24211925554E+02  0.43366131921E+02  0.47000000000E+01 0. -1.
        -13    1    6    6    0    0 -0.31381965894E+02 -0.60036255157E+02  0.47787825317E+03  0.48265598988E+03  0.00000000000E+00 0.  1.
         14    1    6    6    0    0 -0.26648370362E+02  0.56642156131E+01  0.42552912521E+02  0.50526917039E+02  0.00000000000E+00 0. -1.
         -5    1    3    3    0  503 -0.37076953732E+02  0.80462967593E+02  0.17974871169E+03  0.20045118858E+03  0.47000000000E+01 0.  1.
         13    1    4    4    0    0  0.51131283909E+02 -0.41076346726E+02  0.11747380496E+03  0.13454281589E+03  0.00000000000E+00 0. -1.
        -14    1    4    4    0    0  0.13151395856E+02  0.32934164131E+02  0.32622494919E+02  0.48185532629E+02  0.00000000000E+00 0.  1.
</event>
<event>
12    1  0.1061634E+000  0.1846095E+03  0.7818608E-02  0.1163893E+00
         21   -1    0    0  501  502  0.00000000000E+00  0.00000000000E+00  0.26076976247E+04  0.26076976247E+04  0.00000000000E+00 0.  1.
         21   -1    0    0  502  503 -0.00000000000E+00 -0.00000000000E+00 -0.15199922081E+02  0.15199922081E+02  0.00000000000E+00 0.  1.
         -6    2    1    2    0  503 -0.28486512989E+02  0.60876074078E+02  0.79509017872E+03  0.81624080495E+03  0.17193976140E+03 0.  0.
        -24    2    3    3    0    0 -0.53747258222E+02  0.96868428637E+02  0.66084729740E+03  0.67490151098E+03  0.80626539067E+02 0.  0.
          6    2    1    2  501    0  0.28486512989E+02 -0.60876074078E+02  0.17974075239E+04  0.18066567418E+04  0.16975687916E+03 0.  0.
         24    2    5    5    0    0  0.38167676343E+02 -0.79693722604E+02  0.17548996296E+04  0.17589404983E+04  0.79944390710E+02 0.  0.
          5    1    5    5  501    0 -0.96811633534E+01  0.18817648526E+02  0.42507894264E+02  0.47716243510E+02  0.47000000000E+01 0. -1.
        -11    1    6    6    0    0 -0.16174474092E+02 -0.56195127144E+02  0.73407889316E+03  0.73640432325E+03  0.00000000000E+00 0.  1.
         12    1    6    6    0    0  0.54342150435E+02 -0.23498595459E+02  0.10208207365E+04  0.10225361751E+04  0.00000000000E+00 0. -1.
         -5    1    3    3    0  503  0.25260745233E+02 -0.35992354559E+02  0.13424288132E+03  0.14133929398E+03  0.47000000000E+01 0.  1.
         11    1    4    4    0    0 -0.16425312183E+02  0.96550730632E+02  0.42647606888E+03  0.43757704669E+03  0.00000000000E+00 0. -1.
        -12    1    4    4    0    0 -0.37321946039E+02  0.31769800489E+00  0.23437122853E+03  0.23732446429E+03  0.00000000000E+00 0.  1.
</event>
<event>
12    1  0.1061634E+000  0.1833271E+03  0.7818608E-02  0.1164972E+00
         21   -1    0    0  501  502  0.00000000000E+00  0.00000000000E+00  0.14713923040E+04  0.14713923040E+04  0.00000000000E+00 0. -1.
         21   -1    0    0  502  503 -0.00000000000E+00 -0.00000000000E+00 -0.26372338672E+02  0.26372338672E+02  0.00000000000E+00 0. -1.
         -6    2    1    2    0  503 -0.50263050203E+02 -0.35983888590E+02  0.10010476432E+04  0.10174311743E+04  0.17102220951E+03 0.  0.
        -24    2    3    3    0    0 -0.91345778685E+02 -0.46300953313E+02  0.63997066059E+03  0.65384774545E+03  0.86409480125E+02 0.  0.
          6    2    1    2  501    0  0.50263050203E+02  0.35983888590E+02  0.44397232218E+03  0.48033346837E+03  0.17259085583E+03 0.  0.
         24    2    5    5    0    0  0.65937363003E+02 -0.17918223153E+02  0.37974943131E+03  0.39490635649E+03  0.84098758937E+02 0.  0.
          5    1    5    5  501    0 -0.15674312800E+02  0.53902111743E+02  0.64222890879E+02  0.85427111885E+02  0.47000000000E+01 0. -1.
        -13    1    6    6    0    0  0.51920129261E+02  0.28911993657E+02  0.21415537917E+03  0.22224790129E+03  0.00000000000E+00 0.  1.
         14    1    6    6    0    0  0.14017233743E+02 -0.46830216810E+02  0.16559405214E+03  0.17265845520E+03  0.00000000000E+00 0. -1.
         -5    1    3    3    0  503  0.41082728482E+02  0.10317064723E+02  0.36107698260E+03  0.36358342890E+03  0.47000000000E+01 0.  1.
         13    1    4    4    0    0  0.26525289475E+01  0.54112143645E+01  0.22978870374E+03  0.22986771309E+03  0.00000000000E+00 0. -1.
        -14    1    4    4    0    0 -0.93998307633E+02 -0.51712167678E+02  0.41018195685E+03  0.42398003237E+03  0.00000000000E+00 0.  1.
</event>
<event>
12    1  0.1061634E+000  0.2518277E+03  0.7818608E-02  0.1112628E+00
         21   -1    0    0  503  502  0.00000000000E+00  0.00000000000E+00  0.21843133054E+03  0.21843133054E+03  0.00000000000E+00 0. -1.
         21   -1    0    0  501  503 -0.00000000000E+00 -0.00000000000E+00 -0.40299065519E+03  0.40299065519E+03  0.00000000000E+00 0. -1.
          6    2    1    2  501    0  0.79698012811E+01 -0.18263237730E+03  0.74889969392E+02  0.25985440333E+03  0.16881261933E+03 0.  0.
         24    2    3    3    0    0 -0.22716899239E+02 -0.60145433925E+02  0.85155662520E+02  0.13307822520E+03  0.79528588764E+02 0.  0.
         -6    2    1    2    0  502 -0.79698012811E+01  0.18263237730E+03 -0.25944929404E+03  0.36156758239E+03  0.17320241768E+03 0.  0.
        -24    2    5    5    0    0  0.13993726536E+02  0.25137973337E+02 -0.79829277585E+02  0.12162524735E+03  0.87133490394E+02 0.  0.
          5    1    3    3  501    0  0.30686700520E+02 -0.12248694337E+03 -0.10265693128E+02  0.12677617813E+03  0.47000000000E+01 0. -1.
        -13    1    4    4    0    0  0.15137914356E+02 -0.61278292863E+02  0.42813767150E+02  0.76270599085E+02  0.00000000000E+00 0.  1.
         14    1    4    4    0    0 -0.37854813594E+02  0.11328589373E+01  0.42341895370E+02  0.56807626118E+02  0.00000000000E+00 0. -1.
         -5    1    5    5    0  502 -0.21963527817E+02  0.15749440396E+03 -0.17962001646E+03  0.23994233504E+03  0.47000000000E+01 0.  1.
         13    1    6    6    0    0  0.22074617928E+02  0.50439859833E+02 -0.24526028316E+02  0.60274325228E+02  0.00000000000E+00 0. -1.
        -14    1    6    6    0    0 -0.80808913922E+01 -0.25301886497E+02 -0.55303249269E+02  0.61350922126E+02  0.00000000000E+00 0.  1.
</event>
<event>
12    1  0.1061634E+000  0.2896014E+03  0.7818608E-02  0.1090979E+00
         21   -1    0    0  501  502  0.00000000000E+00  0.00000000000E+00  0.10245160746E+03  0.10245160746E+03  0.00000000000E+00 0.  1.
         21   -1    0    0  502  503 -0.00000000000E+00 -0.00000000000E+00 -0.91415196264E+03  0.91415196264E+03  0.00000000000E+00 0. -1.
         -6    2    1    2    0  503  0.19087798694E+03  0.12876937441E+03 -0.57976334359E+03  0.64806982782E+03  0.17565024757E+03 0.  0.
        -24    2    3    3    0    0  0.16031955231E+03  0.15292487136E+03 -0.40832724162E+03  0.47220131722E+03  0.84584706697E+02 0.  0.
          6    2    1    2  501    0 -0.19087798694E+03 -0.12876937441E+03 -0.23193701159E+03  0.36853374229E+03  0.17031260720E+03 0.  0.
         24    2    5    5    0    0 -0.90801333712E+02 -0.47067260215E+02 -0.36849009901E+02  0.13449957728E+03  0.79196449229E+02 0.  0.
          5    1    5    5  501    0 -0.10007665323E+03 -0.81702114198E+02 -0.19508800169E+03  0.23403416500E+03  0.47000000000E+01 0. -1.
        -13    1    6    6    0    0 -0.10054446471E+03 -0.32071590869E+02 -0.45144977412E+02  0.11478608500E+03  0.00000000000E+00 0.  1.
         14    1    6    6    0    0  0.97431310006E+01 -0.14995669346E+02  0.82959675114E+01  0.19713492278E+02  0.00000000000E+00 0. -1.
         -5    1    3    3    0  503  0.30558434639E+02 -0.24155496947E+02 -0.17143610197E+03  0.17586851060E+03  0.47000000000E+01 0.  1.
         13    1    4    4    0    0  0.25563907058E+02  0.49588411547E+02 -0.17459928546E+03  0.18329602938E+03  0.00000000000E+00 0. -1.
        -14    1    4    4    0    0  0.13475564525E+03  0.10333645981E+03 -0.23372795616E+03  0.28890528784E+03  0.00000000000E+00 0.  1.
</event>
<event>
12    1  0.1061634E+000  0.2508165E+03  0.7818608E-02  0.1112792E+00
         21   -1    0    0  501  502  0.00000000000E+00  0.00000000000E+00  0.31981119403E+03  0.31981119403E+03  0.00000000000E+00 0.  1.
         21   -1    0    0  502  503 -0.00000000000E+00 -0.00000000000E+00 -0.23521218233E+03  0.23521218233E+03  0.00000000000E+00 0.  1.
         -6    2    1    2    0  503  0.25970310811E+02  0.18020250464E+03  0.15459741695E+03  0.29463415833E+03  0.17251529267E+03 0.  0.
        -24    2    3    3    0    0  0.44138803203E+02  0.16917949186E+03  0.66104005487E+02  0.20350362119E+03  0.80461480743E+02 0.  0.
          6    2    1    2  501    0 -0.25970310811E+02 -0.18020250464E+03 -0.69998405255E+02  0.26038921804E+03  0.17249744465E+03 0.  0.
         24    2    5    5    0    0  0.38468173063E+02 -0.15809513710E+03 -0.55448046223E+02  0.19056904293E+03  0.82269080341E+02 0.  0.
          5    1    5    5  501    0 -0.64438483874E+02 -0.22107367535E+02 -0.14550359032E+02  0.69820175102E+02  0.47000000000E+01 0. -1.
        -13    1    6    6    0    0  0.67246958461E+01 -0.53414789856E+02 -0.60600387869E+02  0.81060275841E+02  0.00000000000E+00 0.  1.
         14    1    6    6    0    0  0.31743477217E+02 -0.10468034725E+03  0.51523416455E+01  0.10950876709E+03  0.00000000000E+00 0. -1.
         -5    1    3    3    0  503 -0.18168492393E+02  0.11023012784E+02  0.88493411464E+02  0.91130537139E+02  0.47000000000E+01 0.  1.
         11    1    4    4    0    0  0.30057829824E+02  0.15308453746E+03  0.82572545491E+02  0.17651224890E+03  0.00000000000E+00 0. -1.
        -12    1    4    4    0    0  0.14080973379E+02  0.16094954400E+02 -0.16468540003E+02  0.26991372294E+02  0.00000000000E+00 0.  1.
</event>
<event>
12    1  0.1061634E+000  0.1892587E+03  0.7818608E-02  0.1159237E+00
         21   -1    0    0  501  502  0.00000000000E+00  0.00000000000E+00  0.60330989192E+03  0.60330989192E+03  0.00000000000E+00 0. -1.
         21   -1    0    0  502  503 -0.00000000000E+00 -0.00000000000E+00 -0.17429816247E+03  0.17429816247E+03  0.00000000000E+00 0. -1.
         -6    2    1    2    0  503  0.11575508481E+02 -0.78227742341E+02 -0.10149922160E+03  0.21434902591E+03  0.17143465476E+03 0.  0.
        -24    2    3    3    0    0  0.43638205598E+02  0.93878682503E+01 -0.29132442564E+02  0.96181549523E+02  0.80061015487E+02 0.  0.
          6    2    1    2  501    0 -0.11575508481E+02  0.78227742341E+02  0.53051095106E+03  0.56325902849E+03  0.17194560740E+03 0.  0.
         24    2    5    5    0    0  0.51142554691E+02  0.62333907614E+02  0.41048375104E+03  0.42682300621E+03  0.84734242309E+02 0.  0.
          5    1    5    5  501    0 -0.62718063172E+02  0.15893834727E+02  0.12002720002E+03  0.13643602228E+03  0.47000000000E+01 0. -1.
        -11    1    6    6    0    0  0.92407060963E+01  0.11238661580E+02  0.41203493470E+01  0.15122018450E+02  0.00000000000E+00 0.  1.
         12    1    6    6    0    0  0.41901848594E+02  0.51095246034E+02  0.40636340170E+03  0.41170098776E+03  0.00000000000E+00 0. -1.
         -5    1    3    3    0  503 -0.32062697117E+02 -0.87615610592E+02 -0.72366779041E+02  0.11816747638E+03  0.47000000000E+01 0.  1.
         11    1    4    4    0    0 -0.20234973311E+01  0.37173292437E+02 -0.50991470920E+01  0.37575916664E+02  0.00000000000E+00 0. -1.
        -12    1    4    4    0    0  0.45661702929E+02 -0.27785424187E+02 -0.24033295472E+02  0.58605632859E+02  0.00000000000E+00 0.  1.
</event>
<event>
12    1  0.1061634E+000  0.2549253E+03  0.7818608E-02  0.1110279E+00
         21   -1    0    0  501  502  0.00000000000E+00  0.00000000000E+00  0.40782933789E+03  0.40782933789E+03  0.00000000000E+00 0.  1.
         21   -1    0    0  502  503 -0.00000000000E+00 -0.00000000000E+00 -0.21468200583E+03  0.21468200583E+03  0.00000000000E+00 0.  1.
         -6    2    1    2    0  503  0.80543362812E+02  0.16931055843E+03  0.25482958558E+03  0.36022977182E+03  0.17226163916E+03 0.  0.
        -24    2    3    3    0    0  0.75928733975E+02  0.71138839194E+02  0.21861199066E+03  0.25538328671E+03  0.81262005785E+02 0.  0.
          6    2    1    2  501    0 -0.80543362812E+02 -0.16931055843E+03 -0.61682253518E+02  0.26228157190E+03  0.17272412707E+03 0.  0.
         24    2    5    5    0    0 -0.26148239644E+02 -0.30455700683E+02 -0.68645728201E+02  0.11291597705E+03  0.80165464713E+02 0.  0.
          5    1    5    5  501    0 -0.54395123168E+02 -0.13885485775E+03  0.69634746836E+01  0.14936559485E+03  0.47000000000E+01 0. -1.
        -11    1    6    6    0    0  0.25010516490E+02 -0.66939221710E+01 -0.25404135513E+01  0.26015153856E+02  0.00000000000E+00 0.  1.
         12    1    6    6    0    0 -0.51158756134E+02 -0.23761778512E+02 -0.66105314650E+02  0.86900823196E+02  0.00000000000E+00 0. -1.
         -5    1    3    3    0  503  0.46146288373E+01  0.98171719240E+02  0.36217594919E+02  0.10484648511E+03  0.47000000000E+01 0.  1.
         13    1    4    4    0    0  0.92391446024E+02  0.69217677662E+02  0.19166492672E+03  0.22374697838E+03  0.00000000000E+00 0. -1.
        -14    1    4    4    0    0 -0.16462712049E+02  0.19211615321E+01  0.26947063938E+02  0.31636308326E+02  0.00000000000E+00 0.  1.
</event>
<event>
12    1  0.1061634E+000  0.2142080E+03  0.7818608E-02  0.1138292E+00
         21   -1    0    0  503  502  0.00000000000E+00  0.00000000000E+00  0.51747926106E+03  0.51747926106E+03  0.00000000000E+00 0.  1.
         21   -1    0    0  501  503 -0.00000000000E+00 -0.00000000000E+00 -0.10912372178E+03  0.10912372178E+03  0.00000000000E+00 0.  1.
          6    2    1    2  501    0  0.10485465896E+03  0.71803846489E+02  0.33989822670E+03  0.40172192191E+03  0.17233515647E+03 0.  0.
         24    2    3    3    0    0 -0.76408548750E+01  0.10094009488E+01  0.13080489793E+03  0.15391311600E+03  0.80746048825E+02 0.  0.
         -6    2    1    2    0  502 -0.10485465896E+03 -0.71803846489E+02  0.68457312584E+02  0.22488106092E+03  0.17243780340E+03 0.  0.
        -24    2    5    5    0    0 -0.11385950965E+03 -0.28883505211E+02 -0.59224298815E-01  0.14339579319E+03  0.82244180256E+02 0.  0.
          5    1    3    3  501    0  0.11249551383E+03  0.70794445540E+02  0.20909332877E+03  0.24780880591E+03  0.47000000000E+01 0. -1.
        -13    1    4    4    0    0  0.71249068112E+01  0.39342190608E+02  0.67288566694E+02  0.78270834074E+02  0.00000000000E+00 0.  1.
         14    1    4    4    0    0 -0.14765761686E+02 -0.38332789660E+02  0.63516331238E+02  0.75642281928E+02  0.00000000000E+00 0. -1.
         -5    1    5    5    0  502  0.90048506899E+01 -0.42920341278E+02  0.68516536883E+02  0.81485267735E+02  0.47000000000E+01 0.  1.
         11    1    6    6    0    0 -0.66132683643E+02 -0.57508886924E+02  0.26063211426E+01  0.87678941776E+02  0.00000000000E+00 0. -1.
        -12    1    6    6    0    0 -0.47726826005E+02  0.28625381714E+02 -0.26655454414E+01  0.55716851412E+02  0.00000000000E+00 0.  1.
</event>
<event>
12    1  0.1061634E+000  0.2005200E+03  0.7818608E-02  0.1149471E+00
         21   -1    0    0  503  502  0.00000000000E+00  0.00000000000E+00  0.91623374033E+02  0.91623374033E+02  0.00000000000E+00 0. -1.
         21   -1    0    0  501  503 -0.00000000000E+00 -0.00000000000E+00 -0.10337060999E+04  0.10337060999E+04  0.00000000000E+00 0. -1.
          6    2    1    2  501    0  0.12893443870E+01  0.10196493900E+03 -0.43975534127E+02  0.20528548335E+03  0.17265506329E+03 0.  0.
         24    2    3    3    0    0 -0.29330369402E+02  0.94905677263E+02  0.25108832938E+02  0.12924510052E+03  0.78781243774E+02 0.  0.
         -6    2    1    2    0  502 -0.12893443870E+01 -0.10196493900E+03 -0.89810719171E+03  0.92004399055E+03  0.17171460495E+03 0.  0.
        -24    2    5    5    0    0  0.12004029431E+02 -0.34877392819E+02 -0.20031059084E+03  0.21888806009E+03  0.80169325761E+02 0.  0.
          5    1    3    3  501    0  0.30619713789E+02  0.70592617397E+01 -0.69084367065E+02  0.76040382835E+02  0.47000000000E+01 0. -1.
        -13    1    4    4    0    0  0.51335759344E+01 -0.32178543899E+01  0.24505524856E+02  0.25243393932E+02  0.00000000000E+00 0.  1.
         14    1    4    4    0    0 -0.34463945336E+02  0.98123531653E+02  0.60330808185E+00  0.10400170659E+03  0.00000000000E+00 0. -1.
         -5    1    5    5    0  502 -0.13293373818E+02 -0.67087546184E+02 -0.69779660087E+03  0.70115593046E+03  0.47000000000E+01 0.  1.
         13    1    6    6    0    0  0.21316605414E+02  0.74723851651E+01 -0.11858946492E+02  0.25512130808E+02  0.00000000000E+00 0. -1.
        -14    1    6    6    0    0 -0.93125759828E+01 -0.42349777984E+02 -0.18845164435E+03  0.19337592928E+03  0.00000000000E+00 0.  1.
</event>
<event>
12    1  0.1061634E+000  0.2415573E+03  0.7818608E-02  0.1118849E+00
         21   -1    0    0  503  502  0.00000000000E+00  0.00000000000E+00  0.86084812598E+03  0.86084812598E+03  0.00000000000E+00 0. -1.
         21   -1    0    0  501  503 -0.00000000000E+00 -0.00000000000E+00 -0.72731277390E+02  0.72731277390E+02  0.00000000000E+00 0. -1.
          6    2    1    2  501    0  0.65461284717E+02 -0.15470687620E+03  0.51808834117E+03  0.57163400690E+03  0.17358142541E+03 0.  0.
         24    2    3    3    0    0 -0.28573592481E+02 -0.58132682776E+02  0.17773363399E+03  0.20552944579E+03  0.80357012396E+02 0.  0.
         -6    2    1    2    0  502 -0.65461284717E+02  0.15470687620E+03  0.27002850742E+03  0.36194539647E+03  0.17282846371E+03 0.  0.
        -24    2    5    5    0    0 -0.75670372788E+01  0.11908093464E+03  0.87156702661E+02  0.16679125592E+03  0.77366033797E+02 0.  0.
          5    1    3    3  501    0  0.94034877198E+02 -0.96574193420E+02  0.34035470719E+03  0.36610456112E+03  0.47000000000E+01 0. -1.
        -11    1    4    4    0    0  0.31540807827E+01  0.12782217894E+02  0.19055482282E+01  0.13302797974E+02  0.00000000000E+00 0.  1.
         12    1    4    4    0    0 -0.31727673264E+02 -0.70914900670E+02  0.17582808576E+03  0.19222664781E+03  0.00000000000E+00 0. -1.
         -5    1    5    5    0  502 -0.57894247438E+02  0.35625941554E+02  0.18287180476E+03  0.19515414055E+03  0.47000000000E+01 0.  1.
         13    1    6    6    0    0 -0.31366681445E+02  0.13801314433E+02  0.21451576200E+02  0.40429136850E+02  0.00000000000E+00 0. -1.
        -14    1    6    6    0    0  0.23799644166E+02  0.10527962021E+03  0.65705126461E+02  0.12636211907E+03  0.00000000000E+00 0.  1.
</event>
<event>
12    1  0.1061634E+000  0.1735984E+03  0.7818608E-02  0.1174172E+00
         21   -1    0    0  503  502  0.00000000000E+00  0.00000000000E+00  0.28162339305E+03  0.28162339305E+03  0.00000000000E+00 0. -1.
         21   -1    0    0  501  503 -0.00000000000E+00 -0.00000000000E+00 -0.17095329415E+03  0.17095329415E+03  0.00000000000E+00 0. -1.
          6    2    1    2  501    0  0.50660600758E+02  0.25043807169E+02 -0.83138004468E+02  0.19238830908E+03  0.16403549901E+03 0.  0.
         24    2    3    3    0    0  0.65855801663E+02  0.36411395976E+02 -0.43683132589E+01  0.11122877200E+03  0.81792305198E+02 0.  0.
         -6    2    1    2    0  502 -0.50660600758E+02 -0.25043807169E+02  0.19380810337E+03  0.26018837812E+03  0.16414238462E+03 0.  0.
        -24    2    5    5    0    0 -0.78780356037E+02  0.14072520934E+02  0.86402952001E+02  0.14238021074E+03  0.80014210938E+02 0.  0.
          5    1    3    3  501    0 -0.15195200905E+02 -0.11367588807E+02 -0.78769691210E+02  0.81159537080E+02  0.47000000000E+01 0. -1.
        -11    1    4    4    0    0  0.18758418088E+02  0.44293757374E+02 -0.30339312751E+02  0.56870810524E+02  0.00000000000E+00 0.  1.
         12    1    4    4    0    0  0.47097383575E+02 -0.78823613978E+01  0.25970999492E+02  0.54357961472E+02  0.00000000000E+00 0. -1.
         -5    1    5    5    0  502  0.28119755278E+02 -0.39116328103E+02  0.10740515137E+03  0.11780816738E+03  0.47000000000E+01 0.  1.
         11    1    6    6    0    0 -0.42875201036E+02  0.28186155875E+02  0.40878495949E+01  0.51472835177E+02  0.00000000000E+00 0. -1.
        -12    1    6    6    0    0 -0.35905155001E+02 -0.14113634940E+02  0.82315102407E+02  0.90907375559E+02  0.00000000000E+00 0.  1.
</event>
<event>
12    1  0.1061634E+000  0.1820181E+03  0.7818608E-02  0.1166890E+00
         21   -1    0    0  501  502  0.00000000000E+00  0.00000000000E+00  0.13153460944E+04  0.13153460944E+04  0.00000000000E+00 0. -1.
         21   -1    0    0  502  503 -0.00000000000E+00 -0.00000000000E+00 -0.28621684175E+02  0.28621684175E+02  0.00000000000E+00 0. -1.
         -6    2    1    2    0  503 -0.56930824531E+02 -0.93143432260E+01  0.39811820666E+03  0.43775416132E+03  0.17263465325E+03 0.  0.
        -24    2    3    3    0    0 -0.93531183833E+02 -0.15701490889E+02  0.19371223612E+03  0.22994590174E+03  0.79724953048E+02 0.  0.
          6    2    1    2  501    0  0.56930824531E+02  0.93143432260E+01  0.88860620354E+03  0.90621361723E+03  0.16814951477E+03 0.  0.
         24    2    5    5    0    0  0.22838760561E+01  0.61602847729E+02  0.44073291815E+03  0.45197475226E+03  0.78965464642E+02 0.  0.
          5    1    5    5  501    0  0.54646948475E+02 -0.52288504503E+02  0.44787328539E+03  0.45423886497E+03  0.47000000000E+01 0. -1.
        -13    1    6    6    0    0  0.71048729516E+01  0.40514246543E+02  0.74477476116E+02  0.85081007523E+02  0.00000000000E+00 0.  1.
         14    1    6    6    0    0 -0.48209968956E+01  0.21088601185E+02  0.36625544203E+03  0.36689374474E+03  0.00000000000E+00 0. -1.
         -5    1    3    3    0  503  0.36600359302E+02  0.63871476629E+01  0.20440597054E+03  0.20780825958E+03  0.47000000000E+01 0.  1.
         11    1    4    4    0    0 -0.68520442355E+02 -0.34240680832E+02  0.18058446020E+03  0.19615866667E+03  0.00000000000E+00 0. -1.
        -12    1    4    4    0    0 -0.25010741478E+02  0.18539189943E+02  0.13127775923E+02  0.33787235071E+02  0.00000000000E+00 0.  1.
</event>
<event>
12    1  0.1061634E+000  0.2191643E+03  0.7818608E-02  0.1134759E+00
         21   -1    0    0  503  502  0.00000000000E+00  0.00000000000E+00  0.50152716661E+03  0.50152716661E+03  0.00000000000E+00 0. -1.
         21   -1    0    0  501  503 -0.00000000000E+00 -0.00000000000E+00 -0.10610990564E+03  0.10610990564E+03  0.00000000000E+00 0. -1.
          6    2    1    2  501    0 -0.12117855957E+03 -0.54866931264E+02  0.99700345098E+02  0.23955895194E+03  0.17249263520E+03 0.  0.
         24    2    3    3    0    0 -0.99020834621E+02 -0.93525894569E+02  0.36768236347E+02  0.16230598740E+03  0.80244075786E+02 0.  0.
         -6    2    1    2    0  502  0.12117855957E+03  0.54866931264E+02  0.29571691587E+03  0.36807812031E+03  0.17417917462E+03 0.  0.
        -24    2    5    5    0    0  0.51587168709E+02  0.91353108864E+02  0.13540799977E+03  0.18948573128E+03  0.81011662630E+02 0.  0.
          5    1    3    3  501    0 -0.22157724951E+02  0.38658963305E+02  0.62932108750E+02  0.77252964542E+02  0.47000000000E+01 0. -1.
        -13    1    4    4    0    0 -0.71380467619E+02 -0.98048128283E+02  0.50182775357E+02  0.13125135260E+03  0.00000000000E+00 0.  1.
         14    1    4    4    0    0 -0.27640367002E+02  0.45222337138E+01 -0.13414539010E+02  0.31054634801E+02  0.00000000000E+00 0. -1.
         -5    1    5    5    0  502  0.69591390863E+02 -0.36486177599E+02  0.16030891611E+03  0.17859238904E+03  0.47000000000E+01 0.  1.
         13    1    6    6    0    0  0.25493631384E+02  0.95498676393E+02  0.12860893266E+03  0.16220413063E+03  0.00000000000E+00 0. -1.
        -14    1    6    6    0    0  0.26093537325E+02 -0.41455675298E+01  0.67990671089E+01  0.27281600647E+02  0.00000000000E+00 0.  1.
</event>
<event>
12    1  0.1061634E+000  0.3007978E+03  0.7818608E-02  0.1084886E+00
         21   -1    0    0  501  502  0.00000000000E+00  0.00000000000E+00  0.54448763622E+03  0.54448763622E+03  0.00000000000E+00 0. -1.
         21   -1    0    0  502  503 -0.00000000000E+00 -0.00000000000E+00 -0.23991323878E+03  0.23991323878E+03  0.00000000000E+00 0. -1.
         -6    2    1    2    0  503  0.22022067357E+03 -0.10970225268E+03 -0.65494294728E+02  0.30750448310E+03  0.17244644146E+03 0.  0.
        -24    2    3    3    0    0  0.57798706033E+02  0.26936365098E+01  0.31516158004E+01  0.98344060271E+02  0.79458639630E+02 0.  0.
          6    2    1    2  501    0 -0.22022067357E+03  0.10970225268E+03  0.37006869218E+03  0.47689639190E+03  0.17305375571E+03 0.  0.
         24    2    5    5    0    0 -0.12759983400E+03  0.13451447268E+03  0.27899841057E+03  0.34457045954E+03  0.80702090961E+02 0.  0.
          5    1    5    5  501    0 -0.92620839573E+02 -0.24812220001E+02  0.91070281603E+02  0.13232593236E+03  0.47000000000E+01 0. -1.
        -11    1    6    6    0    0 -0.66259945425E+02  0.62581609646E+02  0.20556858097E+03  0.22486724909E+03  0.00000000000E+00 0.  1.
         12    1    6    6    0    0 -0.61339888573E+02  0.71932863034E+02  0.73429829606E+02  0.11970321044E+03  0.00000000000E+00 0. -1.
         -5    1    3    3    0  503  0.16242196754E+03 -0.11239588919E+03 -0.68645910529E+02  0.20916042283E+03  0.47000000000E+01 0.  1.
         13    1    4    4    0    0 -0.45069956242E+01 -0.20695113744E+01  0.29946190811E+02  0.30354080960E+02  0.00000000000E+00 0. -1.
        -14    1    4    4    0    0  0.62305701657E+02  0.47631478842E+01 -0.26794575010E+02  0.67989979311E+02  0.00000000000E+00 0.  1.
</event>
<event>
12    1  0.1061634E+000  0.2959435E+03  0.7818608E-02  0.1087453E+00
         21   -1    0    0  501  502  0.00000000000E+00  0.00000000000E+00  0.57337798709E+03  0.57337798709E+03  0.00000000000E+00 0.  1.
         21   -1    0    0  502  503 -0.00000000000E+00 -0.00000000000E+00 -0.18275955446E+03  0.18275955446E+03  0.00000000000E+00 0. -1.
         -6    2    1    2    0  503  0.20519826690E+03  0.12403468793E+03  0.35058110280E+03  0.45879150627E+03  0.17346931728E+03 0.  0.
        -24    2    3    3    0    0  0.20053118603E+03  0.15214004865E+03  0.33252754400E+03  0.42473693345E+03  0.80421042917E+02 0.  0.
          6    2    1    2  501    0 -0.20519826690E+03 -0.12403468793E+03  0.40037329827E+02  0.29734603528E+03  0.17123301192E+03 0.  0.
         24    2    5    5    0    0 -0.32596263185E+02 -0.19715989029E+02 -0.22411787519E+01  0.91231006925E+02  0.82866381274E+02 0.  0.
          5    1    5    5  501    0 -0.17260200371E+03 -0.10431869890E+03  0.42278508579E+02  0.20611502836E+03  0.47000000000E+01 0. -1.
        -11    1    6    6    0    0  0.40756467266E+01 -0.37863616130E+02 -0.23874709952E+02  0.44947370312E+02  0.00000000000E+00 0.  1.
         12    1    6    6    0    0 -0.36671909912E+02  0.18147627101E+02  0.21633531200E+02  0.46283636613E+02  0.00000000000E+00 0. -1.
         -5    1    3    3    0  503  0.46670808726E+01 -0.28105360716E+02  0.18053558803E+02  0.34054572825E+02  0.47000000000E+01 0.  1.
         11    1    4    4    0    0  0.14309687106E+03  0.13401295126E+03  0.20474600405E+03  0.28347329996E+03  0.00000000000E+00 0. -1.
        -12    1    4    4    0    0  0.57434314966E+02  0.18127097383E+02  0.12778153995E+03  0.14126363349E+03  0.00000000000E+00 0.  1.
</event>
<event>
12    1  0.1061634E+000  0.1810868E+03  0.7818608E-02  0.1167471E+00
         21   -1    0    0  501  502  0.00000000000E+00  0.00000000000E+00  0.91020741233E+03  0.91020741233E+03  0.00000000000E+00 0.  1.
         21   -1    0    0  502  503 -0.00000000000E+00 -0.00000000000E+00 -0.36871225572E+02  0.36871225572E+02  0.00000000000E+00 0.  1.
         -6    2    1    2    0  503 -0.21574015616E+02  0.43560271554E+02  0.33998450242E+03  0.38382340888E+03  0.17137097745E+03 0.  0.
        -24    2    3    3    0    0  0.43613701749E+02  0.25857587081E+02  0.27054337559E+03  0.28683380311E+03  0.80679258420E+02 0.  0.
          6    2    1    2  501    0  0.21574015616E+02 -0.43560271554E+02  0.53335168434E+03  0.56325522902E+03  0.17444052976E+03 0.  0.
         24    2    5    5    0    0  0.68609734849E+02 -0.69038313787E+02  0.41333446372E+03  0.43177248199E+03  0.78156975538E+02 0.  0.
          5    1    5    5  501    0 -0.47035719233E+02  0.25478042232E+02  0.12001722063E+03  0.13148274703E+03  0.47000000000E+01 0. -1.
        -11    1    6    6    0    0  0.16381118658E+02 -0.62568975599E+02  0.29888244294E+03  0.30580047818E+03  0.00000000000E+00 0.  1.
         12    1    6    6    0    0  0.52228616190E+02 -0.64693381879E+01  0.11445202078E+03  0.12597200382E+03  0.00000000000E+00 0. -1.
         -5    1    3    3    0  503 -0.65187717365E+02  0.17702684473E+02  0.69441126827E+02  0.96989605772E+02  0.47000000000E+01 0.  1.
         13    1    4    4    0    0  0.48587581195E+02 -0.58838612099E+01  0.81397196115E+02  0.94978294386E+02  0.00000000000E+00 0. -1.
        -14    1    4    4    0    0 -0.49738794463E+01  0.31741448291E+02  0.18914617948E+03  0.19185550872E+03  0.00000000000E+00 0.  1.
</event>
<event>
12    1  0.1061634E+000  0.3104144E+03  0.7818608E-02  0.1080264E+00
         21   -1    0    0  501  502  0.00000000000E+00  0.00000000000E+00  0.69867465387E+03  0.69867465387E+03  0.00000000000E+00 0.  1.
         21   -1    0    0  502  503 -0.00000000000E+00 -0.00000000000E+00 -0.22901809019E+03  0.22901809019E+03  0.00000000000E+00 0.  1.
         -6    2    1    2    0  503  0.25776071129E+03  0.27226792528E+01 -0.58643443264E+02  0.31494647438E+03  0.17118478618E+03 0.  0.
        -24    2    3    3    0    0  0.11280400884E+03  0.45488883508E+02 -0.73594271648E+02  0.16300236926E+03  0.79747555647E+02 0.  0.
          6    2    1    2  501    0 -0.25776071129E+03 -0.27226792528E+01  0.52830000694E+03  0.61274626969E+03  0.17294246563E+03 0.  0.
         24    2    5    5    0    0 -0.12367976702E+03  0.59057026738E+02  0.29994223814E+03  0.34078341881E+03  0.85927732052E+02 0.  0.
          5    1    5    5  501    0 -0.13408094427E+03 -0.61779705991E+02  0.22835776880E+03  0.27196285088E+03  0.47000000000E+01 0. -1.
        -13    1    6    6    0    0  0.16414564281E+01  0.26849622121E+02  0.24167553363E+02  0.36161681692E+02  0.00000000000E+00 0.  1.
         14    1    6    6    0    0 -0.12532122345E+03  0.32207404617E+02  0.27577468478E+03  0.30462173711E+03  0.00000000000E+00 0. -1.
         -5    1    3    3    0  503  0.14495670245E+03 -0.42766204255E+02  0.14950828384E+02  0.15194410512E+03  0.47000000000E+01 0.  1.
         11    1    4    4    0    0  0.12305625743E+03  0.51678303592E+02 -0.67489796920E+02  0.14956056380E+03  0.00000000000E+00 0. -1.
        -12    1    4    4    0    0 -0.10252248596E+02 -0.61894200845E+01 -0.61044747276E+01  0.13441805458E+02  0.00000000000E+00 0.  1.
</event>
<event>
12    1  0.1061634E+000  0.2800126E+03  0.7818608E-02  0.1095888E+00
         21   -1    0    0  503  502  0.00000000000E+00  0.00000000000E+00  0.12625159600E+04  0.12625159600E+04  0.00000000000E+00 0. -1.
         21   -1    0    0  501  503 -0.00000000000E+00 -0.00000000000E+00 -0.13822261705E+03  0.13822261705E+03  0.00000000000E+00 0. -1.
          6    2    1    2  501    0  0.18314115614E+03  0.12265471235E+03  0.40599537515E+02  0.28145340635E+03  0.17024346086E+03 0.  0.
         24    2    3    3    0    0  0.62910147949E+02  0.93313918222E+02 -0.27444754052E+02  0.14014348757E+03  0.78878441500E+02 0.  0.
         -6    2    1    2    0  502 -0.18314115614E+03 -0.12265471235E+03  0.10836938054E+04  0.11192851707E+04  0.17269096065E+03 0.  0.
        -24    2    5    5    0    0 -0.19117604347E+03 -0.14709972939E+03  0.98454914000E+03  0.10167479923E+04  0.79075032554E+02 0.  0.
          5    1    3    3  501    0  0.12023100819E+03  0.29340794124E+02  0.68044291567E+02  0.14130991878E+03  0.47000000000E+01 0. -1.
        -11    1    4    4    0    0  0.78248824246E+02  0.64953609622E+02 -0.34025699728E+02  0.10723617925E+03  0.00000000000E+00 0.  1.
         12    1    4    4    0    0 -0.15338676297E+02  0.28360308600E+02  0.65809456764E+01  0.32907308313E+02  0.00000000000E+00 0. -1.
         -5    1    5    5    0  502  0.80348873266E+01  0.24445017047E+02  0.99144665430E+02  0.10253717841E+03  0.47000000000E+01 0.  1.
         11    1    6    6    0    0 -0.78271038984E+02 -0.56004824318E+02  0.24743857971E+03  0.26549716876E+03  0.00000000000E+00 0. -1.
        -12    1    6    6    0    0 -0.11290500448E+03 -0.91094905075E+02  0.73711056029E+03  0.75125082354E+03  0.00000000000E+00 0.  1.
</event>
<event>
12    1  0.1061634E+000  0.5322067E+03  0.7818608E-02  0.1005732E+00
         21   -1    0    0  503  502  0.00000000000E+00  0.00000000000E+00  0.54401779641E+03  0.54401779641E+03  0.00000000000E+00 0. -1.
         21   -1    0    0  501  503 -0.00000000000E+00 -0.00000000000E+00 -0.58255521522E+03  0.58255521522E+03  0.00000000000E+00 0. -1.
          6    2    1    2  501    0  0.23877229496E+03  0.44372290018E+03 -0.20370641790E+03  0.56985984240E+03  0.17129423314E+03 0.  0.
         24    2    3    3    0    0  0.21096815189E+03  0.44962324587E+03 -0.18735739479E+03  0.53673485172E+03  0.79453655214E+02 0.  0.
         -6    2    1    2    0  502 -0.23877229496E+03 -0.44372290018E+03  0.16516899909E+03  0.55671316923E+03  0.16954802728E+03 0.  0.
        -24    2    5    5    0    0 -0.73099130898E+02 -0.22385381295E+03  0.30959581952E+02  0.25040569224E+03  0.79312688049E+02 0.  0.
          5    1    3    3  501    0  0.27804143063E+02 -0.59003456960E+01 -0.16349023111E+02  0.33124990679E+02  0.47000000000E+01 0. -1.
        -11    1    4    4    0    0  0.11111464467E+03  0.24072252897E+03 -0.57594912898E+02  0.27131342430E+03  0.00000000000E+00 0.  1.
         12    1    4    4    0    0  0.99853507225E+02  0.20890071691E+03 -0.12976248189E+03  0.26542142743E+03  0.00000000000E+00 0. -1.
         -5    1    5    5    0  502 -0.16567316406E+03 -0.21986908723E+03  0.13420941714E+03  0.30630747699E+03  0.47000000000E+01 0.  1.
         11    1    6    6    0    0  0.16790014191E+02 -0.27209461618E+02  0.81174203112E+01  0.32987147354E+02  0.00000000000E+00 0. -1.
        -12    1    6    6    0    0 -0.89889145089E+02 -0.19664435133E+03  0.22842161641E+02  0.21741854489E+03  0.00000000000E+00 0.  1.
</event>
<event>
12    1  0.1061634E+000  0.2060631E+03  0.7818608E-02  0.1144818E+00
         21   -1    0    0  503  502  0.00000000000E+00  0.00000000000E+00  0.18793360249E+03  0.18793360249E+03  0.00000000000E+00 0.  1.
         21   -1    0    0  501  503 -0.00000000000E+00 -0.00000000000E+00 -0.26378391801E+03  0.26378391801E+03  0.00000000000E+00 0.  1.
          6    2    1    2  501    0  0.20447795278E+02  0.11148597780E+03  0.48164673056E+02  0.21161719775E+03  0.17208941593E+03 0.  0.
         24    2    3    3    0    0  0.98369524476E+01 -0.12696710582E+02  0.22820295966E+02  0.84344429531E+02  0.79594250998E+02 0.  0.
         -6    2    1    2    0  502 -0.20447795278E+02 -0.11148597780E+03 -0.12401498857E+03  0.24010032275E+03  0.17152612634E+03 0.  0.
        -24    2    5    5    0    0  0.38307356455E+02 -0.11365614085E+03 -0.71395091987E+02  0.16105716378E+03  0.80355329230E+02 0.  0.
          5    1    3    3  501    0  0.10610842831E+02  0.12418268838E+03  0.25344377090E+02  0.12727276822E+03  0.47000000000E+01 0. -1.
        -13    1    4    4    0    0  0.39186173201E+02 -0.43010010787E+01 -0.88015631490E+01  0.40392106831E+02  0.00000000000E+00 0.  1.
         14    1    4    4    0    0 -0.29349220753E+02 -0.83957095029E+01  0.31621859115E+02  0.43952322700E+02  0.00000000000E+00 0. -1.
         -5    1    5    5    0  502 -0.58755151734E+02  0.21701630469E+01 -0.52619896585E+02  0.79043158967E+02  0.47000000000E+01 0.  1.
         11    1    6    6    0    0 -0.85360903453E+01  0.32486681554E+01 -0.25380188590E+02  0.26973554754E+02  0.00000000000E+00 0. -1.
        -12    1    6    6    0    0  0.46843446801E+02 -0.11690480900E+03 -0.46014903397E+02  0.13408360903E+03  0.00000000000E+00 0.  1.
</event>
<event>
12    1  0.1061634E+000  0.1869525E+03  0.7818608E-02  0.1163366E+00
         21   -1    0    0  501  502  0.00000000000E+00  0.00000000000E+00  0.13042398653E+03  0.13042398653E+03  0.00000000000E+00 0. -1.
         21   -1    0    0  502  503 -0.00000000000E+00 -0.00000000000E+00 -0.25896473240E+03  0.25896473240E+03  0.00000000000E+00 0. -1.
         -6    2    1    2    0  503 -0.48438902572E+02  0.57162193867E+02 -0.89163650948E+02  0.20712647472E+03  0.17128156990E+03 0.  0.
        -24    2    3    3    0    0  0.22181188404E+02  0.17383290003E+02 -0.10068018511E+03  0.12512477351E+03  0.68742456897E+02 0.  0.
          6    2    1    2  501    0  0.48438902572E+02 -0.57162193867E+02 -0.39377094926E+02  0.18226224421E+03  0.16141600407E+03 0.  0.
         24    2    5    5    0    0  0.29733793902E+02 -0.91855646760E+02  0.40159706199E+00  0.12606659402E+03  0.81062115109E+02 0.  0.
          5    1    5    5  501    0  0.18705108670E+02  0.34693452893E+02 -0.39778691988E+02  0.56195650190E+02  0.47000000000E+01 0. -1.
        -13    1    6    6    0    0  0.10387453895E+02 -0.76576265201E+02 -0.33436137926E+02  0.84200943641E+02  0.00000000000E+00 0.  1.
         14    1    6    6    0    0  0.19346340008E+02 -0.15279381558E+02  0.33837734988E+02  0.41865650378E+02  0.00000000000E+00 0. -1.
         -5    1    3    3    0  503 -0.70620090976E+02  0.39778903864E+02  0.11516534166E+02  0.82001701209E+02  0.47000000000E+01 0.  1.
         13    1    4    4    0    0  0.16533364603E+02  0.43208000449E+02 -0.51054470246E+02  0.68897332169E+02  0.00000000000E+00 0. -1.
        -14    1    4    4    0    0  0.56478238001E+01 -0.25824710446E+02 -0.49625714868E+02  0.56227441338E+02  0.00000000000E+00 0.  1.
</event>
<event>
12    1  0.1061634E+000  0.2181128E+03  0.7818608E-02  0.1135486E+00
         21   -1    0    0  501  502  0.00000000000E+00  0.00000000000E+00  0.62068435950E+02  0.62068435950E+02  0.00000000000E+00 0. -1.
         21   -1    0    0  502  503 -0.00000000000E+00 -0.00000000000E+00 -0.76398578544E+03  0.76398578544E+03  0.00000000000E+00 0. -1.
         -6    2    1    2    0  503  0.12897119301E+03  0.30261957927E+02 -0.36524616576E+03  0.42490504118E+03  0.17201795748E+03 0.  0.
        -24    2    3    3    0    0  0.11729272116E+03  0.59254945293E+02 -0.36202486545E+03  0.39313324871E+03  0.78886101831E+02 0.  0.
          6    2    1    2  501    0 -0.12897119301E+03 -0.30261957927E+02 -0.33667118373E+03  0.40114918021E+03  0.17327384138E+03 0.  0.
         24    2    5    5    0    0 -0.82245119142E+02 -0.52532208554E+02 -0.10531798243E+03  0.16402962430E+03  0.79309190309E+02 0.  0.
          5    1    5    5  501    0 -0.46726073865E+02  0.22270250627E+02 -0.23135320130E+03  0.23711955591E+03  0.47000000000E+01 0. -1.
        -11    1    6    6    0    0 -0.94978682278E+02 -0.41490765655E+02 -0.10445957441E+03  0.14715378489E+03  0.00000000000E+00 0.  1.
         12    1    6    6    0    0  0.12733563137E+02 -0.11041442899E+02 -0.85840801776E+00  0.16875839409E+02  0.00000000000E+00 0. -1.
         -5    1    3    3    0  503  0.11678471843E+02 -0.28992987367E+02 -0.32213003140E+01  0.31771792470E+02  0.47000000000E+01 0.  1.
         13    1    4    4    0    0  0.70974786974E+02 -0.76098460990E+01 -0.15271716641E+03  0.16857598601E+03  0.00000000000E+00 0. -1.
        -14    1    4    4    0    0  0.46317934189E+02  0.66864791393E+02 -0.20930769904E+03  0.22455726270E+03  0.00000000000E+00 0.  1.
</event>
<event>
12    1  0.1061634E+000  0.2084562E+03  0.7818608E-02  0.1143857E+00
         21   -1    0    0  503  502  0.00000000000E+00  0.00000000000E+00  0.68853923756E+03  0.68853923756E+03  0.00000000000E+00 0.  1.
         21   -1    0    0  501  503 -0.00000000000E+00 -0.00000000000E+00 -0.85600568071E+02  0.85600568071E+02  0.00000000000E+00 0.  1.
          6    2    1    2  501    0 -0.10801535742E+03  0.13653207973E+02  0.50394228478E+03  0.54337097498E+03  0.17158223258E+03 0.  0.
         24    2    3    3    0    0 -0.66626424034E+02  0.36597504600E+01  0.48582181162E+03  0.49685909964E+03  0.79960353273E+02 0.  0.
         -6    2    1    2    0  502  0.10801535742E+03 -0.13653207973E+02  0.98996384710E+02  0.23076883065E+03  0.17776456758E+03 0.  0.
        -24    2    5    5    0    0  0.10760743957E+03  0.48788307998E+02  0.53684803506E+02  0.15347498416E+03  0.81931999785E+02 0.  0.
          5    1    3    3  501    0 -0.41388933389E+02  0.99934575128E+01  0.18120473157E+02  0.46511875339E+02  0.47000000000E+01 0. -1.
        -13    1    4    4    0    0  0.78385644309E+01  0.24497347984E+02  0.92559061598E+02  0.96066347045E+02  0.00000000000E+00 0.  1.
         14    1    4    4    0    0 -0.74464988465E+02 -0.20837597524E+02  0.39326275002E+03  0.40079275259E+03  0.00000000000E+00 0. -1.
         -5    1    5    5    0  502  0.40791785583E+00 -0.62441515971E+02  0.45311581203E+02  0.77293846487E+02  0.47000000000E+01 0.  1.
         11    1    6    6    0    0  0.51394491956E+02  0.12355822701E+02  0.66833290960E+02  0.85210028392E+02  0.00000000000E+00 0. -1.
        -12    1    6    6    0    0  0.56212947612E+02  0.36432485297E+02 -0.13148487454E+02  0.68264955771E+02  0.00000000000E+00 0.  1.
</event>
<event>
12    1  0.1061634E+000  0.1840279E+03  0.7818608E-02  0.1167715E+00
         21   -1    0    0  503  502  0.00000000000E+00  0.00000000000E+00  0.19664301719E+02  0.19664301719E+02  0.00000000000E+00 0.  1.
         21   -1    0    0  501  503 -0.00000000000E+00 -0.00000000000E+00 -0.17399560453E+04  0.17399560453E+04  0.00000000000E+00 0.  1.
          6    2    1    2  501    0  0.10964609874E+02  0.14516116339E+02 -0.11584251319E+04  0.11729514287E+04  0.18312653440E+03 0.  0.
         24    2    3    3    0    0  0.15723829450E+02  0.75953911457E+02 -0.53103389448E+03  0.54252371071E+03  0.79490528457E+02 0.  0.
         -6    2    1    2    0  502 -0.10964609874E+02 -0.14516116339E+02 -0.56186661164E+03  0.58666891827E+03  0.16779567956E+03 0.  0.
        -24    2    5    5    0    0 -0.66356393332E+02  0.14599713502E+02 -0.34085365355E+03  0.35691949200E+03  0.81203374718E+02 0.  0.
          5    1    3    3  501    0 -0.47592195769E+01 -0.61437795118E+02 -0.62739123741E+03  0.63042771800E+03  0.47000000000E+01 0. -1.
        -11    1    4    4    0    0  0.45069773979E+02  0.65574780637E+02 -0.40074459305E+03  0.40856769970E+03  0.00000000000E+00 0.  1.
         12    1    4    4    0    0 -0.29345944529E+02  0.10379130820E+02 -0.13028930144E+03  0.13395601101E+03  0.00000000000E+00 0. -1.
         -5    1    5    5    0  502  0.55391783459E+02 -0.29115829841E+02 -0.22101295809E+03  0.22974942626E+03  0.47000000000E+01 0.  1.
         13    1    6    6    0    0 -0.49507880018E+01  0.28243345710E+02 -0.38012723606E+02  0.47614745980E+02  0.00000000000E+00 0. -1.
        -14    1    6    6    0    0 -0.61405605331E+02 -0.13643632208E+02 -0.30284092994E+03  0.30930474603E+03  0.00000000000E+00 0.  1.
</event>
<event>
12    1  0.1061634E+000  0.2126026E+03  0.7818608E-02  0.1139644E+00
         21   -1    0    0  501  502  0.00000000000E+00  0.00000000000E+00  0.13203626065E+04  0.13203626065E+04  0.00000000000E+00 0. -1.
         21   -1    0    0  502  503 -0.00000000000E+00 -0.00000000000E+00 -0.57242597006E+02  0.57242597006E+02  0.00000000000E+00 0. -1.
         -6    2    1    2    0  503 -0.45047155905E+02 -0.11567873738E+03  0.10686677849E+04  0.10894879593E+04  0.17182072768E+03 0.  0.
        -24    2    3    3    0    0 -0.10712355276E+02 -0.23393753269E+01  0.25868814780E+03  0.27088317553E+03  0.79610990046E+02 0.  0.
          6    2    1    2  501    0  0.45047155905E+02  0.11567873738E+03  0.19445222458E+03  0.28811724418E+03  0.17259508166E+03 0.  0.
         24    2    5    5    0    0  0.84080757509E+02  0.31421515162E+02  0.11966741232E+03  0.16879516033E+03  0.78196107194E+02 0.  0.
          5    1    5    5  501    0 -0.39033601605E+02  0.84257222220E+02  0.74784812260E+02  0.11932208385E+03  0.47000000000E+01 0. -1.
        -11    1    6    6    0    0  0.75995987340E+02  0.55180356305E+02  0.92838069755E+02  0.13205744587E+03  0.00000000000E+00 0.  1.
         12    1    6    6    0    0  0.80847701686E+01 -0.23758841143E+02  0.26829342566E+02  0.36737714459E+02  0.00000000000E+00 0. -1.
         -5    1    3    3    0  503 -0.34334800629E+02 -0.11333936206E+03  0.80997963706E+03  0.81860478375E+03  0.47000000000E+01 0.  1.
         13    1    4    4    0    0 -0.38953139150E+02 -0.54169657319E+01  0.21636373315E+03  0.21990897114E+03  0.00000000000E+00 0. -1.
        -14    1    4    4    0    0  0.28240783874E+02  0.30775904050E+01  0.42324414659E+02  0.50974204385E+02  0.00000000000E+00 0.  1.
</event>
<event>
12    1  0.1061634E+000  0.1890966E+03  0.7818608E-02  0.1159890E+00
         21   -1    0    0  501  502  0.00000000000E+00  0.00000000000E+00  0.43897843558E+03  0.43897843558E+03  0.00000000000E+00 0.  1.
         21   -1    0    0  502  503 -0.00000000000E+00 -0.00000000000E+00 -0.90353906060E+02  0.90353906060E+02  0.00000000000E+00 0.  1.
         -6    2    1    2    0  503 -0.52983312857E+02  0.57225489651E+02  0.87169507660E+02  0.20822113745E+03  0.17226587273E+03 0.  0.
        -24    2    3    3    0    0  0.31280799024E+01 -0.30032122234E+02  0.41239598898E+02  0.94669273754E+02  0.79685968816E+02 0.  0.
          6    2    1    2  501    0  0.52983312857E+02 -0.57225489651E+02  0.26145502186E+03  0.32111120419E+03  0.16932716526E+03 0.  0.
         24    2    5    5    0    0  0.59086959003E+02  0.19857873749E+02  0.13244044315E+03  0.17062548750E+03  0.87675436289E+02 0.  0.
          5    1    5    5  501    0 -0.61036461461E+01 -0.77083363399E+02  0.12901457871E+03  0.15048571670E+03  0.47000000000E+01 0. -1.
        -11    1    6    6    0    0 -0.62621493333E+01 -0.23001286288E+02  0.57949234918E+02  0.62660893009E+02  0.00000000000E+00 0.  1.
         12    1    6    6    0    0  0.65349108337E+02  0.42859160037E+02  0.74491208230E+02  0.10796459449E+03  0.00000000000E+00 0. -1.
         -5    1    3    3    0  503 -0.56111392760E+02  0.87257611884E+02  0.45929908763E+02  0.11355186369E+03  0.47000000000E+01 0.  1.
         11    1    4    4    0    0  0.79270352895E+01  0.81356376698E+01 -0.19620257462E+02  0.22671148883E+02  0.00000000000E+00 0. -1.
        -12    1    4    4    0    0 -0.47989553871E+01 -0.38167759903E+02  0.60859856360E+02  0.71998124871E+02  0.00000000000E+00 0.  1.
</event>
<event>
12    1  0.1061634E+000  0.2008255E+03  0.7818608E-02  0.1149088E+00
         21   -1    0    0  501  502  0.00000000000E+00  0.00000000000E+00  0.19583800141E+04  0.19583800141E+04  0.00000000000E+00 0.  1.
         21   -1    0    0  502  503 -0.00000000000E+00 -0.00000000000E+00 -0.36526311101E+02  0.36526311101E+02  0.00000000000E+00 0.  1.
         -6    2    1    2    0  503 -0.89028461352E+02  0.50837771108E+02  0.16204126376E+04  0.16328098480E+04  0.17268566140E+03 0.  0.
        -24    2    3    3    0    0 -0.37900848363E+02 -0.39089009470E+02  0.65561360421E+03  0.66246963779E+03  0.77925592716E+02 0.  0.
          6    2    1    2  501    0  0.89028461352E+02 -0.50837771108E+02  0.30144106535E+03  0.36209647717E+03  0.17244302538E+03 0.  0.
         24    2    5    5    0    0  0.12294717652E+02 -0.84412428068E+02  0.17352802627E+03  0.20912863553E+03  0.79662991415E+02 0.  0.
          5    1    5    5  501    0  0.76733743700E+02  0.33574656960E+02  0.12791303908E+03  0.15296784165E+03  0.47000000000E+01 0. -1.
        -11    1    6    6    0    0 -0.27572137018E+02 -0.22015758268E+02  0.94306695466E+02  0.10069095869E+03  0.00000000000E+00 0.  1.
         12    1    6    6    0    0  0.39866854671E+02 -0.62396669800E+02  0.79221330805E+02  0.10843767684E+03  0.00000000000E+00 0. -1.
         -5    1    3    3    0  503 -0.51127612990E+02  0.89926780578E+02  0.96479903340E+03  0.97034021020E+03  0.47000000000E+01 0.  1.
         11    1    4    4    0    0 -0.22738432032E+01  0.14916851934E+02  0.33782904058E+03  0.33816585205E+03  0.00000000000E+00 0. -1.
        -12    1    4    4    0    0 -0.35627005159E+02 -0.54005861404E+02  0.31778456363E+03  0.32430378574E+03  0.00000000000E+00 0.  1.
</event>
<event>
12    1  0.1061634E+000  0.3601547E+03  0.7818608E-02  0.1058653E+00
         21   -1    0    0  501  502  0.00000000000E+00  0.00000000000E+00  0.11261474312E+04  0.11261474312E+04  0.00000000000E+00 0.  1.
         21   -1    0    0  502  503 -0.00000000000E+00 -0.00000000000E+00 -0.21215311727E+03  0.21215311727E+03  0.00000000000E+00 0. -1.
         -6    2    1    2    0  503 -0.64459102859E+02  0.30841575164E+03  0.40709707206E+01  0.36017775238E+03  0.17445970512E+03 0.  0.
        -24    2    3    3    0    0 -0.65723283320E+02  0.31391006888E+03  0.31260093647E+02  0.33201529369E+03  0.79986751856E+02 0.  0.
          6    2    1    2  501    0  0.64459102859E+02 -0.30841575164E+03  0.90992334321E+03  0.97812279608E+03  0.17172204838E+03 0.  0.
         24    2    5    5    0    0  0.42232912106E+02 -0.26171284606E+03  0.86879464704E+03  0.91187459163E+03  0.80211591877E+02 0.  0.
          5    1    5    5  501    0  0.22226190754E+02 -0.46702905579E+02  0.41128696166E+02  0.66248204453E+02  0.47000000000E+01 0. -1.
        -13    1    6    6    0    0  0.59175038900E+02 -0.24654444671E+03  0.77784190086E+03  0.81812216212E+03  0.00000000000E+00 0.  1.
         14    1    6    6    0    0 -0.16942126794E+02 -0.15168399350E+02  0.90952746185E+02  0.93752429503E+02  0.00000000000E+00 0. -1.
         -5    1    3    3    0  503  0.12641804603E+01 -0.54943172478E+01 -0.27189122926E+02  0.28162458695E+02  0.47000000000E+01 0.  1.
         13    1    4    4    0    0 -0.58077460781E+02  0.15255051034E+03 -0.15168137188E+02  0.16393511534E+03  0.00000000000E+00 0. -1.
        -14    1    4    4    0    0 -0.76458225383E+01  0.16135955854E+03  0.46428230835E+02  0.16808017835E+03  0.00000000000E+00 0.  1.
</event>
<event>
12    1  0.1061634E+000  0.6812862E+03  0.7818608E-02  0.9751867E-01
         21   -1    0    0  503  502  0.00000000000E+00  0.00000000000E+00  0.81269230791E+03  0.81269230791E+03  0.00000000000E+00 0. -1.
         21   -1    0    0  501  503 -0.00000000000E+00 -0.00000000000E+00 -0.12419619902E+04  0.12419619902E+04  0.00000000000E+00 0.  1.
          6    2    1    2  501    0  0.60733928455E+03  0.24374913668E+03 -0.97152960936E+03  0.11839093509E+04  0.17174667734E+03 0.  0.
         24    2    3    3    0    0  0.26774218345E+03  0.63911918410E+02 -0.49547524631E+03  0.57209445840E+03  0.77625636932E+02 0.  0.
         -6    2    1    2    0  502 -0.60733928455E+03 -0.24374913668E+03  0.54225992703E+03  0.87074494721E+03  0.18941036518E+03 0.  0.
        -24    2    5    5    0    0 -0.48419846012E+03 -0.13841264204E+03  0.34990245309E+03  0.61918396549E+03  0.85737087524E+02 0.  0.
          5    1    3    3  501    0  0.33959710110E+03  0.17983721827E+03 -0.47605436305E+03  0.61181489254E+03  0.47000000000E+01 0. -1.
        -13    1    4    4    0    0  0.13790129620E+03  0.68888501503E+02 -0.30148989373E+03  0.33861268310E+03  0.00000000000E+00 0.  1.
         14    1    4    4    0    0  0.12984088726E+03 -0.49765830932E+01 -0.19398535258E+03  0.23348177530E+03  0.00000000000E+00 0. -1.
         -5    1    5    5    0  502 -0.12314082443E+03 -0.10533649464E+03  0.19235747394E+03  0.25156098173E+03  0.47000000000E+01 0.  1.
         11    1    6    6    0    0 -0.21915178677E+03 -0.49331700145E+02  0.20563672132E+03  0.30454487919E+03  0.00000000000E+00 0. -1.
        -12    1    6    6    0    0 -0.26504667336E+03 -0.89080941894E+02  0.14426573177E+03  0.31463908630E+03  0.00000000000E+00 0.  1.
</event>
<event>
12    1  0.1061634E+000  0.2587832E+03  0.7818608E-02  0.1108051E+00
         21   -1    0    0  501  502  0.00000000000E+00  0.00000000000E+00  0.10342554217E+04  0.10342554217E+04  0.00000000000E+00 0.  1.
         21   -1    0    0  502  503 -0.00000000000E+00 -0.00000000000E+00 -0.64463008255E+02  0.64463008255E+02  0.00000000000E+00 0.  1.
         -6    2    1    2    0  503  0.19228007600E+03 -0.76493150147E+01  0.48397529445E+03  0.54881764791E+03  0.17302770120E+03 0.  0.
        -24    2    3    3    0    0  0.72671534483E+02  0.31218336243E+02  0.11566974685E+03  0.15960310052E+03  0.76406301546E+02 0.  0.
          6    2    1    2  501    0 -0.19228007600E+03  0.76493150147E+01  0.48581711903E+03  0.54990078208E+03  0.17129640199E+03 0.  0.
         24    2    5    5    0    0 -0.95657639861E+02 -0.33930475046E+02  0.37611077279E+03  0.39784044368E+03  0.80722016951E+02 0.  0.
          5    1    5    5  501    0 -0.96622436134E+02  0.41579790060E+02  0.10970634625E+03  0.15206033840E+03  0.47000000000E+01 0. -1.
        -11    1    6    6    0    0 -0.80641217676E+02  0.11666006928E+02  0.24710980563E+03  0.26019676736E+03  0.00000000000E+00 0.  1.
         12    1    6    6    0    0 -0.15016422184E+02 -0.45596481973E+02  0.12900096716E+03  0.13764367632E+03  0.00000000000E+00 0. -1.
         -5    1    3    3    0  503  0.11960854151E+03 -0.38867651258E+02  0.36830554759E+03  0.38921454740E+03  0.47000000000E+01 0.  1.
         13    1    4    4    0    0  0.30366618596E+02 -0.14897457485E+02  0.75165443044E+01  0.34649158759E+02  0.00000000000E+00 0. -1.
        -14    1    4    4    0    0  0.42304915888E+02  0.46115793729E+02  0.10815320255E+03  0.12495394176E+03  0.00000000000E+00 0.  1.
</event>
<event>
12    1  0.1061634E+000  0.1824537E+03  0.7818608E-02  0.1166136E+00
         21   -1    0    0  503  502  0.00000000000E+00  0.00000000000E+00  0.94143419586E+02  0.94143419586E+02  0.00000000000E+00 0.  1.
         21   -1    0    0  501  503 -0.00000000000E+00 -0.00000000000E+00 -0.20466117684E+04  0.20466117684E+04  0.00000000000E+00 0. -1.
          6    2    1    2  501    0 -0.10728520263E+02  0.51500450594E+02  0.19006505195E+00  0.17959118905E+03  0.17171360313E+03 0.  0.
         24    2    3    3    0    0  0.29277784586E+02  0.42126101093E+02  0.60946002464E+02  0.10609454431E+03  0.70070250844E+02 0.  0.
         -6    2    1    2    0  502  0.10728520263E+02 -0.51500450594E+02 -0.19526584139E+04  0.19611639989E+04  0.17470532887E+03 0.  0.
        -24    2    5    5    0    0 -0.55933233228E+02 -0.53397491560E+02 -0.14048300299E+04  0.14092714221E+04  0.80738525021E+02 0.  0.
          5    1    3    3  501    0 -0.40006304849E+02  0.93743495007E+01 -0.60755937412E+02  0.73496644733E+02  0.47000000000E+01 0. -1.
        -13    1    4    4    0    0 -0.18740272993E+02 -0.50869521528E+01  0.11736950213E+02  0.22689885728E+02  0.00000000000E+00 0.  1.
         14    1    4    4    0    0  0.48018057579E+02  0.47213053246E+02  0.49209052250E+02  0.83404658586E+02  0.00000000000E+00 0. -1.
         -5    1    5    5    0  502  0.66661753492E+02  0.18970409662E+01 -0.54782838395E+03  0.55189257687E+03  0.47000000000E+01 0.  1.
         13    1    6    6    0    0  0.71339846311E+01 -0.39214057358E+02 -0.80101995290E+03  0.80201097310E+03  0.00000000000E+00 0. -1.
        -14    1    6    6    0    0 -0.63067217859E+02 -0.14183434202E+02 -0.60381007701E+03  0.60726044896E+03  0.00000000000E+00 0.  1.
</event>
<event>
12    1  0.1061634E+000  0.1802029E+03  0.7818608E-02  0.1167620E+00
         21   -1    0    0  503  502  0.00000000000E+00  0.00000000000E+00  0.14084269283E+03  0.14084269283E+03  0.00000000000E+00 0.  1.
         21   -1    0    0  501  503 -0.00000000000E+00 -0.00000000000E+00 -0.46484550792E+03  0.46484550792E+03  0.00000000000E+00 0.  1.
          6    2    1    2  501    0  0.33279653712E+02  0.41241694262E+02  0.53039436217E+02  0.18779591634E+03  0.17217930103E+03 0.  0.
         24    2    3    3    0    0  0.18031893222E+02  0.90056589049E+02  0.63928215138E+02  0.13529788152E+03  0.76048416484E+02 0.  0.
         -6    2    1    2    0  502 -0.33279653712E+02 -0.41241694262E+02 -0.37704225131E+03  0.41789228441E+03  0.17223440248E+03 0.  0.
        -24    2    5    5    0    0 -0.13064556090E+02 -0.31051736602E+02 -0.71557946360E+02  0.11153426512E+03  0.78641335427E+02 0.  0.
          5    1    3    3  501    0  0.15247760490E+02 -0.48814894786E+02 -0.10888778921E+02  0.52498034814E+02  0.47000000000E+01 0. -1.
        -13    1    4    4    0    0  0.62071635210E+01  0.12474853983E+02 -0.17392374141E+02  0.22285545520E+02  0.00000000000E+00 0.  1.
         14    1    4    4    0    0  0.11824729701E+02  0.77581735065E+02  0.81320589278E+02  0.11301233600E+03  0.00000000000E+00 0. -1.
         -5    1    5    5    0  502 -0.20215097622E+02 -0.10189957661E+02 -0.30548430495E+03  0.30635801928E+03  0.47000000000E+01 0.  1.
         13    1    6    6    0    0 -0.32225289992E+02 -0.49123082502E+02 -0.54633830590E+02  0.80227189870E+02  0.00000000000E+00 0. -1.
        -14    1    6    6    0    0  0.19160733903E+02  0.18071345901E+02 -0.16924115770E+02  0.31307075254E+02  0.00000000000E+00 0.  1.
</event>
<event>
12    1  0.1061634E+000  0.3113658E+03  0.7818608E-02  0.1079709E+00
         21   -1    0    0  501  502  0.00000000000E+00  0.00000000000E+00  0.19004894222E+03  0.19004894222E+03  0.00000000000E+00 0. -1.
         21   -1    0    0  502  503 -0.00000000000E+00 -0.00000000000E+00 -0.51951066731E+03  0.51951066731E+03  0.00000000000E+00 0.  1.
         -6    2    1    2    0  503  0.24734036635E+03 -0.79348263703E+02 -0.11644764604E+03  0.33230149754E+03  0.17143753154E+03 0.  0.
        -24    2    3    3    0    0  0.18909127192E+03 -0.11118515725E+03 -0.12497650525E+03  0.26520920117E+03  0.81235123013E+02 0.  0.
          6    2    1    2  501    0 -0.24734036635E+03  0.79348263703E+02 -0.21301407905E+03  0.37725811199E+03  0.17168366670E+03 0.  0.
         24    2    5    5    0    0 -0.13954065581E+03  0.47091869332E+02 -0.20554050078E+03  0.26439006097E+03  0.77239679529E+02 0.  0.
          5    1    5    5  501    0 -0.10779971054E+03  0.32256394371E+02 -0.74735782655E+01  0.11286805102E+03  0.47000000000E+01 0. -1.
        -13    1    6    6    0    0  0.59995365104E+01 -0.85321523734E+01 -0.11227771738E+02  0.15324977020E+02  0.00000000000E+00 0.  1.
         14    1    6    6    0    0 -0.14554019232E+03  0.55624021705E+02 -0.19431272905E+03  0.24906508395E+03  0.00000000000E+00 0. -1.
         -5    1    3    3    0  503  0.58249094433E+02  0.31836893549E+02  0.85288592089E+01  0.67092296372E+02  0.47000000000E+01 0.  1.
         11    1    4    4    0    0  0.85058690477E+02 -0.35693464510E+02 -0.10057982123E+02  0.92790986840E+02  0.00000000000E+00 0. -1.
        -12    1    4    4    0    0  0.10403258144E+03 -0.75491692742E+02 -0.11491852313E+03  0.17241821433E+03  0.00000000000E+00 0.  1.
</event>
<event>
12    1  0.1061634E+000  0.2081892E+03  0.7818608E-02  0.1143017E+00
         21   -1    0    0  503  502  0.00000000000E+00  0.00000000000E+00  0.49161543777E+03  0.49161543777E+03  0.00000000000E+00 0.  1.
         21   -1    0    0  501  503 -0.00000000000E+00 -0.00000000000E+00 -0.79805570042E+03  0.79805570042E+03  0.00000000000E+00 0.  1.
          6    2    1    2  501    0  0.53176157886E+02  0.10983557298E+03 -0.76140160796E+03  0.78933868067E+03  0.16861668757E+03 0.  0.
         24    2    3    3    0    0 -0.33001277019E+02  0.55583657766E+02 -0.31418688080E+03  0.33065259761E+03  0.80244108498E+02 0.  0.
         -6    2    1    2    0  502 -0.53176157886E+02 -0.10983557298E+03  0.45496134531E+03  0.50033245753E+03  0.16867479204E+03 0.  0.
        -24    2    5    5    0    0  0.40973890588E+01  0.48852434237E+01  0.16963073018E+03  0.18747981677E+03  0.79582930804E+02 0.  0.
          5    1    3    3  501    0  0.86177434905E+02  0.54251915210E+02 -0.44721472717E+03  0.45868608305E+03  0.47000000000E+01 0. -1.
        -13    1    4    4    0    0  0.26078432891E+02  0.24037493041E+02 -0.92357848127E+02  0.98933603212E+02  0.00000000000E+00 0.  1.
         14    1    4    4    0    0 -0.59079709910E+02  0.31546164725E+02 -0.22182903267E+03  0.23171899440E+03  0.00000000000E+00 0. -1.
         -5    1    5    5    0  502 -0.57273546945E+02 -0.11472081640E+03  0.28533061513E+03  0.31285264075E+03  0.47000000000E+01 0.  1.
         13    1    6    6    0    0  0.16025864586E+02 -0.86063084286E+01  0.16845343825E+03  0.16943275286E+03  0.00000000000E+00 0. -1.
        -14    1    6    6    0    0 -0.11928475527E+02  0.13491551852E+02  0.11772919268E+01  0.18047063918E+02  0.00000000000E+00 0.  1.
</event>
<event>
12    1  0.1061634E+000  0.2009393E+03  0.7818608E-02  0.1150593E+00
         21   -1    0    0  501  502  0.00000000000E+00  0.00000000000E+00  0.12387303636E+03  0.12387303636E+03  0.00000000000E+00 0.  1.
         21   -1    0    0  502  503 -0.00000000000E+00 -0.00000000000E+00 -0.33210197923E+03  0.33210197923E+03  0.00000000000E+00 0.  1.
         -6    2    1    2    0  503 -0.35021178604E+02 -0.81419554798E+02 -0.48418124164E+02  0.19923373911E+03  0.17173858389E+03 0.  0.
        -24    2    3    3    0    0 -0.71357023965E+02 -0.33317395843E+01 -0.35313514594E+02  0.11198798657E+03  0.78685065075E+02 0.  0.
          6    2    1    2  501    0  0.35021178604E+02  0.81419554798E+02 -0.15981081870E+03  0.25674127648E+03  0.18033568260E+03 0.  0.
         24    2    5    5    0    0  0.21993588876E+02 -0.28322206223E+02 -0.50209363492E+02  0.10102505642E+03  0.79995103128E+02 0.  0.
          5    1    5    5  501    0  0.13027589728E+02  0.10974176102E+03 -0.10960145521E+03  0.15571622006E+03  0.47000000000E+01 0. -1.
        -13    1    6    6    0    0  0.25457023052E+02 -0.18233667899E+02 -0.71032906093E+02  0.77628605653E+02  0.00000000000E+00 0.  1.
         14    1    6    6    0    0 -0.34634341752E+01 -0.10088538324E+02  0.20823542601E+02  0.23396450762E+02  0.00000000000E+00 0. -1.
         -5    1    3    3    0  503  0.36335845361E+02 -0.78087815214E+02 -0.13104609570E+02  0.87245752532E+02  0.47000000000E+01 0.  1.
         11    1    4    4    0    0 -0.49304683486E+02 -0.15734501434E+02  0.16505056560E+02  0.54322585000E+02  0.00000000000E+00 0. -1.
        -12    1    4    4    0    0 -0.22052340479E+02  0.12402761849E+02 -0.51818571155E+02  0.57665401573E+02  0.00000000000E+00 0.  1.
</event>
<event>
12    1  0.1061634E+000  0.2421289E+03  0.7818608E-02  0.1118469E+00
         21   -1    0    0  501  502  0.00000000000E+00  0.00000000000E+00  0.38900187680E+03  0.38900187680E+03  0.00000000000E+00 0.  1.
         21   -1    0    0  502  503 -0.00000000000E+00 -0.00000000000E+00 -0.26372008420E+03  0.26372008420E+03  0.00000000000E+00 0.  1.
         -6    2    1    2    0  503  0.54304105215E+01  0.16851505878E+03  0.27662848713E+03  0.36762717503E+03  0.17378033702E+03 0.  0.
        -24    2    3    3    0    0 -0.53284272650E+02  0.15404309017E+03  0.20752174256E+03  0.27567781919E+03  0.79777810289E+02 0.  0.
          6    2    1    2  501    0 -0.54304105215E+01 -0.16851505878E+03 -0.15134669453E+03  0.28509478597E+03  0.17305028359E+03 0.  0.
         24    2    5    5    0    0 -0.40925932117E+02 -0.45226154003E+02 -0.11318288332E+03  0.15115953079E+03  0.79489003940E+02 0.  0.
          5    1    5    5  501    0  0.35495521595E+02 -0.12328890477E+03 -0.38163811208E+02  0.13393525518E+03  0.47000000000E+01 0. -1.
        -11    1    6    6    0    0  0.11772534189E+01  0.21358931920E+02 -0.22860698739E+02  0.31308168985E+02  0.00000000000E+00 0.  1.
         12    1    6    6    0    0 -0.42103185536E+02 -0.66585085923E+02 -0.90322184581E+02  0.11985136181E+03  0.00000000000E+00 0. -1.
         -5    1    3    3    0  503  0.58714683171E+02  0.14471968607E+02  0.69106744568E+02  0.91949355844E+02  0.47000000000E+01 0.  1.
         11    1    4    4    0    0  0.12031972135E+02  0.71787588790E+02  0.58621515316E+02  0.93459661435E+02  0.00000000000E+00 0. -1.
        -12    1    4    4    0    0 -0.65316244785E+02  0.82255501379E+02  0.14890022725E+03  0.18221815775E+03  0.00000000000E+00 0.  1.
</event>
<event>
12    1  0.1061634E+000  0.1892147E+03  0.7818608E-02  0.1159217E+00
         21   -1    0    0  503  502  0.00000000000E+00  0.00000000000E+00  0.52511256191E+03  0.52511256191E+03  0.00000000000E+00 0.  1.
         21   -1    0    0  501  503 -0.00000000000E+00 -0.00000000000E+00 -0.94199794103E+02  0.94199794103E+02  0.00000000000E+00 0.  1.
          6    2    1    2  501    0 -0.28805887544E+02  0.72238103398E+02  0.37850822302E+03  0.42316745418E+03  0.17249375828E+03 0.  0.
         24    2    3    3    0    0  0.50357745157E+02  0.50417165938E+02  0.21498127936E+03  0.24012050568E+03  0.79769127196E+02 0.  0.
         -6    2    1    2    0  502  0.28805887544E+02 -0.72238103398E+02  0.52404544792E+02  0.19614490183E+03  0.17227438423E+03 0.  0.
        -24    2    5    5    0    0 -0.26878382572E+02 -0.31146636012E+02  0.81937754778E+02  0.12075559807E+03  0.78584721303E+02 0.  0.
          5    1    3    3  501    0 -0.79163632701E+02  0.21820937460E+02  0.16352694366E+03  0.18304694850E+03  0.47000000000E+01 0. -1.
        -11    1    4    4    0    0  0.14507998454E+02  0.39592847423E+02  0.30921282772E+02  0.52289590881E+02  0.00000000000E+00 0.  1.
         12    1    4    4    0    0  0.35849746702E+02  0.10824318515E+02  0.18405999659E+03  0.18783091480E+03  0.00000000000E+00 0. -1.
         -5    1    5    5    0  502  0.55684270116E+02 -0.41091467386E+02 -0.29533209986E+02  0.75389303766E+02  0.47000000000E+01 0.  1.
         11    1    6    6    0    0  0.51502633021E+01 -0.43098500214E+02  0.15592829666E+02  0.46120952611E+02  0.00000000000E+00 0. -1.
        -12    1    6    6    0    0 -0.32028645874E+02  0.11951864202E+02  0.66344925112E+02  0.74634645457E+02  0.00000000000E+00 0.  1.
</event>
<event>
12    1  0.1061634E+000  0.2859720E+03  0.7818608E-02  0.1092767E+00
         21   -1    0    0  503  502  0.00000000000E+00  0.00000000000E+00  0.40212691990E+03  0.40212691990E+03  0.00000000000E+00 0.  1.
         21   -1    0    0  501  503 -0.00000000000E+00 -0.00000000000E+00 -0.21694361914E+03  0.21694361914E+03  0.00000000000E+00 0.  1.
          6    2    1    2  501    0  0.20607240217E+03 -0.97587838246E+02  0.11135052538E+02  0.28618867645E+03  0.17259996531E+03 0.  0.
         24    2    3    3    0    0  0.28776799117E+02 -0.71045980349E+01  0.19369863324E+02  0.86912863243E+02  0.79373009967E+02 0.  0.
         -6    2    1    2    0  502 -0.20607240217E+03  0.97587838246E+02  0.17404824822E+03  0.33288186258E+03  0.16890328777E+03 0.  0.
        -24    2    5    5    0    0 -0.20604358018E+03  0.38902052181E+02  0.13445549275E+03  0.26193329951E+03  0.81015105154E+02 0.  0.
          5    1    3    3  501    0  0.17729560305E+03 -0.90483240211E+02 -0.82348107862E+01  0.19927581321E+03  0.47000000000E+01 0. -1.
        -13    1    4    4    0    0  0.52041486967E+02 -0.98916537815E+01  0.30333929721E+02  0.61043496563E+02  0.00000000000E+00 0.  1.
         14    1    4    4    0    0 -0.23264687850E+02  0.27870557466E+01 -0.10964066397E+02  0.25869366680E+02  0.00000000000E+00 0. -1.
         -5    1    5    5    0  502 -0.28821991415E-01  0.58685786065E+02  0.39592755477E+02  0.70948563079E+02  0.47000000000E+01 0.  1.
         13    1    6    6    0    0 -0.17114376153E+03  0.19180301960E+02  0.13937229663E+03  0.22154617613E+03  0.00000000000E+00 0. -1.
        -14    1    6    6    0    0 -0.34899818654E+02  0.19721750220E+02 -0.49168038807E+01  0.40387123371E+02  0.00000000000E+00 0.  1.
</event>
<event>
12    1  0.1061634E+000  0.1859377E+03  0.7818608E-02  0.1163505E+00
         21   -1    0    0  503  502  0.00000000000E+00  0.00000000000E+00  0.17889798965E+04  0.17889798965E+04  0.00000000000E+00 0.  1.
         21   -1    0    0  501  503 -0.00000000000E+00 -0.00000000000E+00 -0.18750409825E+02  0.18750409825E+02  0.00000000000E+00 0.  1.
          6    2    1    2  501    0  0.31390136953E+02 -0.64927623538E+02  0.88764857605E+03  0.90577581992E+03  0.16525406012E+03 0.  0.
         24    2    3    3    0    0 -0.35417273054E+02 -0.73674123595E+02  0.59524107429E+03  0.60566922489E+03  0.76426525076E+02 0.  0.
         -6    2    1    2    0  502 -0.31390136953E+02  0.64927623538E+02  0.88258091060E+03  0.90195448638E+03  0.17138230583E+03 0.  0.
        -24    2    5    5    0    0 -0.34342470002E+02  0.11035471999E+03  0.64335910031E+03  0.65839442833E+03  0.78833507004E+02 0.  0.
          5    1    3    3  501    0  0.66807410007E+02  0.87465000570E+01  0.29240750175E+03  0.30010659502E+03  0.47000000000E+01 0. -1.
        -11    1    4    4    0    0 -0.17795042307E+02 -0.12171801373E+02  0.39208973168E+03  0.39268202654E+03  0.00000000000E+00 0.  1.
         12    1    4    4    0    0 -0.17622230747E+02 -0.61502322222E+02  0.20315134262E+03  0.21298719835E+03  0.00000000000E+00 0. -1.
         -5    1    5    5    0  502  0.29523330495E+01 -0.45427096453E+02  0.23922181029E+03  0.24356005806E+03  0.47000000000E+01 0.  1.
         13    1    6    6    0    0 -0.21658685617E+02  0.36304711478E+02  0.43231112368E+03  0.43437315571E+03  0.00000000000E+00 0. -1.
        -14    1    6    6    0    0 -0.12683784385E+02  0.74050008513E+02  0.21104797663E+03  0.22402127262E+03  0.00000000000E+00 0.  1.
</event>
<event>
12    1  0.1061634E+000  0.2014603E+03  0.7818608E-02  0.1148944E+00
         21   -1    0    0  503  502  0.00000000000E+00  0.00000000000E+00  0.55179539765E+03  0.55179539765E+03  0.00000000000E+00 0. -1.
         21   -1    0    0  501  503 -0.00000000000E+00 -0.00000000000E+00 -0.18035665221E+03  0.18035665221E+03  0.00000000000E+00 0. -1.
          6    2    1    2  501    0 -0.10070700834E+03 -0.28501936917E+02  0.46879367103E+03  0.51024871559E+03  0.17213943137E+03 0.  0.
         24    2    3    3    0    0 -0.72973527382E+02  0.34611940568E+02  0.38758846293E+03  0.40362374985E+03  0.78512373040E+02 0.  0.
         -6    2    1    2    0  502  0.10070700834E+03  0.28501936917E+02 -0.97354925585E+02  0.22190333427E+03  0.16973168911E+03 0.  0.
        -24    2    5    5    0    0  0.77230538159E+02  0.83764504760E+02 -0.62870466662E+02  0.15250330571E+03  0.79520528116E+02 0.  0.
          5    1    3    3  501    0 -0.27733480957E+02 -0.63113877485E+02  0.81205208097E+02  0.10662496574E+03  0.47000000000E+01 0. -1.
        -11    1    4    4    0    0 -0.35131528604E+02 -0.12200007331E+02  0.25884768574E+03  0.26150561924E+03  0.00000000000E+00 0.  1.
         12    1    4    4    0    0 -0.37841998778E+02  0.46811947899E+02  0.12874077719E+03  0.14211813062E+03  0.00000000000E+00 0. -1.
         -5    1    5    5    0  502  0.23476470180E+02 -0.55262567842E+02 -0.34484458923E+02  0.69400028558E+02  0.47000000000E+01 0.  1.
         13    1    6    6    0    0 -0.66604044328E+01  0.43077965186E+02 -0.79966140051E+01  0.44317241649E+02  0.00000000000E+00 0. -1.
        -14    1    6    6    0    0  0.83890942592E+02  0.40686539573E+02 -0.54873852657E+02  0.10818606406E+03  0.00000000000E+00 0.  1.
</event>
<event>
12    1  0.1061634E+000  0.6679239E+03  0.7818608E-02  0.9774001E-01
         21   -1    0    0  501  502  0.00000000000E+00  0.00000000000E+00  0.10299547965E+04  0.10299547965E+04  0.00000000000E+00 0.  1.
         21   -1    0    0  502  503 -0.00000000000E+00 -0.00000000000E+00 -0.79404633208E+03  0.79404633208E+03  0.00000000000E+00 0. -1.
         -6    2    1    2    0  503 -0.45600089607E+03 -0.45596025737E+03 -0.49726712047E+03  0.83220035963E+03  0.17159917237E+03 0.  0.
        -24    2    3    3    0    0 -0.24890878572E+03 -0.23742297582E+03 -0.34872787351E+03  0.49644496729E+03  0.80754088038E+02 0.  0.
          6    2    1    2  501    0  0.45600089607E+03  0.45596025737E+03  0.73317558493E+03  0.99180076899E+03  0.17402802512E+03 0.  0.
         24    2    5    5    0    0  0.34638863080E+03  0.29945653125E+03  0.60044256097E+03  0.75910265848E+03  0.77757825573E+02 0.  0.
          5    1    5    5  501    0  0.10961226527E+03  0.15650372611E+03  0.13273302396E+03  0.23269811051E+03  0.47000000000E+01 0. -1.
        -13    1    6    6    0    0  0.25049293914E+03  0.19735321009E+03  0.36085272533E+03  0.48157002758E+03  0.00000000000E+00 0.  1.
         14    1    6    6    0    0  0.95895691656E+02  0.10210332117E+03  0.23958983564E+03  0.27753263090E+03  0.00000000000E+00 0. -1.
         -5    1    3    3    0  503 -0.20709211035E+03 -0.21853728155E+03 -0.14853924696E+03  0.33575539234E+03  0.47000000000E+01 0.  1.
         11    1    4    4    0    0 -0.39076858600E+02 -0.62582788977E+02 -0.11669509868E+03  0.13806285674E+03  0.00000000000E+00 0. -1.
        -12    1    4    4    0    0 -0.20983192712E+03 -0.17484018684E+03 -0.23203277483E+03  0.35838211056E+03  0.00000000000E+00 0.  1.
</event>
<event>
12    1  0.1061634E+000  0.6978607E+03  0.7818608E-02  0.9720992E-01
         21   -1    0    0  501  502  0.00000000000E+00  0.00000000000E+00  0.21964718800E+04  0.21964718800E+04  0.00000000000E+00 0.  1.
         21   -1    0    0  502  503 -0.00000000000E+00 -0.00000000000E+00 -0.22282342726E+03  0.22282342726E+03  0.00000000000E+00 0.  1.
         -6    2    1    2    0  503 -0.63712200783E+03 -0.22684981311E+03  0.89932638942E+03  0.11383310069E+04  0.17211692555E+03 0.  0.
        -24    2    3    3    0    0 -0.22652132360E+03 -0.24536386896E+02  0.37837587408E+03  0.44483610879E+03  0.52885889116E+02 0.  0.
          6    2    1    2  501    0  0.63712200783E+03  0.22684981311E+03  0.10743220634E+04  0.12809643004E+04  0.17122018695E+03 0.  0.
         24    2    5    5    0    0  0.40488056326E+03  0.21423900864E+03  0.69770040123E+03  0.83828937748E+03  0.78208741142E+02 0.  0.
          5    1    5    5  501    0  0.23224144457E+03  0.12610804471E+02  0.37662166214E+03  0.44267492289E+03  0.47000000000E+01 0. -1.
        -11    1    6    6    0    0  0.16998971532E+03  0.60804501997E+02  0.22351649815E+03  0.28732092810E+03  0.00000000000E+00 0.  1.
         12    1    6    6    0    0  0.23489084794E+03  0.15343450664E+03  0.47418390308E+03  0.55096844939E+03  0.00000000000E+00 0. -1.
         -5    1    3    3    0  503 -0.41060068423E+03 -0.20231342622E+03  0.52095051534E+03  0.69349489814E+03  0.47000000000E+01 0.  1.
         11    1    4    4    0    0 -0.17326102056E+02 -0.13266469810E+02  0.19392257694E+02  0.29193367263E+02  0.00000000000E+00 0. -1.
        -12    1    4    4    0    0 -0.20919522154E+03 -0.11269917085E+02  0.35898361639E+03  0.41564274152E+03  0.00000000000E+00 0.  1.
</event>
<event>
12    1  0.1061634E+000  0.1969349E+03  0.7818608E-02  0.1152932E+00
         21   -1    0    0  501  502  0.00000000000E+00  0.00000000000E+00  0.24674364837E+02  0.24674364837E+02  0.00000000000E+00 0. -1.
         21   -1    0    0  502  503 -0.00000000000E+00 -0.00000000000E+00 -0.17018238541E+04  0.17018238541E+04  0.00000000000E+00 0. -1.
         -6    2    1    2    0  503 -0.60015130342E+02 -0.70614223651E+02 -0.10907519769E+04  0.11079148370E+04  0.17072558847E+03 0.  0.
        -24    2    3    3    0    0 -0.56383012553E+02 -0.98982698272E+02 -0.59451860122E+03  0.61083575301E+03  0.81800558083E+02 0.  0.
          6    2    1    2  501    0  0.60015130342E+02  0.70614223651E+02 -0.58639751242E+03  0.61858338195E+03  0.17376758446E+03 0.  0.
         24    2    5    5    0    0  0.93486407005E+02  0.88737357508E+02 -0.38579617279E+03  0.41434880652E+03  0.78944408378E+02 0.  0.
          5    1    5    5  501    0 -0.33471276663E+02 -0.18123133857E+02 -0.20060133963E+03  0.20423457544E+03  0.47000000000E+01 0. -1.
        -11    1    6    6    0    0  0.65626623671E+02  0.94139093685E+02 -0.35191472655E+03  0.37015266777E+03  0.00000000000E+00 0.  1.
         12    1    6    6    0    0  0.27859783334E+02 -0.54017361773E+01 -0.33881446234E+02  0.44196138746E+02  0.00000000000E+00 0. -1.
         -5    1    3    3    0  503 -0.36321177891E+01  0.28368474621E+02 -0.49623337567E+03  0.49707908401E+03  0.47000000000E+01 0.  1.
         11    1    4    4    0    0 -0.31644162750E+02 -0.30569278694E+02 -0.80897794342E+02  0.92088473575E+02  0.00000000000E+00 0. -1.
        -12    1    4    4    0    0 -0.24738849803E+02 -0.68413419579E+02 -0.51362080688E+03  0.51874727944E+03  0.00000000000E+00 0.  1.
</event>
<event>
12    1  0.1061634E+000  0.2276733E+03  0.7818608E-02  0.1128575E+00
         21   -1    0    0  501  502  0.00000000000E+00  0.00000000000E+00  0.59645939881E+03  0.59645939881E+03  0.00000000000E+00 0. -1.
         21   -1    0    0  502  503 -0.00000000000E+00 -0.00000000000E+00 -0.89124596924E+02  0.89124596924E+02  0.00000000000E+00 0. -1.
         -6    2    1    2    0  503  0.28937467110E+02  0.14553503076E+03  0.19171105166E+03  0.29641376149E+03  0.17055840199E+03 0.  0.
        -24    2    3    3    0    0  0.21346802833E+02  0.41126786674E+02  0.17698651039E+02  0.93285464132E+02  0.79005297268E+02 0.  0.
          6    2    1    2  501    0 -0.28937467110E+02 -0.14553503076E+03  0.31562375023E+03  0.38917023424E+03  0.17267685813E+03 0.  0.
         24    2    5    5    0    0 -0.20529087950E+02 -0.30472653403E+01  0.11743112138E+03  0.14488377890E+03  0.82283120034E+02 0.  0.
          5    1    5    5  501    0 -0.84083791595E+01 -0.14248776542E+03  0.19819262885E+03  0.24428645534E+03  0.47000000000E+01 0. -1.
        -11    1    6    6    0    0 -0.21408893555E+01 -0.87923913618E+01 -0.11436771165E+02  0.14583870809E+02  0.00000000000E+00 0.  1.
         12    1    6    6    0    0 -0.18388198595E+02  0.57451260215E+01  0.12886789254E+03  0.13029990809E+03  0.00000000000E+00 0. -1.
         -5    1    3    3    0  503  0.75906642769E+01  0.10440824409E+03  0.17401240062E+03  0.20312829736E+03  0.47000000000E+01 0.  1.
         11    1    4    4    0    0 -0.22140710500E+02  0.22320222991E+02  0.30919548493E+02  0.44095599496E+02  0.00000000000E+00 0. -1.
        -12    1    4    4    0    0  0.43487513333E+02  0.18806563682E+02 -0.13220897454E+02  0.49189864636E+02  0.00000000000E+00 0.  1.
</event>
<event>
12    1  0.1061634E+000  0.2625900E+03  0.7818608E-02  0.1105975E+00
         21   -1    0    0  501  502  0.00000000000E+00  0.00000000000E+00  0.12934295630E+03  0.12934295630E+03  0.00000000000E+00 0. -1.
         21   -1    0    0  502  503 -0.00000000000E+00 -0.00000000000E+00 -0.57562212584E+03  0.57562212584E+03  0.00000000000E+00 0. -1.
         -6    2    1    2    0  503  0.17197901098E+03  0.97387296227E+02 -0.12073807199E+03  0.28671815871E+03  0.16902235007E+03 0.  0.
        -24    2    3    3    0    0  0.17390240163E+03  0.79092003654E+02 -0.14695573813E+03  0.25434728941E+03  0.81234009670E+02 0.  0.
          6    2    1    2  501    0 -0.17197901098E+03 -0.97387296227E+02 -0.32554109754E+03  0.41824692343E+03  0.17289423670E+03 0.  0.
         24    2    5    5    0    0 -0.53888071549E+02 -0.59851660653E+02 -0.69856610183E+02  0.13407964701E+03  0.81309656358E+02 0.  0.
          5    1    5    5  501    0 -0.11809093943E+03 -0.37535635574E+02 -0.25568448736E+03  0.28416727642E+03  0.47000000000E+01 0. -1.
        -13    1    6    6    0    0 -0.21909408696E+01  0.68549915327E+01  0.13601684301E+02  0.15388208038E+02  0.00000000000E+00 0.  1.
         14    1    6    6    0    0 -0.51697130679E+02 -0.66706652186E+02 -0.83458294484E+02  0.11869143897E+03  0.00000000000E+00 0. -1.
         -5    1    3    3    0  503 -0.19233906458E+01  0.18295292573E+02  0.26217666136E+02  0.32370869304E+02  0.47000000000E+01 0.  1.
         13    1    4    4    0    0  0.13442633999E+03  0.20161688513E+02 -0.86236468409E+02  0.16097721283E+03  0.00000000000E+00 0. -1.
        -14    1    4    4    0    0  0.39476061635E+02  0.58930315141E+02 -0.60719269721E+02  0.93370076579E+02  0.00000000000E+00 0.  1.
</event>
<event>
12    1  0.1061634E+000  0.2216106E+03  0.7818608E-02  0.1132809E+00
         21   -1    0    0  503  502  0.00000000000E+00  0.00000000000E+00  0.64706908772E+03  0.64706908772E+03  0.00000000000E+00 0. -1.
         21   -1    0    0  501  503 -0.00000000000E+00 -0.00000000000E+00 -0.78608437624E+02  0.78608437624E+02  0.00000000000E+00 0.  1.
          6    2    1    2  501    0  0.13890472185E+03 -0.13960936801E+01  0.35474776452E+03  0.41827891452E+03  0.17266963564E+03 0.  0.
         24    2    3    3    0    0  0.12188173263E+03  0.30049425773E+02  0.15328908112E+03  0.21361750152E+03  0.79854679425E+02 0.  0.
         -6    2    1    2    0  502 -0.13890472185E+03  0.13960936801E+01  0.21371288558E+03  0.30739861082E+03  0.17182618440E+03 0.  0.
        -24    2    5    5    0    0 -0.67247504220E+02 -0.38240623580E+02  0.19194648847E+03  0.22253582607E+03  0.81817891263E+02 0.  0.
          5    1    3    3  501    0  0.17022989220E+02 -0.31445519453E+02  0.20145868340E+03  0.20466141301E+03  0.47000000000E+01 0. -1.
        -11    1    4    4    0    0  0.40578864404E+02  0.36511698049E+02  0.21574113404E+02  0.58695746864E+02  0.00000000000E+00 0.  1.
         12    1    4    4    0    0  0.81302868225E+02 -0.64622722756E+01  0.13171496771E+03  0.15492175465E+03  0.00000000000E+00 0. -1.
         -5    1    5    5    0  502 -0.71657217629E+02  0.39636717260E+02  0.21766397104E+02  0.84862784755E+02  0.47000000000E+01 0.  1.
         11    1    6    6    0    0 -0.14938292353E+02  0.17240543203E+02  0.10245544857E+03  0.10496431703E+03  0.00000000000E+00 0. -1.
        -12    1    6    6    0    0 -0.52309211868E+02 -0.55481166783E+02  0.89491039901E+02  0.11757150903E+03  0.00000000000E+00 0.  1.
</event>
<event>
12    1  0.1061634E+000  0.2262059E+03  0.7818608E-02  0.1129546E+00
         21   -1    0    0  503  502  0.00000000000E+00  0.00000000000E+00  0.23496898695E+03  0.23496898695E+03  0.00000000000E+00 0. -1.
         21   -1    0    0  501  503 -0.00000000000E+00 -0.00000000000E+00 -0.21669457918E+03  0.21669457918E+03  0.00000000000E+00 0. -1.
          6    2    1    2  501    0  0.12983685991E+03  0.69791129602E+02  0.66447651349E+01  0.22630346533E+03  0.17158290578E+03 0.  0.
         24    2    3    3    0    0  0.46218981298E+02  0.10575127657E+03  0.12040814755E+02  0.13500018420E+03  0.68996679526E+02 0.  0.
         -6    2    1    2    0  502 -0.12983685991E+03 -0.69791129602E+02  0.11629642636E+02  0.22536010080E+03  0.17006914618E+03 0.  0.
        -24    2    5    5    0    0 -0.11167535123E+02 -0.46091363551E+02 -0.29605304575E+02  0.97428484580E+02  0.79791653160E+02 0.  0.
          5    1    3    3  501    0  0.83617878613E+02 -0.35960146972E+02 -0.53960496199E+01  0.91303281132E+02  0.47000000000E+01 0. -1.
        -13    1    4    4    0    0  0.15562153134E+02  0.35194274569E+02  0.37732651323E+02  0.53894067841E+02  0.00000000000E+00 0.  1.
         14    1    4    4    0    0  0.30656828164E+02  0.70557002004E+02 -0.25691836568E+02  0.81106116361E+02  0.00000000000E+00 0. -1.
         -5    1    5    5    0  502 -0.11866932479E+03 -0.23699766051E+02  0.41234947211E+02  0.12793161622E+03  0.47000000000E+01 0.  1.
         11    1    6    6    0    0  0.25479714729E+02 -0.94385495672E+01  0.13198669106E+02  0.30207729918E+02  0.00000000000E+00 0. -1.
        -12    1    6    6    0    0 -0.36647249852E+02 -0.36652813983E+02 -0.42803973680E+02  0.67220754663E+02  0.00000000000E+00 0.  1.
</event>
<event>
12    1  0.1061634E+000  0.2134492E+03  0.7818608E-02  0.1139031E+00
         21   -1    0    0  501  502  0.00000000000E+00  0.00000000000E+00  0.22961793755E+03  0.22961793755E+03  0.00000000000E+00 0. -1.
         21   -1    0    0  502  503 -0.00000000000E+00 -0.00000000000E+00 -0.34743594279E+03  0.34743594279E+03  0.00000000000E+00 0. -1.
         -6    2    1    2    0  503  0.11136276228E+03 -0.58230114097E+02 -0.24844231107E+03  0.32754258434E+03  0.17253449400E+03 0.  0.
        -24    2    3    3    0    0  0.10248196056E+03 -0.10368141494E+03 -0.19930667157E+03  0.25985883108E+03  0.80938709604E+02 0.  0.
          6    2    1    2  501    0 -0.11136276228E+03  0.58230114097E+02  0.13062430582E+03  0.24951129599E+03  0.17146651727E+03 0.  0.
         24    2    5    5    0    0  0.46837373079E+01  0.97838222185E+01  0.72966567646E+02  0.11109042316E+03  0.83062034356E+02 0.  0.
          5    1    5    5  501    0 -0.11604649959E+03  0.48446291878E+02  0.57657738174E+02  0.13842087283E+03  0.47000000000E+01 0. -1.
        -11    1    6    6    0    0 -0.68248444517E+01  0.27943680336E+02  0.82648721457E+02  0.87511364582E+02  0.00000000000E+00 0.  1.
         12    1    6    6    0    0  0.11508581760E+02 -0.18159858118E+02 -0.96821538110E+01  0.23579058578E+02  0.00000000000E+00 0. -1.
         -5    1    3    3    0  503  0.88808017199E+01  0.45451300843E+02 -0.49135639499E+02  0.67683753268E+02  0.47000000000E+01 0.  1.
         13    1    4    4    0    0  0.19117228236E+02 -0.37128391563E+01  0.25826939477E+01  0.19644945865E+02  0.00000000000E+00 0. -1.
        -14    1    4    4    0    0  0.83364732329E+02 -0.99968575784E+02 -0.20188936551E+03  0.24021388521E+03  0.00000000000E+00 0.  1.
</event>
<event>
12    1  0.1061634E+000  0.2695951E+03  0.7818608E-02  0.1101676E+00
         21   -1    0    0  501  502  0.00000000000E+00  0.00000000000E+00  0.26291474482E+04  0.26291474482E+04  0.00000000000E+00 0.  1.
         21   -1    0    0  502  503 -0.00000000000E+00 -0.00000000000E+00 -0.29454197016E+02  0.29454197016E+02  0.00000000000E+00 0.  1.
         -6    2    1    2    0  503  0.15829992129E+03 -0.13238065779E+03  0.16372622874E+04  0.16591243417E+04  0.17170404771E+03 0.  0.
        -24    2    3    3    0    0  0.15063672081E+02 -0.80358649905E+02  0.61095263055E+03  0.62155192782E+03  0.79870240863E+02 0.  0.
          6    2    1    2  501    0 -0.15829992129E+03  0.13238065779E+03  0.96243096387E+03  0.99947730356E+03  0.17348779918E+03 0.  0.
         24    2    5    5    0    0 -0.68950721951E+01  0.68183614254E+02  0.38362209759E+03  0.39774108027E+03  0.79595891235E+02 0.  0.
          5    1    5    5  501    0 -0.15140484909E+03  0.64197043537E+02  0.57880886628E+03  0.60173622328E+03  0.47000000000E+01 0. -1.
        -11    1    6    6    0    0  0.11922354046E+02 -0.96409376754E+01  0.18916876681E+02  0.24350327074E+02  0.00000000000E+00 0.  1.
         12    1    6    6    0    0 -0.18817426241E+02  0.77824551929E+02  0.36470522091E+03  0.37339075320E+03  0.00000000000E+00 0. -1.
         -5    1    3    3    0  503  0.14323624920E+03 -0.52022007886E+02  0.10263096568E+04  0.10375724139E+04  0.47000000000E+01 0.  1.
         13    1    4    4    0    0  0.19858338866E+02 -0.31357049840E+02  0.48345848788E+03  0.48488114802E+03  0.00000000000E+00 0. -1.
        -14    1    4    4    0    0 -0.47946667842E+01 -0.49001600066E+02  0.12749414267E+03  0.13667077981E+03  0.00000000000E+00 0.  1.
</event>
<event>
12    1  0.1061634E+000  0.2368619E+03  0.7818608E-02  0.1121946E+00
         21   -1    0    0  503  502  0.00000000000E+00  0.00000000000E+00  0.17153897399E+04  0.17153897399E+04  0.00000000000E+00 0.  1.
         21   -1    0    0  501  503 -0.00000000000E+00 -0.00000000000E+00 -0.34311866421E+02  0.34311866421E+02  0.00000000000E+00 0.  1.
          6    2    1    2  501    0  0.15880200634E+03  0.35592299547E+02  0.10324172899E+04  0.10592398354E+04  0.17210078287E+03 0.  0.
         24    2    3    3    0    0  0.13963875270E+03  0.53413358977E+02  0.10110348738E+04  0.10251206595E+04  0.79554272731E+02 0.  0.
         -6    2    1    2    0  502 -0.15880200634E+03 -0.35592299547E+02  0.64866058353E+03  0.69046177085E+03  0.17173239463E+03 0.  0.
        -24    2    5    5    0    0 -0.17829057468E+03  0.46925857182E+00  0.51618497577E+03  0.55170977294E+03  0.78415528623E+02 0.  0.
          5    1    3    3  501    0  0.19163253644E+02 -0.17821059430E+02  0.21382416157E+02  0.34119175989E+02  0.47000000000E+01 0. -1.
        -13    1    4    4    0    0  0.30511069476E+02  0.50784827766E+02  0.40915169990E+03  0.41341884043E+03  0.00000000000E+00 0.  1.
         14    1    4    4    0    0  0.10912768322E+03  0.26285312112E+01  0.60188317386E+03  0.61170181903E+03  0.00000000000E+00 0. -1.
         -5    1    5    5    0  502  0.19488568335E+02 -0.36061558118E+02  0.13247560777E+03  0.13875199791E+03  0.47000000000E+01 0.  1.
         13    1    6    6    0    0 -0.14336211538E+03 -0.27163671459E+02  0.43879522549E+03  0.46241951850E+03  0.00000000000E+00 0. -1.
        -14    1    6    6    0    0 -0.34928459295E+02  0.27632930031E+02  0.77389750273E+02  0.89290254441E+02  0.00000000000E+00 0.  1.
</event>
<event>
12    1  0.1061634E+000  0.3533852E+03  0.7818608E-02  0.1061347E+00
         21   -1    0    0  501  502  0.00000000000E+00  0.00000000000E+00  0.88327957809E+03  0.88327957809E+03  0.00000000000E+00 0.  1.
         21   -1    0    0  502  503 -0.00000000000E+00 -0.00000000000E+00 -0.14123793870E+03  0.14123793870E+03  0.00000000000E+00 0.  1.
         -6    2    1    2    0  503 -0.29553115177E+03  0.88511899402E+02  0.34802838456E+03  0.49598874958E+03  0.17236027746E+03 0.  0.
        -24    2    3    3    0    0 -0.82705905905E+02  0.77584643685E+02  0.10872103921E+03  0.17551396783E+03  0.78263942723E+02 0.  0.
          6    2    1    2  501    0  0.29553115177E+03 -0.88511899402E+02  0.39401325483E+03  0.52852876722E+03  0.17006820629E+03 0.  0.
         24    2    5    5    0    0  0.16720954144E+03 -0.29042327543E+02  0.31217673043E+03  0.36505897679E+03  0.83733254907E+02 0.  0.
          5    1    5    5  501    0  0.12832161033E+03 -0.59469571859E+02  0.81836524402E+02  0.16346979043E+03  0.47000000000E+01 0. -1.
        -11    1    6    6    0    0  0.11958346813E+03 -0.55717474065E+02  0.24715597825E+03  0.28016195379E+03  0.00000000000E+00 0.  1.
         12    1    6    6    0    0  0.47626073310E+02  0.26675146522E+02  0.65020752183E+02  0.84897023007E+02  0.00000000000E+00 0. -1.
         -5    1    3    3    0  503 -0.21282524587E+03  0.10927255717E+02  0.23930734535E+03  0.32047478174E+03  0.47000000000E+01 0.  1.
         11    1    4    4    0    0 -0.88745483274E+02  0.37937918207E+02  0.66028771356E+02  0.11693949327E+03  0.00000000000E+00 0. -1.
        -12    1    4    4    0    0  0.60395773690E+01  0.39646725478E+02  0.42692267852E+02  0.58574474563E+02  0.00000000000E+00 0.  1.
</event>
<event>
12    1  0.1061634E+000  0.3019510E+03  0.7818608E-02  0.1084294E+00
         21   -1    0    0  501  502  0.00000000000E+00  0.00000000000E+00  0.32722766845E+03  0.32722766845E+03  0.00000000000E+00 0. -1.
         21   -1    0    0  502  503 -0.00000000000E+00 -0.00000000000E+00 -0.46496946341E+03  0.46496946341E+03  0.00000000000E+00 0. -1.
         -6    2    1    2    0  503  0.18002410026E+03 -0.17178426061E+03  0.18199341221E+03  0.35255637060E+03  0.17104351344E+03 0.  0.
        -24    2    3    3    0    0  0.25292992173E+02 -0.45193778081E+02  0.26351160784E+02  0.99152608771E+02  0.80340793630E+02 0.  0.
          6    2    1    2  501    0 -0.18002410026E+03  0.17178426061E+03 -0.31973520717E+03  0.43964076126E+03  0.17068944721E+03 0.  0.
         24    2    5    5    0    0 -0.11174240998E+03  0.24766526974E+02 -0.13389034116E+03  0.19298917004E+03  0.78857144569E+02 0.  0.
          5    1    5    5  501    0 -0.68281690287E+02  0.14701773364E+03 -0.18584486600E+03  0.24665159122E+03  0.47000000000E+01 0. -1.
        -13    1    6    6    0    0 -0.79704496474E+01  0.33202246461E+02 -0.24886705788E+02  0.42252400673E+02  0.00000000000E+00 0.  1.
         14    1    6    6    0    0 -0.10377196033E+03 -0.84357194868E+01 -0.10900363538E+03  0.15073676937E+03  0.00000000000E+00 0. -1.
         -5    1    3    3    0  503  0.15473110809E+03 -0.12659048253E+03  0.15564225143E+03  0.25340376183E+03  0.47000000000E+01 0.  1.
         13    1    4    4    0    0  0.44727439521E+02 -0.19511955254E+02  0.41033428840E+02  0.63757372330E+02  0.00000000000E+00 0. -1.
        -14    1    4    4    0    0 -0.19434447348E+02 -0.25681822827E+02 -0.14682268057E+02  0.35395236441E+02  0.00000000000E+00 0.  1.
</event>
<event>
12    1  0.1138808E+000  0.1950641E+03  0.7818608E-02  0.1156463E+00
         21   -1    0    0  501  502  0.00000000000E+00  0.00000000000E+00  0.31614509240E+03  0.31614509240E+03  0.00000000000E+00 0.  1.
         21   -1    0    0  502  503 -0.00000000000E+00 -0.00000000000E+00 -0.37450601331E+03  0.37450601331E+03  0.00000000000E+00 0.  1.
         -6    2    1    2    0  503  0.12379966694E+02 -0.55213641883E+02  0.25874629539E+03  0.32403649217E+03  0.18667670732E+03 0.  0.
        -24    2    3    3    0    0  0.36440879028E+02 -0.37274762389E+02  0.40351922846E+02  0.10353950158E+03  0.79842376811E+02 0.  0.
          6    2    1    2  501    0 -0.12379966694E+02  0.55213641883E+02 -0.31710721629E+03  0.36661461355E+03  0.17506421227E+03 0.  0.
         24    2    5    5    0    0  0.43242474489E+02 -0.17289897728E+02 -0.14626919875E+03  0.17281487811E+03  0.79381681951E+02 0.  0.
          5    1    5    5  501    0 -0.55622441182E+02  0.72503539610E+02 -0.17083801754E+03  0.19379973544E+03  0.47000000000E+01 0. -1.
        -13    1    6    6    0    0  0.95341168993E+01 -0.28466314235E+02 -0.94662013980E+01  0.31477601561E+02  0.00000000000E+00 0.  1.
         14    1    6    6    0    0  0.33708357589E+02  0.11176416507E+02 -0.13680299735E+03  0.14133727655E+03  0.00000000000E+00 0. -1.
         -5    1    3    3    0  503 -0.24060912334E+02 -0.17938879494E+02  0.21839437254E+03  0.22049699059E+03  0.47000000000E+01 0.  1.
         11    1    4    4    0    0  0.41261028838E+02 -0.54099053329E+01  0.54309266393E+02  0.68419558554E+02  0.00000000000E+00 0. -1.
        -12    1    4    4    0    0 -0.48201498101E+01 -0.31864857056E+02 -0.13957343547E+02  0.35119943028E+02  0.00000000000E+00 0.  1.
</event>
<event>
12    1  0.1061634E+000  0.2079182E+03  0.7818608E-02  0.1143736E+00
         21   -1    0    0  503  502  0.00000000000E+00  0.00000000000E+00  0.14235883022E+03  0.14235883022E+03  0.00000000000E+00 0.  1.
         21   -1    0    0  501  503 -0.00000000000E+00 -0.00000000000E+00 -0.30021657637E+03  0.30021657637E+03  0.00000000000E+00 0. -1.
          6    2    1    2  501    0  0.93099802343E+02 -0.61805141756E+02 -0.84631320940E+02  0.22213928280E+03  0.17232513379E+03 0.  0.
         24    2    3    3    0    0  0.13158964783E+03 -0.56831505052E+02 -0.56310168975E+02  0.17386524303E+03  0.80700881168E+02 0.  0.
         -6    2    1    2    0  502 -0.93099802343E+02  0.61805141756E+02 -0.73226425213E+02  0.22043612379E+03  0.17533546868E+03 0.  0.
        -24    2    5    5    0    0 -0.86191293531E+02  0.72564536652E+02 -0.11377494435E+03  0.17766037742E+03  0.76967010357E+02 0.  0.
          5    1    3    3  501    0 -0.38489845484E+02 -0.49736367049E+01 -0.28321151966E+02  0.48274039774E+02  0.47000000000E+01 0. -1.
        -11    1    4    4    0    0  0.84460053695E+02 -0.62303362841E+02 -0.66212038283E+01  0.10516201801E+03  0.00000000000E+00 0.  1.
         12    1    4    4    0    0  0.47129594132E+02  0.54718577893E+01 -0.49688965146E+02  0.68703225019E+02  0.00000000000E+00 0. -1.
         -5    1    5    5    0  502 -0.69085088123E+01 -0.10759394895E+02  0.40548519141E+02  0.42775746365E+02  0.47000000000E+01 0.  1.
         13    1    6    6    0    0 -0.91429306169E+02  0.73931418201E+02 -0.77136946891E+02  0.14062461093E+03  0.00000000000E+00 0. -1.
        -14    1    6    6    0    0  0.52380126380E+01 -0.13668815497E+01 -0.36637997463E+02  0.37035766492E+02  0.00000000000E+00 0.  1.
</event>
<event>
12    1  0.1061634E+000  0.3756421E+03  0.7818608E-02  0.1052625E+00
         21   -1    0    0  503  502  0.00000000000E+00  0.00000000000E+00  0.32490627820E+03  0.32490627820E+03  0.00000000000E+00 0. -1.
         21   -1    0    0  501  503 -0.00000000000E+00 -0.00000000000E+00 -0.63606510710E+03  0.63606510710E+03  0.00000000000E+00 0. -1.
          6    2    1    2  501    0 -0.92826339142E+02  0.32115701668E+03 -0.42686466846E+03  0.56861274642E+03  0.17131389788E+03 0.  0.
         24    2    3    3    0    0 -0.68774754642E+01  0.18585335805E+03 -0.31038407004E+03  0.37041055921E+03  0.79227148578E+02 0.  0.
         -6    2    1    2    0  502  0.92826339142E+02 -0.32115701668E+03  0.11570583957E+03  0.39235863888E+03  0.16970239125E+03 0.  0.
        -24    2    5    5    0    0  0.11860708652E+03 -0.31741965030E+03  0.10564691169E+03  0.36404103176E+03  0.80880946404E+02 0.  0.
          5    1    3    3  501    0 -0.85948863677E+02  0.13530365862E+03 -0.11648059843E+03  0.19820218721E+03  0.47000000000E+01 0. -1.
        -13    1    4    4    0    0 -0.16906220537E+02  0.14915618814E+03 -0.17890753826E+03  0.23354078017E+03  0.00000000000E+00 0.  1.
         14    1    4    4    0    0  0.10028745072E+02  0.36697169909E+02 -0.13147653177E+03  0.13686977904E+03  0.00000000000E+00 0. -1.
         -5    1    5    5    0  502 -0.25780747375E+02 -0.37373663767E+01  0.10058927878E+02  0.28317607115E+02  0.47000000000E+01 0.  1.
         13    1    6    6    0    0  0.38016650816E+02 -0.49461897300E+02 -0.62205389790E+01  0.62693222352E+02  0.00000000000E+00 0. -1.
        -14    1    6    6    0    0  0.80590435701E+02 -0.26795775300E+03  0.11186745067E+03  0.30134780941E+03  0.00000000000E+00 0.  1.
</event>
<event>
12    1  0.1061634E+000  0.2545573E+03  0.7818608E-02  0.1110466E+00
         21   -1    0    0  501  502  0.00000000000E+00  0.00000000000E+00  0.80899752676E+03  0.80899752676E+03  0.00000000000E+00 0.  1.
         21   -1    0    0  502  503 -0.00000000000E+00 -0.00000000000E+00 -0.94120053232E+02  0.94120053232E+02  0.00000000000E+00 0.  1.
         -6    2    1    2    0  503 -0.17959003965E+03  0.55832511940E+02  0.18308354199E+03  0.31355858062E+03  0.17155042525E+03 0.  0.
        -24    2    3    3    0    0 -0.18726497954E+03  0.80918759709E+01  0.16285583840E+03  0.26093422297E+03  0.80193476041E+02 0.  0.
          6    2    1    2  501    0  0.17959003965E+03 -0.55832511940E+02  0.53179393154E+03  0.58955899937E+03  0.17147937599E+03 0.  0.
         24    2    5    5    0    0  0.18141331495E+03 -0.78311844034E+00  0.39586485816E+03  0.44281921933E+03  0.80426805024E+02 0.  0.
          5    1    5    5  501    0 -0.18232752978E+01 -0.55049393500E+02  0.13592907338E+03  0.14673978004E+03  0.47000000000E+01 0. -1.
        -13    1    6    6    0    0  0.30263704841E+02 -0.23888785234E+02  0.13546879080E+03  0.14084871022E+03  0.00000000000E+00 0.  1.
         14    1    6    6    0    0  0.15114961011E+03  0.23105666794E+02  0.26039606736E+03  0.30197050911E+03  0.00000000000E+00 0. -1.
         -5    1    3    3    0  503  0.76749398928E+01  0.47740635969E+02  0.20227703591E+02  0.52624357646E+02  0.47000000000E+01 0.  1.
         11    1    4    4    0    0 -0.17510081440E+03  0.96642354966E+01  0.17199849764E+03  0.24563626736E+03  0.00000000000E+00 0. -1.
        -12    1    4    4    0    0 -0.12164165137E+02 -0.15723595257E+01 -0.91426592409E+01  0.15297955613E+02  0.00000000000E+00 0.  1.
</event>
<event>
12    1  0.1061634E+000  0.1930346E+03  0.7818608E-02  0.1156007E+00
         21   -1    0    0  503  502  0.00000000000E+00  0.00000000000E+00  0.26886852967E+03  0.26886852967E+03  0.00000000000E+00 0. -1.
         21   -1    0    0  501  503 -0.00000000000E+00 -0.00000000000E+00 -0.13836309859E+03  0.13836309859E+03  0.00000000000E+00 0. -1.
          6    2    1    2  501    0 -0.28189226761E+02  0.80158690883E+02  0.78445831851E+02  0.20730021432E+03  0.17204529082E+03 0.  0.
         24    2    3    3    0    0 -0.22009414895E+02  0.14859343618E+02  0.10657775777E+03  0.13577616184E+03  0.79819378827E+02 0.  0.
         -6    2    1    2    0  502  0.28189226761E+02 -0.80158690883E+02  0.52059599225E+02  0.19993141393E+03  0.17332720553E+03 0.  0.
        -24    2    5    5    0    0 -0.96946633081E+01  0.22823744938E+02  0.18734781000E+02  0.85156831711E+02  0.79282937246E+02 0.  0.
          5    1    3    3  501    0 -0.61798118664E+01  0.65299347265E+02 -0.28131925915E+02  0.71524052484E+02  0.47000000000E+01 0. -1.
        -11    1    4    4    0    0 -0.24710556386E+02  0.60705516942E+01 -0.31717206200E+01  0.25642211419E+02  0.00000000000E+00 0.  1.
         12    1    4    4    0    0  0.27011414914E+01  0.87887919235E+01  0.10974947839E+03  0.11013395042E+03  0.00000000000E+00 0. -1.
         -5    1    5    5    0  502  0.37883890069E+02 -0.10298243582E+03  0.33324818225E+02  0.11477458222E+03  0.47000000000E+01 0.  1.
         13    1    6    6    0    0  0.15920457331E+02 -0.18284702359E+02 -0.12744669153E+02  0.27390105765E+02  0.00000000000E+00 0. -1.
        -14    1    6    6    0    0 -0.25615120639E+02  0.41108447297E+02  0.31479450153E+02  0.57766725946E+02  0.00000000000E+00 0.  1.
</event>
<event>
12    1  0.1061634E+000  0.6721210E+03  0.7818608E-02  0.9767376E-01
         21   -1    0    0  501  502  0.00000000000E+00  0.00000000000E+00  0.62691999919E+03  0.62691999919E+03  0.00000000000E+00 0. -1.
         21   -1    0    0  502  503 -0.00000000000E+00 -0.00000000000E+00 -0.72864583843E+03  0.72864583843E+03  0.00000000000E+00 0. -1.
         -6    2    1    2    0  503  0.64947356157E+03  0.16431112242E+02  0.32368638588E+02  0.67289999208E+03  0.17222305872E+03 0.  0.
        -24    2    3    3    0    0  0.47027699818E+03  0.71554432704E+02  0.44504266556E+02  0.48496555602E+03  0.83249438040E+02 0.  0.
          6    2    1    2  501    0 -0.64947356157E+03 -0.16431112242E+02 -0.13409447783E+03  0.68266584554E+03  0.16113795040E+03 0.  0.
         24    2    5    5    0    0 -0.42507626149E+03 -0.72317208737E+02 -0.85572561733E+02  0.44633161102E+03  0.77263425462E+02 0.  0.
          5    1    5    5  501    0 -0.22439730008E+03  0.55886096495E+02 -0.48521916102E+02  0.23633423452E+03  0.47000000000E+01 0. -1.
        -13    1    6    6    0    0 -0.34573285648E+03 -0.27683060217E+02 -0.72897877042E+02  0.35441735334E+03  0.00000000000E+00 0.  1.
         14    1    6    6    0    0 -0.79343405005E+02 -0.44634148520E+02 -0.12674684690E+02  0.91914257675E+02  0.00000000000E+00 0. -1.
         -5    1    3    3    0  503  0.17919656339E+03 -0.55123320462E+02 -0.12135627968E+02  0.18793443606E+03  0.47000000000E+01 0.  1.
         13    1    4    4    0    0  0.16349089787E+02  0.14874281574E+02 -0.10032512460E+02  0.24273201179E+02  0.00000000000E+00 0. -1.
        -14    1    4    4    0    0  0.45392790839E+03  0.56680151130E+02  0.54536779015E+02  0.46069235484E+03  0.00000000000E+00 0.  1.
</event>
<event>
12    1  0.1061634E+000  0.2054312E+03  0.7818608E-02  0.1145421E+00
         21   -1    0    0  501  502  0.00000000000E+00  0.00000000000E+00  0.27162837199E+03  0.27162837199E+03  0.00000000000E+00 0.  1.
         21   -1    0    0  502  503 -0.00000000000E+00 -0.00000000000E+00 -0.39366953612E+03  0.39366953612E+03  0.00000000000E+00 0.  1.
         -6    2    1    2    0  503  0.92210799799E+01  0.10988650076E+03 -0.32015070854E+03  0.37990454441E+03  0.17225247550E+03 0.  0.
        -24    2    3    3    0    0  0.52060589320E+02  0.11646389181E+03 -0.29074614432E+03  0.32731933707E+03  0.79564344587E+02 0.  0.
          6    2    1    2  501    0 -0.92210799799E+01 -0.10988650076E+03  0.19810954440E+03  0.28539336371E+03  0.17332601968E+03 0.  0.
         24    2    5    5    0    0  0.20491536819E+02 -0.11019806937E+03  0.21104504155E+03  0.25264655075E+03  0.82016781652E+02 0.  0.
          5    1    5    5  501    0 -0.29712616799E+02  0.31156860665E+00 -0.12935497147E+02  0.32746812951E+02  0.47000000000E+01 0. -1.
        -11    1    6    6    0    0  0.14373819926E+02 -0.25044851556E+02  0.13583439785E+03  0.13886984888E+03  0.00000000000E+00 0.  1.
         12    1    6    6    0    0  0.61177168933E+01 -0.85153217811E+02  0.75210643694E+02  0.11377670187E+03  0.00000000000E+00 0. -1.
         -5    1    3    3    0  503 -0.42839509340E+02 -0.65773910452E+01 -0.29404564217E+02  0.52585207333E+02  0.47000000000E+01 0.  1.
         13    1    4    4    0    0  0.92849757890E+01  0.91517806281E+02 -0.23706831978E+03  0.25428941757E+03  0.00000000000E+00 0. -1.
        -14    1    4    4    0    0  0.42775613531E+02  0.24946085525E+02 -0.53677824538E+02  0.73029919506E+02  0.00000000000E+00 0.  1.
</event>
<event>
12    1  0.1061634E+000  0.3460093E+03  0.7818608E-02  0.1064325E+00
         21   -1    0    0  501  502  0.00000000000E+00  0.00000000000E+00  0.40899020521E+03  0.40899020521E+03  0.00000000000E+00 0.  1.
         21   -1    0    0  502  503 -0.00000000000E+00 -0.00000000000E+00 -0.55095397096E+03  0.55095397096E+03  0.00000000000E+00 0.  1.
         -6    2    1    2    0  503 -0.24275293238E+03  0.17479903983E+03  0.25795179189E+03  0.43112011833E+03  0.17274761643E+03 0.  0.
        -24    2    3    3    0    0 -0.24671657730E+03  0.11251177393E+03  0.20606366598E+03  0.34981894007E+03  0.79894227636E+02 0.  0.
          6    2    1    2  501    0  0.24275293238E+03 -0.17479903983E+03 -0.39991555764E+03  0.52882405785E+03  0.17389289925E+03 0.  0.
         24    2    5    5    0    0  0.19158945013E+03 -0.72749361463E+02 -0.32456498770E+03  0.39196048650E+03  0.79319636551E+02 0.  0.
          5    1    5    5  501    0  0.51163482242E+02 -0.10204967837E+03 -0.75350569941E+02  0.13686357135E+03  0.47000000000E+01 0. -1.
        -11    1    6    6    0    0  0.32184037441E+00  0.20098940061E+01 -0.45155418582E+02  0.45201273018E+02  0.00000000000E+00 0.  1.
         12    1    6    6    0    0  0.19126760976E+03 -0.74759255469E+02 -0.27940956912E+03  0.34675921348E+03  0.00000000000E+00 0. -1.
         -5    1    3    3    0  503  0.39636449260E+01  0.62287265903E+02  0.51888125916E+02  0.81301178256E+02  0.47000000000E+01 0.  1.
         11    1    4    4    0    0 -0.21016423927E+03  0.84357718064E+02  0.20206938201E+03  0.30350826548E+03  0.00000000000E+00 0. -1.
        -12    1    4    4    0    0 -0.36552338029E+02  0.28154055868E+02  0.39942839645E+01  0.46310674597E+02  0.00000000000E+00 0.  1.
</event>
<event>
12    1  0.1061634E+000  0.3410061E+03  0.7818608E-02  0.1066446E+00
         21   -1    0    0  501  502  0.00000000000E+00  0.00000000000E+00  0.47724783210E+03  0.47724783210E+03  0.00000000000E+00 0.  1.
         21   -1    0    0  502  503 -0.00000000000E+00 -0.00000000000E+00 -0.34517310010E+03  0.34517310010E+03  0.00000000000E+00 0.  1.
         -6    2    1    2    0  503  0.70283385041E+02  0.28584187855E+03  0.28956596074E+03  0.44680323741E+03  0.17070252953E+03 0.  0.
        -24    2    3    3    0    0  0.17637341782E+02  0.10048966340E+03  0.49165866890E+02  0.13867770348E+03  0.80031085839E+02 0.  0.
          6    2    1    2  501    0 -0.70283385041E+02 -0.28584187855E+03 -0.15749122875E+03  0.37561769479E+03  0.17216222513E+03 0.  0.
         24    2    5    5    0    0 -0.16457015948E+02 -0.80869763420E+02 -0.10838282772E+03  0.15802961828E+03  0.80098507463E+02 0.  0.
          5    1    5    5  501    0 -0.53826369094E+02 -0.20497211513E+03 -0.49108401023E+02  0.21758807652E+03  0.47000000000E+01 0. -1.
        -13    1    6    6    0    0  0.73917140141E+01  0.14329844592E+02 -0.22072584118E+02  0.27334609046E+02  0.00000000000E+00 0.  1.
         14    1    6    6    0    0 -0.23848729962E+02 -0.95199608012E+02 -0.86310243606E+02  0.13069500923E+03  0.00000000000E+00 0. -1.
         -5    1    3    3    0  503  0.52646043260E+02  0.18535221516E+03  0.24040009385E+03  0.30812553393E+03  0.47000000000E+01 0.  1.
         13    1    4    4    0    0  0.33641192667E+02  0.17833814155E+02  0.37922916348E+02  0.53739392960E+02  0.00000000000E+00 0. -1.
        -14    1    4    4    0    0 -0.16003850885E+02  0.82655849240E+02  0.11242950542E+02  0.84938310518E+02  0.00000000000E+00 0.  1.
</event>
<event>
12    1  0.1061634E+000  0.1795351E+03  0.7818608E-02  0.1168803E+00
         21   -1    0    0  501  502  0.00000000000E+00  0.00000000000E+00  0.14983715293E+03  0.14983715293E+03  0.00000000000E+00 0. -1.
         21   -1    0    0  502  503 -0.00000000000E+00 -0.00000000000E+00 -0.23672508894E+03  0.23672508894E+03  0.00000000000E+00 0. -1.
         -6    2    1    2    0  503  0.30428083362E+02 -0.40377900861E+02  0.18712213942E+02  0.17827340396E+03  0.16992650315E+03 0.  0.
        -24    2    3    3    0    0  0.65224485813E+02 -0.14605462718E+02  0.60720840604E+02  0.11776040614E+03  0.75583990896E+02 0.  0.
          6    2    1    2  501    0 -0.30428083362E+02  0.40377900861E+02 -0.10560014996E+03  0.20828883791E+03  0.17226899080E+03 0.  0.
         24    2    5    5    0    0 -0.18121592796E+02  0.96449188493E+02 -0.69537786903E+02  0.14033280038E+03  0.72297669184E+02 0.  0.
          5    1    5    5  501    0 -0.12306490566E+02 -0.56071287632E+02 -0.36062363057E+02  0.67956037524E+02  0.47000000000E+01 0. -1.
        -13    1    6    6    0    0  0.16897587890E+02  0.71752984381E+02 -0.63032717107E+02  0.96990425661E+02  0.00000000000E+00 0.  1.
         14    1    6    6    0    0 -0.35019180686E+02  0.24696204112E+02 -0.65050697960E+01  0.43342374721E+02  0.00000000000E+00 0. -1.
         -5    1    3    3    0  503 -0.34796402451E+02 -0.25772438143E+02 -0.42008626661E+02  0.60512997821E+02  0.47000000000E+01 0.  1.
         13    1    4    4    0    0 -0.44932133942E+00  0.19406182772E+02  0.33946930097E+02  0.39104934247E+02  0.00000000000E+00 0. -1.
        -14    1    4    4    0    0  0.65673807152E+02 -0.34011645490E+02  0.26773910507E+02  0.78655471892E+02  0.00000000000E+00 0.  1.
</event>
<event>
12    1  0.1061634E+000  0.3226754E+03  0.7818608E-02  0.1074508E+00
         21   -1    0    0  501  502  0.00000000000E+00  0.00000000000E+00  0.37260482656E+03  0.37260482656E+03  0.00000000000E+00 0. -1.
         21   -1    0    0  502  503 -0.00000000000E+00 -0.00000000000E+00 -0.34098863117E+03  0.34098863117E+03  0.00000000000E+00 0.  1.
         -6    2    1    2    0  503  0.26393442042E+03  0.70643691574E+02  0.16815877238E+03  0.36321748876E+03  0.17028699883E+03 0.  0.
        -24    2    3    3    0    0  0.62055747662E+02  0.61396727444E+02  0.77432381004E+02  0.14164611662E+03  0.80295546370E+02 0.  0.
          6    2    1    2  501    0 -0.26393442042E+03 -0.70643691574E+02 -0.13654257699E+03  0.35037596897E+03  0.17166110469E+03 0.  0.
         24    2    5    5    0    0 -0.11948615579E+03 -0.99864076510E+02 -0.81388898024E+02  0.19294931826E+03  0.79721461945E+02 0.  0.
          5    1    5    5  501    0 -0.14444826463E+03  0.29220384936E+02 -0.55153678969E+02  0.15742665071E+03  0.47000000000E+01 0. -1.
        -11    1    6    6    0    0 -0.21838624183E+02 -0.65806866590E+02 -0.47796787953E+02  0.84214025763E+02  0.00000000000E+00 0.  1.
         12    1    6    6    0    0 -0.97647531607E+02 -0.34057209921E+02 -0.33592110070E+02  0.10873529250E+03  0.00000000000E+00 0. -1.
         -5    1    3    3    0  503  0.20187867276E+03  0.92469641303E+01  0.90726391372E+02  0.22157137214E+03  0.47000000000E+01 0.  1.
         13    1    4    4    0    0  0.26392526454E+02 -0.14091713147E+02  0.40501668475E+02  0.50354016536E+02  0.00000000000E+00 0. -1.
        -14    1    4    4    0    0  0.35663221208E+02  0.75488440591E+02  0.36930712529E+02  0.91292100084E+02  0.00000000000E+00 0.  1.
</event>
<event>
12    1  0.1061634E+000  0.1774711E+03  0.7818608E-02  0.1170563E+00
         21   -1    0    0  501  502  0.00000000000E+00  0.00000000000E+00  0.21160996357E+04  0.21160996357E+04  0.00000000000E+00 0.  1.
         21   -1    0    0  502  503 -0.00000000000E+00 -0.00000000000E+00 -0.14854376633E+02  0.14854376633E+02  0.00000000000E+00 0.  1.
         -6    2    1    2    0  503  0.18839224367E+02 -0.35475774556E+02  0.97483480392E+03  0.99064857292E+03  0.17166319679E+03 0.  0.
        -24    2    3    3    0    0  0.72398550636E+02 -0.48372403725E+02  0.73426965676E+03  0.74381137049E+03  0.80758816559E+02 0.  0.
          6    2    1    2  501    0 -0.18839224367E+02  0.35475774556E+02  0.11264104552E+04  0.11403054395E+04  0.17286565520E+03 0.  0.
         24    2    5    5    0    0  0.27061123207E+02 -0.25668056330E+02  0.81022621344E+03  0.81497487727E+03  0.79538544962E+02 0.  0.
          5    1    5    5  501    0 -0.45900347573E+02  0.61143830886E+02  0.31618424175E+03  0.32533056219E+03  0.47000000000E+01 0. -1.
        -11    1    6    6    0    0  0.50881025355E+02 -0.64785050029E+00  0.38508363131E+03  0.38843107697E+03  0.00000000000E+00 0.  1.
         12    1    6    6    0    0 -0.23819902148E+02 -0.25020205830E+02  0.42514258213E+03  0.42654380031E+03  0.00000000000E+00 0. -1.
         -5    1    3    3    0  503 -0.53559326269E+02  0.12896629169E+02  0.24056514716E+03  0.24683720243E+03  0.47000000000E+01 0.  1.
         13    1    4    4    0    0  0.79050441405E+02 -0.13820675003E+02  0.42173131479E+03  0.42929859680E+03  0.00000000000E+00 0. -1.
        -14    1    4    4    0    0 -0.66518907693E+01 -0.34551728723E+02  0.31253834197E+03  0.31451277368E+03  0.00000000000E+00 0.  1.
</event>
<event>
12    1  0.1061634E+000  0.3128264E+03  0.7818608E-02  0.1079124E+00
         21   -1    0    0  501  502  0.00000000000E+00  0.00000000000E+00  0.11801730618E+04  0.11801730618E+04  0.00000000000E+00 0. -1.
         21   -1    0    0  502  503 -0.00000000000E+00 -0.00000000000E+00 -0.84588397219E+02  0.84588397219E+02  0.00000000000E+00 0. -1.
         -6    2    1    2    0  503  0.25753325040E+03 -0.43032707014E+02  0.45095691803E+03  0.54823839865E+03  0.17037608665E+03 0.  0.
        -24    2    3    3    0    0  0.18445654148E+03  0.34190308195E+02  0.31969288271E+03  0.37925338028E+03  0.80227142113E+02 0.  0.
          6    2    1    2  501    0 -0.25753325040E+03  0.43032707014E+02  0.64462774651E+03  0.71652306032E+03  0.17229386370E+03 0.  0.
         24    2    5    5    0    0 -0.12647759988E+03 -0.57606738956E+01  0.46715794502E+03  0.49052748958E+03  0.79692558008E+02 0.  0.
          5    1    5    5  501    0 -0.13105565053E+03  0.48793380909E+02  0.17746980148E+03  0.22599557074E+03  0.47000000000E+01 0. -1.
        -13    1    6    6    0    0 -0.10944107412E+03 -0.33137222735E+02  0.31827552248E+03  0.33819333590E+03  0.00000000000E+00 0.  1.
         14    1    6    6    0    0 -0.17036525755E+02  0.27376548839E+02  0.14888242254E+03  0.15233415368E+03  0.00000000000E+00 0. -1.
         -5    1    3    3    0  503  0.73076708921E+02 -0.77223015208E+02  0.13126403532E+03  0.16898501837E+03  0.47000000000E+01 0.  1.
         13    1    4    4    0    0  0.88146136994E+02  0.36228257740E+01  0.22121684172E+03  0.23815910101E+03  0.00000000000E+00 0. -1.
        -14    1    4    4    0    0  0.96310404490E+02  0.30567482421E+02  0.98476040983E+02  0.14109427927E+03  0.00000000000E+00 0.  1.
</event>
<event>
12    1  0.1061634E+000  0.2390888E+03  0.7818608E-02  0.1120994E+00
         21   -1    0    0  503  502  0.00000000000E+00  0.00000000000E+00  0.71276001340E+02  0.71276001340E+02  0.00000000000E+00 0.  1.
         21   -1    0    0  501  503 -0.00000000000E+00 -0.00000000000E+00 -0.96350612063E+03  0.96350612063E+03  0.00000000000E+00 0.  1.
          6    2    1    2  501    0  0.12943637899E-01  0.16245123338E+03 -0.22402136962E+03  0.32508755243E+03  0.17060462862E+03 0.  0.
         24    2    3    3    0    0  0.25507258535E+02  0.29961388524E+02 -0.14399952259E+03  0.16815092483E+03  0.77398746594E+02 0.  0.
         -6    2    1    2    0  502 -0.12943637899E-01 -0.16245123338E+03 -0.66820874967E+03  0.70969456954E+03  0.17542247719E+03 0.  0.
        -24    2    5    5    0    0 -0.14200067660E+01 -0.19017384629E+03 -0.62306198447E+03  0.65648889784E+03  0.81260865458E+02 0.  0.
          5    1    3    3  501    0 -0.25494314897E+02  0.13248984485E+03 -0.80021847025E+02  0.15693662760E+03  0.47000000000E+01 0. -1.
        -11    1    4    4    0    0 -0.27466381742E+02  0.54573007727E+01 -0.55023077617E+02  0.61739155551E+02  0.00000000000E+00 0.  1.
         12    1    4    4    0    0  0.52973640277E+02  0.24504087752E+02 -0.88976444977E+02  0.10641176928E+03  0.00000000000E+00 0. -1.
         -5    1    5    5    0  502  0.14070631281E+01  0.27722612915E+02 -0.45146765197E+02  0.53205671701E+02  0.47000000000E+01 0.  1.
         11    1    6    6    0    0  0.26315236434E+02 -0.11871395987E+03 -0.46766941130E+03  0.48321855739E+03  0.00000000000E+00 0. -1.
        -12    1    6    6    0    0 -0.27735243200E+02 -0.71459886418E+02 -0.15539257317E+03  0.17327034045E+03  0.00000000000E+00 0.  1.
</event>
<event>
12    1  0.1061634E+000  0.2361001E+03  0.7818608E-02  0.1122473E+00
         21   -1    0    0  503  502  0.00000000000E+00  0.00000000000E+00  0.46835421390E+02  0.46835421390E+02  0.00000000000E+00 0.  1.
         21   -1    0    0  501  503 -0.00000000000E+00 -0.00000000000E+00 -0.17782236650E+04  0.17782236650E+04  0.00000000000E+00 0.  1.
          6    2    1    2  501    0  0.14111092051E+03 -0.74849899410E+02 -0.34061373527E+03  0.41444055556E+03  0.17386333169E+03 0.  0.
         24    2    3    3    0    0  0.14733056935E+02  0.84745188787E+01 -0.14883995675E+03  0.17007690194E+03  0.80522912322E+02 0.  0.
         -6    2    1    2    0  502 -0.14111092051E+03  0.74849899410E+02 -0.13907745083E+04  0.14106185308E+04  0.17342464403E+03 0.  0.
        -24    2    5    5    0    0 -0.11911424660E+02  0.69515005363E+02 -0.58401807655E+03  0.59355121350E+03  0.79067763991E+02 0.  0.
          5    1    3    3  501    0  0.12637786357E+03 -0.83324418289E+02 -0.19177377852E+03  0.24436365362E+03  0.47000000000E+01 0. -1.
        -11    1    4    4    0    0  0.31858299589E+02  0.47343315046E+01 -0.15777718518E+02  0.35865046342E+02  0.00000000000E+00 0.  1.
         12    1    4    4    0    0 -0.17125242655E+02  0.37401873741E+01 -0.13306223824E+03  0.13421185559E+03  0.00000000000E+00 0. -1.
         -5    1    5    5    0  502 -0.12919949585E+03  0.53348940466E+01 -0.80675643177E+03  0.81706731732E+03  0.47000000000E+01 0.  1.
         11    1    6    6    0    0  0.26888798719E+02  0.24696348651E+02 -0.11140336204E+03  0.11723321290E+03  0.00000000000E+00 0. -1.
        -12    1    6    6    0    0 -0.38800223379E+02  0.44818656712E+02 -0.47261471451E+03  0.47631800060E+03  0.00000000000E+00 0.  1.
</event>
<event>
12    1  0.1061634E+000  0.2189083E+03  0.7818608E-02  0.1134784E+00
         21   -1    0    0  503  502  0.00000000000E+00  0.00000000000E+00  0.28438227225E+03  0.28438227225E+03  0.00000000000E+00 0. -1.
         21   -1    0    0  501  503 -0.00000000000E+00 -0.00000000000E+00 -0.21648414470E+03  0.21648414470E+03  0.00000000000E+00 0.  1.
          6    2    1    2  501    0 -0.58039214389E+02  0.12163218723E+03 -0.84393099657E+02  0.23419533266E+03  0.17193696285E+03 0.  0.
         24    2    3    3    0    0 -0.25578751830E+02  0.15071363034E+03 -0.80721285880E+02  0.19020687759E+03  0.79333847594E+02 0.  0.
         -6    2    1    2    0  502  0.58039214389E+02 -0.12163218723E+03  0.15229122721E+03  0.26667108429E+03  0.17250481133E+03 0.  0.
        -24    2    5    5    0    0  0.89947050239E+02 -0.40978105491E+02  0.11820864949E+03  0.17336029716E+03  0.79440737917E+02 0.  0.
          5    1    3    3  501    0 -0.32460462559E+02 -0.29081443110E+02 -0.36718137766E+01  0.43988455069E+02  0.47000000000E+01 0. -1.
        -11    1    4    4    0    0  0.64762010399E+01  0.48375792595E+02 -0.65811411734E+02  0.81934732584E+02  0.00000000000E+00 0.  1.
         12    1    4    4    0    0 -0.32054952870E+02  0.10233783774E+03 -0.14909874146E+02  0.10827214501E+03  0.00000000000E+00 0. -1.
         -5    1    5    5    0  502 -0.31907835850E+02 -0.80654081739E+02  0.34082577720E+02  0.93310787124E+02  0.47000000000E+01 0.  1.
         11    1    6    6    0    0 -0.10235051078E+02 -0.12399222161E+02  0.39944472595E+02  0.43058772296E+02  0.00000000000E+00 0. -1.
        -12    1    6    6    0    0  0.10018210132E+03 -0.28578883329E+02  0.78264176896E+02  0.13030152486E+03  0.00000000000E+00 0.  1.
</event>
<event>
12    1  0.1061634E+000  0.4594573E+03  0.7818608E-02  0.1024941E+00
         21   -1    0    0  503  502  0.00000000000E+00  0.00000000000E+00  0.17121827015E+03  0.17121827015E+03  0.00000000000E+00 0.  1.
         21   -1    0    0  501  503 -0.00000000000E+00 -0.00000000000E+00 -0.12362817511E+04  0.12362817511E+04  0.00000000000E+00 0. -1.
          6    2    1    2  501    0  0.24038078225E+03  0.35240335149E+03 -0.56958600494E+03  0.73177898259E+03  0.17059079613E+03 0.  0.
         24    2    3    3    0    0  0.12881897472E+03  0.29194897939E+03 -0.37080716372E+03  0.49590637774E+03  0.81219751273E+02 0.  0.
         -6    2    1    2    0  502 -0.24038078225E+03 -0.35240335149E+03 -0.49547747598E+03  0.67572103864E+03  0.17067498421E+03 0.  0.
        -24    2    5    5    0    0 -0.38936529484E+02 -0.12452387768E+03 -0.15586913109E+03  0.21979915994E+03  0.83631544544E+02 0.  0.
          5    1    3    3  501    0  0.11156180752E+03  0.60454372093E+02 -0.19877884121E+03  0.23587260485E+03  0.47000000000E+01 0. -1.
        -13    1    4    4    0    0 -0.82009352476E+01  0.52889072449E+02 -0.53851737032E+02  0.75924428906E+02  0.00000000000E+00 0.  1.
         14    1    4    4    0    0  0.13701990997E+03  0.23905990695E+03 -0.31695542669E+03  0.41998194883E+03  0.00000000000E+00 0. -1.
         -5    1    5    5    0  502 -0.20144425276E+03 -0.22787947381E+03 -0.33960834490E+03  0.45592187870E+03  0.47000000000E+01 0.  1.
         13    1    6    6    0    0 -0.28172512670E+02 -0.97127359102E+02 -0.16079579494E+03  0.18995447356E+03  0.00000000000E+00 0. -1.
        -14    1    6    6    0    0 -0.10764016814E+02 -0.27396518575E+02  0.49266638520E+01  0.29844686374E+02  0.00000000000E+00 0.  1.
</event>
<event>
12    1  0.1061634E+000  0.1979113E+03  0.7818608E-02  0.1151597E+00
         21   -1    0    0  501  502  0.00000000000E+00  0.00000000000E+00  0.55230227225E+02  0.55230227225E+02  0.00000000000E+00 0.  1.
         21   -1    0    0  502  503 -0.00000000000E+00 -0.00000000000E+00 -0.72642699300E+03  0.72642699300E+03  0.00000000000E+00 0.  1.
         -6    2    1    2    0  503 -0.94732035398E+02  0.24822949292E+02 -0.39852935442E+03  0.44496576656E+03  0.17198415547E+03 0.  0.
        -24    2    3    3    0    0  0.32740901664E+00  0.40031362132E+02 -0.26891345513E+03  0.28344188244E+03  0.80138862099E+02 0.  0.
          6    2    1    2  501    0  0.94732035398E+02 -0.24822949292E+02 -0.27266741136E+03  0.33669145367E+03  0.17153215563E+03 0.  0.
         24    2    5    5    0    0 -0.67719871416E+01 -0.44966614668E+02 -0.10516604332E+03  0.13974569428E+03  0.80006913186E+02 0.  0.
          5    1    5    5  501    0  0.10150402254E+03  0.20143665376E+02 -0.16750136803E+03  0.19694575939E+03  0.47000000000E+01 0. -1.
        -11    1    6    6    0    0  0.30011335550E+02 -0.31942131864E+02 -0.85430965410E+02  0.96017862403E+02  0.00000000000E+00 0.  1.
         12    1    6    6    0    0 -0.36783322692E+02 -0.13024482804E+02 -0.19735077911E+02  0.43727831877E+02  0.00000000000E+00 0. -1.
         -5    1    3    3    0  503 -0.95059444415E+02 -0.15208412840E+02 -0.12961589929E+03  0.16152388412E+03  0.47000000000E+01 0.  1.
         11    1    4    4    0    0 -0.39290138974E+01  0.44027473458E+02 -0.60399512656E+02  0.74846220335E+02  0.00000000000E+00 0. -1.
        -12    1    4    4    0    0  0.42564229140E+01 -0.39961113262E+01 -0.20851394248E+03  0.20859566210E+03  0.00000000000E+00 0.  1.
</event>
<event>
12    1  0.1061634E+000  0.2041462E+03  0.7818608E-02  0.1146288E+00
         21   -1    0    0  503  502  0.00000000000E+00  0.00000000000E+00  0.59725223007E+03  0.59725223007E+03  0.00000000000E+00 0. -1.
         21   -1    0    0  501  503 -0.00000000000E+00 -0.00000000000E+00 -0.69833378047E+02  0.69833378047E+02  0.00000000000E+00 0. -1.
          6    2    1    2  501    0 -0.10196209808E+03  0.40770082868E+02  0.27308010174E+03  0.34095083671E+03  0.17209375929E+03 0.  0.
         24    2    3    3    0    0 -0.84813393427E+02 -0.38679937518E+02  0.17193696328E+03  0.21111090345E+03  0.79473548711E+02 0.  0.
         -6    2    1    2    0  502  0.10196209808E+03 -0.40770082868E+02  0.25433875029E+03  0.32613477141E+03  0.17209654303E+03 0.  0.
        -24    2    5    5    0    0  0.81901200609E+02  0.30991183831E+02  0.17314529711E+03  0.21583252373E+03  0.94531075576E+02 0.  0.
          5    1    3    3  501    0 -0.17148704655E+02  0.79450020386E+02  0.10114313846E+03  0.12983993326E+03  0.47000000000E+01 0. -1.
        -13    1    4    4    0    0 -0.18674708915E+02  0.37090736891E+00 -0.40331705680E+01  0.19108866795E+02  0.00000000000E+00 0.  1.
         14    1    4    4    0    0 -0.66138684511E+02 -0.39050844887E+02  0.17597013385E+03  0.19200203666E+03  0.00000000000E+00 0. -1.
         -5    1    5    5    0  502  0.20060897473E+02 -0.71761266698E+02  0.81193453176E+02  0.11030224768E+03  0.47000000000E+01 0.  1.
         13    1    6    6    0    0 -0.77672460613E+01 -0.22186649327E+02  0.21823181778E+02  0.32075360990E+02  0.00000000000E+00 0. -1.
        -14    1    6    6    0    0  0.89668446670E+02  0.53177833157E+02  0.15132211534E+03  0.18375716274E+03  0.00000000000E+00 0.  1.
</event>
<event>
12    1  0.1061634E+000  0.2157291E+03  0.7818608E-02  0.1139009E+00
         21   -1    0    0  501  502  0.00000000000E+00  0.00000000000E+00  0.65235082831E+03  0.65235082831E+03  0.00000000000E+00 0.  1.
         21   -1    0    0  502  503 -0.00000000000E+00 -0.00000000000E+00 -0.68837450235E+02  0.68837450235E+02  0.00000000000E+00 0.  1.
         -6    2    1    2    0  503 -0.91162043960E+02  0.77975530386E+02  0.32064641477E+03  0.38113227290E+03  0.16750219263E+03 0.  0.
        -24    2    3    3    0    0 -0.11602555086E+03  0.99739199749E+02  0.26696862675E+03  0.31792431290E+03  0.79961144605E+02 0.  0.
          6    2    1    2  501    0  0.91162043960E+02 -0.77975530386E+02  0.26286696330E+03  0.34005600565E+03  0.17929959561E+03 0.  0.
         24    2    5    5    0    0  0.11263708550E+02  0.26306568554E+02  0.11761935599E+03  0.14415435280E+03  0.78276802743E+02 0.  0.
          5    1    5    5  501    0  0.79898335410E+02 -0.10428209894E+03  0.14524760731E+03  0.19590165285E+03  0.47000000000E+01 0. -1.
        -13    1    6    6    0    0 -0.13887902860E+02 -0.18158271884E+02  0.72423996928E+02  0.75946244244E+02  0.00000000000E+00 0.  1.
         14    1    6    6    0    0  0.25151611410E+02  0.44464840439E+02  0.45195359060E+02  0.68208108552E+02  0.00000000000E+00 0. -1.
         -5    1    3    3    0  503  0.24863506899E+02 -0.21763669363E+02  0.53677788026E+02  0.63207959995E+02  0.47000000000E+01 0.  1.
         13    1    4    4    0    0 -0.12196952247E+03  0.77729193505E+02  0.25229691764E+03  0.29081287211E+03  0.00000000000E+00 0. -1.
        -14    1    4    4    0    0  0.59439716141E+01  0.22010006244E+02  0.14671709104E+02  0.27111440785E+02  0.00000000000E+00 0.  1.
</event>
<event>
12    1  0.1061634E+000  0.3587029E+03  0.7818608E-02  0.1059124E+00
         21   -1    0    0  501  502  0.00000000000E+00  0.00000000000E+00  0.15401266883E+03  0.15401266883E+03  0.00000000000E+00 0.  1.
         21   -1    0    0  502  503 -0.00000000000E+00 -0.00000000000E+00 -0.99498413375E+03  0.99498413375E+03  0.00000000000E+00 0.  1.
         -6    2    1    2    0  503 -0.13590812967E+03 -0.28344002717E+03 -0.19013029924E+03  0.40597699690E+03  0.17279618805E+03 0.  0.
        -24    2    3    3    0    0 -0.75362574960E+02 -0.24500299237E+03 -0.85486355569E+02  0.27902970552E+03  0.69596520043E+02 0.  0.
          6    2    1    2  501    0  0.13590812967E+03  0.28344002717E+03 -0.65084116568E+03  0.74301980568E+03  0.17226415757E+03 0.  0.
         24    2    5    5    0    0  0.32420100526E+02  0.19812290705E+03 -0.33179831577E+03  0.39689957622E+03  0.84471309000E+02 0.  0.
          5    1    5    5  501    0  0.10348802914E+03  0.85317120123E+02 -0.31904284991E+03  0.34612022946E+03  0.47000000000E+01 0. -1.
        -13    1    6    6    0    0 -0.16090230435E+02  0.26952004589E+02 -0.99279922278E+02  0.10412400796E+03  0.00000000000E+00 0.  1.
         14    1    6    6    0    0  0.48510330961E+02  0.17117090246E+03 -0.23251839349E+03  0.29277556826E+03  0.00000000000E+00 0. -1.
         -5    1    3    3    0  503 -0.60545554711E+02 -0.38437034806E+02 -0.10464394367E+03  0.12694729138E+03  0.47000000000E+01 0.  1.
         11    1    4    4    0    0  0.37224684353E+01 -0.91284959120E+02 -0.16166816281E+02  0.92780205225E+02  0.00000000000E+00 0. -1.
        -12    1    4    4    0    0 -0.79085043395E+02 -0.15371803325E+03 -0.69319539288E+02  0.18624950030E+03  0.00000000000E+00 0.  1.
</event>
<event>
12    1  0.1061634E+000  0.1751367E+03  0.7818608E-02  0.1172643E+00
         21   -1    0    0  501  502  0.00000000000E+00  0.00000000000E+00  0.45977226141E+02  0.45977226141E+02  0.00000000000E+00 0. -1.
         21   -1    0    0  502  503 -0.00000000000E+00 -0.00000000000E+00 -0.71455236151E+03  0.71455236151E+03  0.00000000000E+00 0. -1.
         -6    2    1    2    0  503  0.25415754110E+02  0.84117877939E+01 -0.23538805140E+03  0.29327813602E+03  0.17288091739E+03 0.  0.
        -24    2    3    3    0    0 -0.35982500077E+02  0.31103095060E+01 -0.20589648527E+03  0.22479679724E+03  0.82679036435E+02 0.  0.
          6    2    1    2  501    0 -0.25415754110E+02 -0.84117877939E+01 -0.43318708397E+03  0.46725145163E+03  0.17307845214E+03 0.  0.
         24    2    5    5    0    0  0.52100147746E+02  0.45756817440E+01 -0.26014845590E+03  0.27714136191E+03  0.79967200260E+02 0.  0.
          5    1    5    5  501    0 -0.77515901856E+02 -0.12987469538E+02 -0.17303862808E+03  0.19011008972E+03  0.47000000000E+01 0. -1.
        -11    1    6    6    0    0  0.33419446074E+02  0.40779667647E+02 -0.11744946521E+03  0.12874089306E+03  0.00000000000E+00 0.  1.
         12    1    6    6    0    0  0.18680701672E+02 -0.36203985903E+02 -0.14269899069E+03  0.14840046885E+03  0.00000000000E+00 0. -1.
         -5    1    3    3    0  503  0.61398254187E+02  0.53014782879E+01 -0.29491566129E+02  0.68481338786E+02  0.47000000000E+01 0.  1.
         11    1    4    4    0    0 -0.23166589200E+02 -0.32424240190E+02 -0.47713544021E+02  0.62165943169E+02  0.00000000000E+00 0. -1.
        -12    1    4    4    0    0 -0.12815910877E+02  0.35534549696E+02 -0.15818294125E+03  0.16263085407E+03  0.00000000000E+00 0.  1.
</event>
<event>
12    1  0.1061634E+000  0.2378296E+03  0.7818608E-02  0.1121599E+00
         21   -1    0    0  501  502  0.00000000000E+00  0.00000000000E+00  0.35100555075E+02  0.35100555075E+02  0.00000000000E+00 0.  1.
         21   -1    0    0  502  503 -0.00000000000E+00 -0.00000000000E+00 -0.28179278097E+04  0.28179278097E+04  0.00000000000E+00 0.  1.
         -6    2    1    2    0  503  0.51654071114E+02  0.15294674424E+03 -0.23267697505E+04  0.23386828051E+04  0.17181077179E+03 0.  0.
        -24    2    3    3    0    0  0.25849044580E+01  0.13136765400E+03 -0.10554538117E+04  0.10662285833E+04  0.74809765339E+02 0.  0.
          6    2    1    2  501    0 -0.51654071114E+02 -0.15294674424E+03 -0.45605750415E+03  0.51434555971E+03  0.17464838412E+03 0.  0.
         24    2    5    5    0    0  0.18027396554E+01 -0.10255239311E+03 -0.14912116135E+03  0.19870457732E+03  0.82013078718E+02 0.  0.
          5    1    5    5  501    0 -0.53456810769E+02 -0.50394351136E+02 -0.30693634279E+03  0.31564098240E+03  0.47000000000E+01 0. -1.
        -13    1    6    6    0    0  0.31429364768E+02 -0.58000618122E+02 -0.12206190157E+03  0.13874791705E+03  0.00000000000E+00 0.  1.
         14    1    6    6    0    0 -0.29626625112E+02 -0.44551774983E+02 -0.27059259787E+02  0.59956660263E+02  0.00000000000E+00 0. -1.
         -5    1    3    3    0  503  0.49069166656E+02  0.21579090239E+02 -0.12713159388E+04  0.12724542218E+04  0.47000000000E+01 0.  1.
         13    1    4    4    0    0  0.28314897657E+02  0.33953220475E+02 -0.19801561126E+03  0.20289094833E+03  0.00000000000E+00 0. -1.
        -14    1    4    4    0    0 -0.25729993199E+02  0.97414433527E+02 -0.85743820044E+03  0.86333763499E+03  0.00000000000E+00 0.  1.
</event>
<event>
12    1  0.1061634E+000  0.3913481E+03  0.7818608E-02  0.1046841E+00
         21   -1    0    0  501  502  0.00000000000E+00  0.00000000000E+00  0.11660418937E+03  0.11660418937E+03  0.00000000000E+00 0.  1.
         21   -1    0    0  502  503 -0.00000000000E+00 -0.00000000000E+00 -0.14518394164E+04  0.14518394164E+04  0.00000000000E+00 0. -1.
         -6    2    1    2    0  503 -0.35130761097E+03 -0.25577370241E+02 -0.42492830099E+03  0.57768274853E+03  0.17053462279E+03 0.  0.
        -24    2    3    3    0    0 -0.30419798332E+03 -0.40884207429E+02 -0.27681168386E+03  0.42143218517E+03  0.82294877705E+02 0.  0.
          6    2    1    2  501    0  0.35130761097E+03  0.25577370241E+02 -0.91030692601E+03  0.99076085721E+03  0.16993274327E+03 0.  0.
         24    2    5    5    0    0  0.80666832875E+02  0.49643254723E+01 -0.19390660773E+03  0.22465196520E+03  0.79604965250E+02 0.  0.
          5    1    5    5  501    0  0.27064077810E+03  0.20613044769E+02 -0.71640031828E+03  0.76610889201E+03  0.47000000000E+01 0. -1.
        -11    1    6    6    0    0  0.63886695398E+02 -0.28365657730E+02 -0.88126231894E+02  0.11248267927E+03  0.00000000000E+00 0.  1.
         12    1    6    6    0    0  0.16780137477E+02  0.33329983203E+02 -0.10578037584E+03  0.11216928593E+03  0.00000000000E+00 0. -1.
         -5    1    3    3    0  503 -0.47109627651E+02  0.15306837188E+02 -0.14811661713E+03  0.15625056336E+03  0.47000000000E+01 0.  1.
         13    1    4    4    0    0 -0.33946097728E+02 -0.10958978391E+02 -0.74237966714E+02  0.82363295589E+02  0.00000000000E+00 0. -1.
        -14    1    4    4    0    0 -0.27025188559E+03 -0.29925229037E+02 -0.20257371715E+03  0.33906888958E+03  0.00000000000E+00 0.  1.
</event>
<event>
12    1  0.1061634E+000  0.3363543E+03  0.7818608E-02  0.1068443E+00
         21   -1    0    0  501  502  0.00000000000E+00  0.00000000000E+00  0.21762025225E+04  0.21762025225E+04  0.00000000000E+00 0. -1.
         21   -1    0    0  502  503 -0.00000000000E+00 -0.00000000000E+00 -0.52879264521E+02  0.52879264521E+02  0.00000000000E+00 0. -1.
         -6    2    1    2    0  503 -0.28631093709E+03  0.40305948926E+02  0.12170242403E+04  0.12626488960E+04  0.17185956721E+03 0.  0.
        -24    2    3    3    0    0 -0.83850909226E+02  0.29304737673E+02  0.29234959805E+03  0.31599353444E+03  0.80584636854E+02 0.  0.
          6    2    1    2  501    0  0.28631093709E+03 -0.40305948926E+02  0.90629901769E+03  0.96643289104E+03  0.17034113191E+03 0.  0.
         24    2    5    5    0    0  0.89626367838E+02 -0.32278979905E+02  0.22018057202E+03  0.25261928547E+03  0.79134068158E+02 0.  0.
          5    1    5    5  501    0  0.19668456925E+03 -0.80269690210E+01  0.68611844567E+03  0.71381360557E+03  0.47000000000E+01 0. -1.
        -11    1    6    6    0    0  0.89247926330E+02 -0.34462408368E+02  0.12498489817E+03  0.15739782309E+03  0.00000000000E+00 0.  1.
         12    1    6    6    0    0  0.37844150892E+00  0.21834284632E+01  0.95195673852E+02  0.95221462381E+02  0.00000000000E+00 0. -1.
         -5    1    3    3    0  503 -0.20246002786E+03  0.11001211253E+02  0.92467464229E+03  0.94665536159E+03  0.47000000000E+01 0.  1.
         11    1    4    4    0    0  0.80368244122E+01 -0.93634006925E+01  0.85361640517E+02  0.86248904288E+02  0.00000000000E+00 0. -1.
        -12    1    4    4    0    0 -0.91887733638E+02  0.38668138366E+02  0.20698795753E+03  0.22974463015E+03  0.00000000000E+00 0.  1.
</event>
<event>
12    1  0.1061634E+000  0.2202958E+03  0.7818608E-02  0.1134078E+00
         21   -1    0    0  501  502  0.00000000000E+00  0.00000000000E+00  0.91303684227E+02  0.91303684227E+02  0.00000000000E+00 0. -1.
         21   -1    0    0  502  503 -0.00000000000E+00 -0.00000000000E+00 -0.60198255971E+03  0.60198255971E+03  0.00000000000E+00 0. -1.
         -6    2    1    2    0  503 -0.10919562557E+03 -0.84827796924E+02 -0.37721141891E+03  0.43571337006E+03  0.16863643296E+03 0.  0.
        -24    2    3    3    0    0 -0.88672363353E+02 -0.80698008816E+02 -0.38656895821E+03  0.41230582889E+03  0.78648461116E+02 0.  0.
          6    2    1    2  501    0  0.10919562557E+03  0.84827796924E+02 -0.13346745658E+03  0.25757287388E+03  0.17149572478E+03 0.  0.
         24    2    5    5    0    0 -0.91925674892E+01  0.45394249226E+02 -0.82628643673E+02  0.12274912287E+03  0.78068644473E+02 0.  0.
          5    1    5    5  501    0  0.11838819305E+03  0.39433547698E+02 -0.50838812903E+02  0.13482375101E+03  0.47000000000E+01 0. -1.
        -13    1    6    6    0    0 -0.10942970596E+02 -0.11793822696E+02  0.60722341162E+01  0.17196362593E+02  0.00000000000E+00 0.  1.
         14    1    6    6    0    0  0.17504031066E+01  0.57188071922E+02 -0.88700877790E+02  0.10555276028E+03  0.00000000000E+00 0. -1.
         -5    1    3    3    0  503 -0.20523262212E+02 -0.41297881075E+01  0.93575393055E+01  0.23407541167E+02  0.47000000000E+01 0.  1.
         11    1    4    4    0    0 -0.31158562522E+02  0.66744189424E+01 -0.45440075633E+02  0.55499588829E+02  0.00000000000E+00 0. -1.
        -12    1    4    4    0    0 -0.57513800831E+02 -0.87372427759E+02 -0.34112888258E+03  0.35680624006E+03  0.00000000000E+00 0.  1.
</event>
<event>
12    1  0.1061634E+000  0.1737083E+03  0.7818608E-02  0.1174267E+00
         21   -1    0    0  501  502  0.00000000000E+00  0.00000000000E+00  0.91399337485E+02  0.91399337485E+02  0.00000000000E+00 0.  1.
         21   -1    0    0  502  503 -0.00000000000E+00 -0.00000000000E+00 -0.36185084685E+03  0.36185084685E+03  0.00000000000E+00 0.  1.
         -6    2    1    2    0  503 -0.12022187318E+02 -0.63796346728E+01 -0.66003208727E+02  0.18497106037E+03  0.17225747266E+03 0.  0.
        -24    2    3    3    0    0 -0.29422949863E+02 -0.41019358839E+02 -0.96679635567E+02  0.13531393408E+03  0.80091266974E+02 0.  0.
          6    2    1    2  501    0  0.12022187318E+02  0.63796346728E+01 -0.20444830064E+03  0.26827912397E+03  0.17317432834E+03 0.  0.
         24    2    5    5    0    0  0.45989302776E+02  0.51376615675E+02 -0.17566563417E+03  0.20480452179E+03  0.79573265051E+02 0.  0.
          5    1    5    5  501    0 -0.33967115458E+02 -0.44996981002E+02 -0.28782666470E+02  0.63474602173E+02  0.47000000000E+01 0. -1.
        -13    1    6    6    0    0  0.35829675512E+02  0.73033316954E+02 -0.13396624427E+03  0.15673093389E+03  0.00000000000E+00 0.  1.
         14    1    6    6    0    0  0.10159627264E+02 -0.21656701279E+02 -0.41699389897E+02  0.48073587907E+02  0.00000000000E+00 0. -1.
         -5    1    3    3    0  503  0.17400762545E+02  0.34639724167E+02  0.30676426839E+02  0.49657126287E+02  0.47000000000E+01 0.  1.
         13    1    4    4    0    0 -0.49839831497E+02 -0.39068097195E+01 -0.37298458097E+02  0.62373447414E+02  0.00000000000E+00 0. -1.
        -14    1    4    4    0    0  0.20416881635E+02 -0.37112549120E+02 -0.59381177469E+02  0.72940486669E+02  0.00000000000E+00 0.  1.
</event>
<event>
12    1  0.1061634E+000  0.1955839E+03  0.7818608E-02  0.1153838E+00
         21   -1    0    0  501  502  0.00000000000E+00  0.00000000000E+00  0.11183881635E+03  0.11183881635E+03  0.00000000000E+00 0.  1.
         21   -1    0    0  502  503 -0.00000000000E+00 -0.00000000000E+00 -0.68587876767E+03  0.68587876767E+03  0.00000000000E+00 0.  1.
         -6    2    1    2    0  503  0.44481742011E+02 -0.82653293787E+02 -0.41020665948E+01  0.19562695817E+03  0.17158929881E+03 0.  0.
        -24    2    3    3    0    0  0.22134692394E+02 -0.66786645406E+02  0.65027278313E+02  0.12111455998E+03  0.74093111025E+02 0.  0.
          6    2    1    2  501    0 -0.44481742011E+02  0.82653293787E+02 -0.56993788472E+03  0.60209062585E+03  0.16992273819E+03 0.  0.
         24    2    5    5    0    0 -0.48282378674E+02  0.59466386556E+02 -0.18264194591E+03  0.21405414338E+03  0.81201334189E+02 0.  0.
          5    1    5    5  501    0  0.38006366622E+01  0.23186907231E+02 -0.38729593881E+03  0.38803648246E+03  0.47000000000E+01 0. -1.
        -13    1    6    6    0    0  0.21820700044E+01  0.55507207817E+02 -0.12818682253E+03  0.13970566567E+03  0.00000000000E+00 0.  1.
         14    1    6    6    0    0 -0.50464448678E+02  0.39591787389E+01 -0.54455123380E+02  0.74348477718E+02  0.00000000000E+00 0. -1.
         -5    1    3    3    0  503  0.22347049617E+02 -0.15866648381E+02 -0.69129344908E+02  0.74512398195E+02  0.47000000000E+01 0.  1.
         13    1    4    4    0    0  0.41285065382E+02 -0.68506438288E+02  0.39642482158E+02  0.89269900315E+02  0.00000000000E+00 0. -1.
        -14    1    4    4    0    0 -0.19150372988E+02  0.17197928818E+01  0.25384796154E+02  0.31844659661E+02  0.00000000000E+00 0.  1.
</event>
<event>
12    1  0.1061634E+000  0.1947416E+03  0.7818608E-02  0.1154392E+00
         21   -1    0    0  503  502  0.00000000000E+00  0.00000000000E+00  0.42629267212E+03  0.42629267212E+03  0.00000000000E+00 0.  1.
         21   -1    0    0  501  503 -0.00000000000E+00 -0.00000000000E+00 -0.88758311522E+02  0.88758311522E+02  0.00000000000E+00 0.  1.
          6    2    1    2  501    0 -0.71981071323E+02  0.56616684378E+02  0.16048200313E+03  0.25185553517E+03  0.17114325488E+03 0.  0.
         24    2    3    3    0    0 -0.71907822226E+01  0.89624242079E+02  0.11808551660E+03  0.16755350378E+03  0.77754583667E+02 0.  0.
         -6    2    1    2    0  502  0.71981071323E+02 -0.56616684378E+02  0.17705235747E+03  0.26319544847E+03  0.17186501456E+03 0.  0.
        -24    2    5    5    0    0  0.72147738506E+02 -0.92224580891E+02  0.17717697643E+03  0.22727810444E+03  0.80950517542E+02 0.  0.
          5    1    3    3  501    0 -0.64790289101E+02 -0.33007557701E+02  0.42396486531E+02  0.84302031395E+02  0.47000000000E+01 0. -1.
        -13    1    4    4    0    0 -0.20045361738E+02  0.21094180726E+02  0.86019469047E+02  0.90808204710E+02  0.00000000000E+00 0.  1.
         14    1    4    4    0    0  0.12854579515E+02  0.68530061353E+02  0.32066047552E+02  0.76745299069E+02  0.00000000000E+00 0. -1.
         -5    1    5    5    0  502 -0.16666718298E+00  0.35607896514E+02 -0.12461896036E+00  0.35917344027E+02  0.47000000000E+01 0.  1.
         13    1    6    6    0    0 -0.62999605847E+01 -0.37505352711E+02  0.90635375868E+02  0.98290957590E+02  0.00000000000E+00 0. -1.
        -14    1    6    6    0    0  0.78447699091E+02 -0.54719228181E+02  0.86541600561E+02  0.12898714685E+03  0.00000000000E+00 0.  1.
</event>
<event>
12    1  0.1061634E+000  0.1770504E+03  0.7818608E-02  0.1170757E+00
         21   -1    0    0  501  502  0.00000000000E+00  0.00000000000E+00  0.22757223553E+02  0.22757223553E+02  0.00000000000E+00 0.  1.
         21   -1    0    0  502  503 -0.00000000000E+00 -0.00000000000E+00 -0.14302611489E+04  0.14302611489E+04  0.00000000000E+00 0.  1.
         -6    2    1    2    0  503  0.37293710610E+02 -0.25155169825E+02 -0.84668375398E+03  0.86499724305E+03  0.17124032181E+03 0.  0.
        -24    2    3    3    0    0 -0.38216191191E+02  0.16944986886E+02 -0.39623244203E+03  0.40630056451E+03  0.79576320323E+02 0.  0.
          6    2    1    2  501    0 -0.37293710610E+02  0.25155169825E+02 -0.56082017132E+03  0.58802112936E+03  0.17095607795E+03 0.  0.
         24    2    5    5    0    0 -0.17095786241E+02  0.10335689649E+02 -0.11257620804E+03  0.13905307508E+03  0.79140777639E+02 0.  0.
          5    1    5    5  501    0 -0.20197924370E+02  0.14819480176E+02 -0.44824396328E+03  0.44896805428E+03  0.47000000000E+01 0. -1.
        -13    1    6    6    0    0  0.17626201076E+02 -0.22091891608E+02 -0.69088078456E+02  0.74645141999E+02  0.00000000000E+00 0.  1.
         14    1    6    6    0    0 -0.34721987317E+02  0.32427581256E+02 -0.43488129585E+02  0.64407933084E+02  0.00000000000E+00 0. -1.
         -5    1    3    3    0  503  0.75509901802E+02 -0.42100156710E+02 -0.45045131196E+03  0.45869667854E+03  0.47000000000E+01 0.  1.
         13    1    4    4    0    0 -0.22511513672E+01 -0.16100852716E+02 -0.27666420561E+03  0.27714145812E+03  0.00000000000E+00 0. -1.
        -14    1    4    4    0    0 -0.35965039824E+02  0.33045839601E+02 -0.11956823642E+03  0.12915910639E+03  0.00000000000E+00 0.  1.
</event>
<event>
12    1  0.1061634E+000  0.2142464E+03  0.7818608E-02  0.1138386E+00
         21   -1    0    0  501  502  0.00000000000E+00  0.00000000000E+00  0.19954003942E+03  0.19954003942E+03  0.00000000000E+00 0. -1.
         21   -1    0    0  502  503 -0.00000000000E+00 -0.00000000000E+00 -0.22942294826E+03  0.22942294826E+03  0.00000000000E+00 0. -1.
         -6    2    1    2    0  503  0.11511733279E+03  0.55157407411E+02 -0.20562591953E+02  0.21451395475E+03  0.17116973066E+03 0.  0.
        -24    2    3    3    0    0  0.27087859667E+02 -0.19226273397E+01 -0.48593470525E+02  0.10581649085E+03  0.89990864649E+02 0.  0.
          6    2    1    2  501    0 -0.11511733279E+03 -0.55157407411E+02 -0.93203168893E+01  0.21444903293E+03  0.17206736912E+03 0.  0.
         24    2    5    5    0    0 -0.13666868529E+01 -0.53584206209E+02  0.20493532212E+02  0.96751794170E+02  0.77896019312E+02 0.  0.
          5    1    5    5  501    0 -0.11375064593E+03 -0.15732012024E+01 -0.29813849101E+02  0.11769723876E+03  0.47000000000E+01 0. -1.
        -11    1    6    6    0    0 -0.30478825486E+02 -0.21817634778E+02  0.35003541307E+02  0.51285630486E+02  0.00000000000E+00 0.  1.
         12    1    6    6    0    0  0.29112138633E+02 -0.31766571430E+02 -0.14510009095E+02  0.45466163684E+02  0.00000000000E+00 0. -1.
         -5    1    3    3    0  503  0.88029473120E+02  0.57080034751E+02  0.28030878572E+02  0.10869746390E+03  0.47000000000E+01 0.  1.
         11    1    4    4    0    0 -0.23419963301E+02 -0.89556897571E+01  0.11001635044E+02  0.27381289847E+02  0.00000000000E+00 0. -1.
        -12    1    4    4    0    0  0.50507822968E+02  0.70330624174E+01 -0.59595105570E+02  0.78435200999E+02  0.00000000000E+00 0.  1.
</event>
<event>
12    1  0.1061634E+000  0.2245615E+03  0.7818608E-02  0.1130825E+00
         21   -1    0    0  503  502  0.00000000000E+00  0.00000000000E+00  0.32972977754E+02  0.32972977754E+02  0.00000000000E+00 0.  1.
         21   -1    0    0  501  503 -0.00000000000E+00 -0.00000000000E+00 -0.30148125019E+04  0.30148125019E+04  0.00000000000E+00 0.  1.
          6    2    1    2  501    0 -0.12143704549E+03 -0.73541991835E+02 -0.41999581017E+03  0.47626078661E+03  0.17398987246E+03 0.  0.
         24    2    3    3    0    0 -0.11704633434E+03  0.17266784103E+00 -0.33505703976E+03  0.36361171154E+03  0.79059361736E+02 0.  0.
         -6    2    1    2    0  502  0.12143704549E+03  0.73541991835E+02 -0.25618437140E+04  0.25715246931E+04  0.17187394081E+03 0.  0.
        -24    2    5    5    0    0  0.15936818648E+02 -0.11560438830E+02 -0.12403669752E+04  0.12431062414E+04  0.80095369957E+02 0.  0.
          5    1    3    3  501    0 -0.43907111498E+01 -0.73714659676E+02 -0.84938770416E+02  0.11264907508E+03  0.47000000000E+01 0. -1.
        -13    1    4    4    0    0 -0.90646976364E+02 -0.14008296420E+02 -0.31364309717E+03  0.32677989396E+03  0.00000000000E+00 0.  1.
         14    1    4    4    0    0 -0.26399357976E+02  0.14180964261E+02 -0.21413942587E+02  0.36831817578E+02  0.00000000000E+00 0. -1.
         -5    1    5    5    0  502  0.10550022684E+03  0.85102430666E+02 -0.13214767388E+04  0.13284184517E+04  0.47000000000E+01 0.  1.
         11    1    6    6    0    0 -0.36148917578E+01  0.11846362872E+02 -0.10673463414E+04  0.10674182012E+04  0.00000000000E+00 0. -1.
        -12    1    6    6    0    0  0.19551710406E+02 -0.23406801702E+02 -0.17302063378E+03  0.17568804017E+03  0.00000000000E+00 0.  1.
</event>
<event>
12    1  0.1061634E+000  0.2575244E+03  0.7818608E-02  0.1109909E+00
         21   -1    0    0  503  502  0.00000000000E+00  0.00000000000E+00  0.23955021683E+03  0.23955021683E+03  0.00000000000E+00 0. -1.
         21   -1    0    0  501  503 -0.00000000000E+00 -0.00000000000E+00 -0.28382064461E+03  0.28382064461E+03  0.00000000000E+00 0. -1.
          6    2    1    2  501    0 -0.46047880878E+02 -0.17407330356E+03 -0.83381366720E+02  0.26289345443E+03  0.17244881478E+03 0.  0.
         24    2    3    3    0    0 -0.59594841447E+02 -0.11796252367E+03 -0.11897007327E+03  0.19491856352E+03  0.79828979398E+02 0.  0.
         -6    2    1    2    0  502  0.46047880878E+02  0.17407330356E+03  0.39110938939E+02  0.26047740701E+03  0.18411108514E+03 0.  0.
        -24    2    5    5    0    0  0.20120495281E+02  0.37282268503E+02  0.75198542895E+02  0.11657319666E+03  0.78356157711E+02 0.  0.
          5    1    3    3  501    0  0.13546960569E+02 -0.56110779892E+02  0.35588706549E+02  0.67974890912E+02  0.47000000000E+01 0. -1.
        -13    1    4    4    0    0 -0.18552403750E+02 -0.97403916047E+02 -0.47423170224E+02  0.10991210862E+03  0.00000000000E+00 0.  1.
         14    1    4    4    0    0 -0.41042437697E+02 -0.20558607625E+02 -0.71546903045E+02  0.85006454902E+02  0.00000000000E+00 0. -1.
         -5    1    5    5    0  502  0.25927385597E+02  0.13679103506E+03 -0.36087603956E+02  0.14390421035E+03  0.47000000000E+01 0.  1.
         13    1    6    6    0    0  0.46177368874E+02  0.16225792455E+02  0.21902170405E+02  0.53622111162E+02  0.00000000000E+00 0. -1.
        -14    1    6    6    0    0 -0.26056873594E+02  0.21056476048E+02  0.53296372490E+02  0.62951085500E+02  0.00000000000E+00 0.  1.
</event>
<event>
12    1  0.1061634E+000  0.2527653E+03  0.7818608E-02  0.1111636E+00
         21   -1    0    0  503  502  0.00000000000E+00  0.00000000000E+00  0.81368687966E+03  0.81368687966E+03  0.00000000000E+00 0. -1.
         21   -1    0    0  501  503 -0.00000000000E+00 -0.00000000000E+00 -0.13758830462E+03  0.13758830462E+03  0.00000000000E+00 0. -1.
          6    2    1    2  501    0  0.18276995105E+03  0.28544014428E+02  0.26214252866E+02  0.25412099618E+03  0.17225178628E+03 0.  0.
         24    2    3    3    0    0  0.20140654797E+03  0.49613823587E+02  0.12553790171E+02  0.22249888613E+03  0.79511179273E+02 0.  0.
         -6    2    1    2    0  502 -0.18276995105E+03 -0.28544014428E+02  0.64988432217E+03  0.69715418810E+03  0.17162375717E+03 0.  0.
        -24    2    5    5    0    0 -0.37685304013E+02 -0.30779596301E+02  0.15262838743E+03  0.17913864078E+03  0.80172702869E+02 0.  0.
          5    1    3    3  501    0 -0.18636596913E+02 -0.21069809159E+02  0.13660462695E+02  0.31622110043E+02  0.47000000000E+01 0. -1.
        -11    1    4    4    0    0  0.11923160641E+03  0.17486174136E+02 -0.30523380829E+02  0.12431258597E+03  0.00000000000E+00 0.  1.
         12    1    4    4    0    0  0.82174941551E+02  0.32127649451E+02  0.43077171000E+02  0.98186300162E+02  0.00000000000E+00 0. -1.
         -5    1    5    5    0  502 -0.14508464704E+03  0.22355818729E+01  0.49725593474E+03  0.51801554732E+03  0.47000000000E+01 0.  1.
         11    1    6    6    0    0  0.38219121740E+01  0.11983846272E+02  0.96358678165E+02  0.97176203063E+02  0.00000000000E+00 0. -1.
        -12    1    6    6    0    0 -0.41507216187E+02 -0.42763442572E+02  0.56269709262E+02  0.81962437718E+02  0.00000000000E+00 0.  1.
</event>
<event>
12    1  0.1061634E+000  0.2822307E+03  0.7818608E-02  0.1095165E+00
         21   -1    0    0  501  502  0.00000000000E+00  0.00000000000E+00  0.35429697519E+03  0.35429697519E+03  0.00000000000E+00 0.  1.
         21   -1    0    0  502  503 -0.00000000000E+00 -0.00000000000E+00 -0.23225299113E+03  0.23225299113E+03  0.00000000000E+00 0.  1.
         -6    2    1    2    0  503  0.18660415055E+03  0.10846908217E+03  0.12659723241E+03  0.30932352166E+03  0.18184479924E+03 0.  0.
        -24    2    3    3    0    0  0.87418438973E+02 -0.18484506986E+01  0.10258192018E+02  0.12073766387E+03  0.82625375833E+02 0.  0.
          6    2    1    2  501    0 -0.18660415055E+03 -0.10846908217E+03 -0.45532483449E+01  0.27722644466E+03  0.17391698812E+03 0.  0.
         24    2    5    5    0    0 -0.82804855955E+02 -0.11442178470E+03 -0.40400626348E+02  0.16714986797E+03  0.79736307730E+02 0.  0.
          5    1    5    5  501    0 -0.10379929459E+03  0.59527025248E+01  0.35847378003E+02  0.11007657669E+03  0.47000000000E+01 0. -1.
        -11    1    6    6    0    0  0.10569432056E+02 -0.42717716689E+02 -0.54505237705E+01  0.44342129206E+02  0.00000000000E+00 0.  1.
         12    1    6    6    0    0 -0.93374288011E+02 -0.71704068007E+02 -0.34950102578E+02  0.12280773877E+03  0.00000000000E+00 0. -1.
         -5    1    3    3    0  503  0.99185711574E+02  0.11031753287E+03  0.11633904039E+03  0.18858585779E+03  0.47000000000E+01 0.  1.
         11    1    4    4    0    0  0.76429575687E+02  0.95096502900E+01  0.40201517965E+02  0.86879661227E+02  0.00000000000E+00 0. -1.
        -12    1    4    4    0    0  0.10988863286E+02 -0.11358100989E+02 -0.29943325947E+02  0.33858002646E+02  0.00000000000E+00 0.  1.
</event>
<event>
12    1  0.1061634E+000  0.1940264E+03  0.7818608E-02  0.1154978E+00
         21   -1    0    0  503  502  0.00000000000E+00  0.00000000000E+00  0.58608548586E+02  0.58608548586E+02  0.00000000000E+00 0.  1.
         21   -1    0    0  501  503 -0.00000000000E+00 -0.00000000000E+00 -0.70820541697E+03  0.70820541697E+03  0.00000000000E+00 0.  1.
          6    2    1    2  501    0 -0.76318944731E+02 -0.45594265164E+02 -0.44339175045E+03  0.48398602864E+03  0.17246104839E+03 0.  0.
         24    2    3    3    0    0 -0.10470157643E+03  0.91675953768E+00 -0.36739200345E+03  0.39035429927E+03  0.80226767364E+02 0.  0.
         -6    2    1    2    0  502  0.76318944731E+02  0.45594265164E+02 -0.20620511793E+03  0.28282793692E+03  0.17195253094E+03 0.  0.
        -24    2    5    5    0    0  0.71061090122E+02  0.92931725179E+02 -0.12125679260E+03  0.18532517730E+03  0.77176599531E+02 0.  0.
          5    1    3    3  501    0  0.28382631702E+02 -0.46511024702E+02 -0.75999746994E+02  0.93631729367E+02  0.47000000000E+01 0. -1.
        -13    1    4    4    0    0 -0.45791178213E+02  0.34133620463E+02 -0.23309215287E+03  0.23998726586E+03  0.00000000000E+00 0.  1.
         14    1    4    4    0    0 -0.58910398220E+02 -0.33216860926E+02 -0.13429985058E+03  0.15036703341E+03  0.00000000000E+00 0. -1.
         -5    1    5    5    0  502  0.52578546087E+01 -0.47337460015E+02 -0.84948325337E+02  0.97502759619E+02  0.47000000000E+01 0.  1.
         11    1    6    6    0    0  0.75765547246E+02  0.64563637413E+02 -0.56474385925E+02  0.11444753248E+03  0.00000000000E+00 0. -1.
        -12    1    6    6    0    0 -0.47044571241E+01  0.28368087766E+02 -0.64782406672E+02  0.70877644815E+02  0.00000000000E+00 0.  1.
</event>
<event>
12    1  0.1061634E+000  0.2059450E+03  0.7818608E-02  0.1145293E+00
         21   -1    0    0  503  502  0.00000000000E+00  0.00000000000E+00  0.15876182713E+03  0.15876182713E+03  0.00000000000E+00 0. -1.
         21   -1    0    0  501  503 -0.00000000000E+00 -0.00000000000E+00 -0.28346924487E+03  0.28346924487E+03  0.00000000000E+00 0. -1.
          6    2    1    2  501    0 -0.10184978745E+03 -0.45546020858E+02 -0.49467818940E+01  0.20600443082E+03  0.17310556215E+03 0.  0.
         24    2    3    3    0    0 -0.13928549313E+03 -0.18181401062E+02  0.21715528188E+01  0.15885556905E+03  0.74157698419E+02 0.  0.
         -6    2    1    2    0  502  0.10184978745E+03  0.45546020858E+02 -0.11976063585E+03  0.23622664118E+03  0.17033084536E+03 0.  0.
        -24    2    5    5    0    0  0.52078195079E+02 -0.39731079014E+02 -0.46374429457E+02  0.11311278956E+03  0.79707078815E+02 0.  0.
          5    1    3    3  501    0  0.37435705689E+02 -0.27364619796E+02 -0.71183347128E+01  0.47148861769E+02  0.47000000000E+01 0. -1.
        -11    1    4    4    0    0 -0.56962395781E+02 -0.31259128850E+02 -0.27252218508E+02  0.70459428633E+02  0.00000000000E+00 0.  1.
         12    1    4    4    0    0 -0.82323097354E+02  0.13077727788E+02  0.29423771327E+02  0.88396140420E+02  0.00000000000E+00 0. -1.
         -5    1    5    5    0  502  0.49771592367E+02  0.85277099873E+02 -0.73386206395E+02  0.12311385161E+03  0.47000000000E+01 0.  1.
         11    1    6    6    0    0 -0.15204396107E+02 -0.29460756445E+02 -0.25800556805E+02  0.42009267581E+02  0.00000000000E+00 0. -1.
        -12    1    6    6    0    0  0.67282591187E+02 -0.10270322569E+02 -0.20573872653E+02  0.71103521983E+02  0.00000000000E+00 0.  1.
</event>
<event>
12    1  0.1061634E+000  0.2123331E+03  0.7818608E-02  0.1140465E+00
         21   -1    0    0  503  502  0.00000000000E+00  0.00000000000E+00  0.40475078543E+03  0.40475078543E+03  0.00000000000E+00 0. -1.
         21   -1    0    0  501  503 -0.00000000000E+00 -0.00000000000E+00 -0.53605740472E+03  0.53605740472E+03  0.00000000000E+00 0. -1.
          6    2    1    2  501    0  0.75707901139E+01  0.11452761845E+03  0.35410669531E+03  0.41098611407E+03  0.17419570042E+03 0.  0.
         24    2    3    3    0    0  0.46822860494E+02  0.56621114527E+01  0.15415510124E+03  0.17991220032E+03  0.79875933894E+02 0.  0.
         -6    2    1    2    0  502 -0.75707901139E+01 -0.11452761845E+03 -0.48541331459E+03  0.52982207609E+03  0.17863777337E+03 0.  0.
        -24    2    5    5    0    0  0.45752092454E+02 -0.66213822895E+02 -0.40994184990E+03  0.42544015893E+03  0.80433104033E+02 0.  0.
          5    1    3    3  501    0 -0.39252070380E+02  0.10886550700E+03  0.19995159406E+03  0.23107391374E+03  0.47000000000E+01 0. -1.
        -11    1    4    4    0    0 -0.20215627796E+02 -0.11399601605E+02  0.46076358260E+02  0.51591213540E+02  0.00000000000E+00 0.  1.
         12    1    4    4    0    0  0.67038488290E+02  0.17061713058E+02  0.10807874298E+03  0.12832098678E+03  0.00000000000E+00 0. -1.
         -5    1    5    5    0  502 -0.53322882568E+02 -0.48313795560E+02 -0.75471464693E+02  0.10438191716E+03  0.47000000000E+01 0.  1.
         13    1    6    6    0    0 -0.29151222245E+01  0.16203724276E+02 -0.38662828797E+02  0.42022291091E+02  0.00000000000E+00 0. -1.
        -14    1    6    6    0    0  0.48667214678E+02 -0.82417547171E+02 -0.37127902110E+03  0.38341786784E+03  0.00000000000E+00 0.  1.
</event>
<event>
12    1  0.1061634E+000  0.1745684E+03  0.7818608E-02  0.1173752E+00
         21   -1    0    0  501  502  0.00000000000E+00  0.00000000000E+00  0.56851158945E+02  0.56851158945E+02  0.00000000000E+00 0. -1.
         21   -1    0    0  502  503 -0.00000000000E+00 -0.00000000000E+00 -0.56392303387E+03  0.56392303387E+03  0.00000000000E+00 0. -1.
         -6    2    1    2    0  503  0.16941107152E+02 -0.28837309088E+02 -0.32924019337E+03  0.37157899362E+03  0.16897707554E+03 0.  0.
        -24    2    3    3    0    0  0.12542418309E+01 -0.47915594135E+02 -0.33352464726E+03  0.34607398923E+03  0.78936926776E+02 0.  0.
          6    2    1    2  501    0 -0.16941107152E+02  0.28837309088E+02 -0.17783168156E+03  0.24919519920E+03  0.17133461073E+03 0.  0.
         24    2    5    5    0    0 -0.85697862248E+01 -0.50475798029E+02 -0.86350982584E+02  0.12773962601E+03  0.78991597259E+02 0.  0.
          5    1    5    5  501    0 -0.83713209272E+01  0.79313107117E+02 -0.91480698971E+02  0.12145557319E+03  0.47000000000E+01 0. -1.
        -13    1    6    6    0    0 -0.12471064694E+02  0.71183722802E+01 -0.64398848716E+02  0.65980378859E+02  0.00000000000E+00 0.  1.
         14    1    6    6    0    0  0.39012784692E+01 -0.57594170309E+02 -0.21952133868E+02  0.61759247151E+02  0.00000000000E+00 0. -1.
         -5    1    3    3    0  503  0.15686865321E+02  0.19078285046E+02  0.42844538826E+01  0.25505004391E+02  0.47000000000E+01 0.  1.
         11    1    4    4    0    0 -0.24742199880E+02 -0.24190860361E+02 -0.27925775084E+03  0.28139343558E+03  0.00000000000E+00 0. -1.
        -12    1    4    4    0    0  0.25996441711E+02 -0.23724733773E+02 -0.54266896412E+02  0.64680553650E+02  0.00000000000E+00 0.  1.
</event>
<event>
12    1  0.1061634E+000  0.1871158E+03  0.7818608E-02  0.1161288E+00
         21   -1    0    0  501  502  0.00000000000E+00  0.00000000000E+00  0.50960353756E+02  0.50960353756E+02  0.00000000000E+00 0. -1.
         21   -1    0    0  502  503 -0.00000000000E+00 -0.00000000000E+00 -0.68585594574E+03  0.68585594574E+03  0.00000000000E+00 0. -1.
         -6    2    1    2    0  503  0.54246607030E+02  0.50362180543E+02 -0.29697056064E+03  0.35054481425E+03  0.17091257798E+03 0.  0.
        -24    2    3    3    0    0  0.28431237686E+02  0.84269075394E+02 -0.12326271429E+03  0.17162411480E+03  0.79696472318E+02 0.  0.
          6    2    1    2  501    0 -0.54246607030E+02 -0.50362180543E+02 -0.33792503135E+03  0.38627148524E+03  0.17185252369E+03 0.  0.
         24    2    5    5    0    0 -0.78650220287E+02 -0.73610048031E+02 -0.32180462471E+03  0.34861571287E+03  0.79814800968E+02 0.  0.
          5    1    5    5  501    0  0.24403613257E+02  0.23247867488E+02 -0.16120406633E+02  0.37655772370E+02  0.47000000000E+01 0. -1.
        -13    1    6    6    0    0 -0.44635452318E+02 -0.77785429379E+02 -0.28287468692E+03  0.29675071210E+03  0.00000000000E+00 0.  1.
         14    1    6    6    0    0 -0.34014767969E+02  0.41753813486E+01 -0.38929937790E+02  0.51865000779E+02  0.00000000000E+00 0. -1.
         -5    1    3    3    0  503  0.25815369344E+02 -0.33906894851E+02 -0.17370784635E+03  0.17892069946E+03  0.47000000000E+01 0.  1.
         13    1    4    4    0    0 -0.27861606794E+02  0.25183025298E+02 -0.44153111645E+02  0.57965085735E+02  0.00000000000E+00 0. -1.
        -14    1    4    4    0    0  0.56292844480E+02  0.59086050096E+02 -0.79109602649E+02  0.11365902906E+03  0.00000000000E+00 0.  1.
</event>
<event>
12    1  0.1061634E+000  0.3099169E+03  0.7818608E-02  0.1080404E+00
         21   -1    0    0  501  502  0.00000000000E+00  0.00000000000E+00  0.26577922603E+03  0.26577922603E+03  0.00000000000E+00 0.  1.
         21   -1    0    0  502  503 -0.00000000000E+00 -0.00000000000E+00 -0.41210805821E+03  0.41210805821E+03  0.00000000000E+00 0.  1.
         -6    2    1    2    0  503  0.91814579747E+02  0.24036553831E+03  0.45945462522E+02  0.31330408350E+03  0.17275113357E+03 0.  0.
        -24    2    3    3    0    0  0.38969797603E+02  0.12980611915E+03 -0.41484869654E+02  0.16269827634E+03  0.79884047350E+02 0.  0.
          6    2    1    2  501    0 -0.91814579747E+02 -0.24036553831E+03 -0.19227429471E+03  0.36458320073E+03  0.17247027799E+03 0.  0.
         24    2    5    5    0    0 -0.19860561665E+01 -0.16092795075E+03 -0.69617871700E+02  0.19298430193E+03  0.80588727375E+02 0.  0.
          5    1    5    5  501    0 -0.89828523580E+02 -0.79437587565E+02 -0.12265642301E+03  0.17159889881E+03  0.47000000000E+01 0. -1.
        -13    1    6    6    0    0 -0.44951036235E+01 -0.27352320793E+02 -0.51064701479E+02  0.58103004625E+02  0.00000000000E+00 0.  1.
         14    1    6    6    0    0  0.25090474570E+01 -0.13357562995E+03 -0.18553170221E+02  0.13488129730E+03  0.00000000000E+00 0. -1.
         -5    1    3    3    0  503  0.52844782143E+02  0.11055941917E+03  0.87430332176E+02  0.15060580716E+03  0.47000000000E+01 0.  1.
         11    1    4    4    0    0 -0.22305007711E+02  0.41324708174E+02 -0.26813477784E+02  0.54075941651E+02  0.00000000000E+00 0. -1.
        -12    1    4    4    0    0  0.61274805314E+02  0.88481410972E+02 -0.14671391870E+02  0.10862233469E+03  0.00000000000E+00 0.  1.
</event>
<event>
12    1  0.1061634E+000  0.4190897E+03  0.7818608E-02  0.1037376E+00
         21   -1    0    0  501  502  0.00000000000E+00  0.00000000000E+00  0.17464312612E+04  0.17464312612E+04  0.00000000000E+00 0. -1.
         21   -1    0    0  502  503 -0.00000000000E+00 -0.00000000000E+00 -0.15097765317E+03  0.15097765317E+03  0.00000000000E+00 0.  1.
         -6    2    1    2    0  503  0.32902895980E+03  0.19444970141E+03  0.13462313368E+04  0.14099556760E+04  0.17194607677E+03 0.  0.
        -24    2    3    3    0    0  0.20983990436E+03  0.87688657202E+02  0.60292126359E+03  0.64960318771E+03  0.82147217445E+02 0.  0.
          6    2    1    2  501    0 -0.32902895980E+03 -0.19444970141E+03  0.24922227121E+03  0.48745323835E+03  0.17154642622E+03 0.  0.
         24    2    5    5    0    0 -0.12293755267E+03 -0.34069630232E+02  0.13441023879E+03  0.20214756348E+03  0.80765980278E+02 0.  0.
          5    1    5    5  501    0 -0.20609140714E+03 -0.16038007118E+03  0.11481203242E+03  0.28530567487E+03  0.47000000000E+01 0. -1.
        -13    1    6    6    0    0 -0.46450184361E+02 -0.13307050079E+02  0.10848636954E+03  0.11876021887E+03  0.00000000000E+00 0.  1.
         14    1    6    6    0    0 -0.76487368305E+02 -0.20762580153E+02  0.25923869245E+02  0.83387344612E+02  0.00000000000E+00 0. -1.
         -5    1    3    3    0  503  0.11918905544E+03  0.10676104421E+03  0.74331007323E+03  0.76035248830E+03  0.47000000000E+01 0.  1.
         13    1    4    4    0    0  0.20485243512E+03  0.99013785945E+02  0.58614977634E+03  0.62876053493E+03  0.00000000000E+00 0. -1.
        -14    1    4    4    0    0  0.49874692406E+01 -0.11325128743E+02  0.16771487251E+02  0.20842652784E+02  0.00000000000E+00 0.  1.
</event>
<event>
12    1  0.1061634E+000  0.2044529E+03  0.7818608E-02  0.1147019E+00
         21   -1    0    0  501  502  0.00000000000E+00  0.00000000000E+00  0.40039558730E+02  0.40039558730E+02  0.00000000000E+00 0. -1.
         21   -1    0    0  502  503 -0.00000000000E+00 -0.00000000000E+00 -0.10567392464E+04  0.10567392464E+04  0.00000000000E+00 0. -1.
         -6    2    1    2    0  503 -0.96394232698E+02  0.48740750536E+02 -0.61643677310E+03  0.64945769695E+03  0.17359002285E+03 0.  0.
        -24    2    3    3    0    0 -0.65163300767E+02 -0.38276711378E+02 -0.28926017552E+03  0.30943707141E+03  0.79802817119E+02 0.  0.
          6    2    1    2  501    0  0.96394232698E+02 -0.48740750536E+02 -0.40026291459E+03  0.44732110820E+03  0.16798292826E+03 0.  0.
         24    2    5    5    0    0  0.10226570385E+03  0.19816142036E+02 -0.24769763832E+03  0.27989119685E+03  0.78319910463E+02 0.  0.
          5    1    5    5  501    0 -0.58714711519E+01 -0.68556892572E+02 -0.15256527627E+03  0.16742991135E+03  0.47000000000E+01 0. -1.
        -11    1    6    6    0    0  0.51186760791E+02 -0.28524723648E+02 -0.92440016868E+02  0.10944816608E+03  0.00000000000E+00 0.  1.
         12    1    6    6    0    0  0.51078943059E+02  0.48340865683E+02 -0.15525762146E+03  0.17044303077E+03  0.00000000000E+00 0. -1.
         -5    1    3    3    0  503 -0.31230931931E+02  0.87017461914E+02 -0.32717659758E+03  0.34002062554E+03  0.47000000000E+01 0.  1.
         11    1    4    4    0    0 -0.46366396981E+02 -0.23758733704E+02 -0.62193736981E+02  0.81131874845E+02  0.00000000000E+00 0. -1.
        -12    1    4    4    0    0 -0.18796903786E+02 -0.14517977674E+02 -0.22706643854E+03  0.22830519657E+03  0.00000000000E+00 0.  1.
</event>
<event>
12    1  0.1061634E+000  0.1767049E+03  0.7818608E-02  0.1171524E+00
         21   -1    0    0  503  502  0.00000000000E+00  0.00000000000E+00  0.82901929285E+02  0.82901929285E+02  0.00000000000E+00 0. -1.
         21   -1    0    0  501  503 -0.00000000000E+00 -0.00000000000E+00 -0.37656375832E+03  0.37656375832E+03  0.00000000000E+00 0. -1.
          6    2    1    2  501    0 -0.11324867065E+02  0.39506602042E+02 -0.12361355146E+03  0.21565003151E+03  0.17185924986E+03 0.  0.
         24    2    3    3    0    0 -0.56438671947E+02  0.60013802995E+02 -0.11788175658E+03  0.16554270515E+03  0.81983525501E+02 0.  0.
         -6    2    1    2    0  502  0.11324867065E+02 -0.39506602042E+02 -0.17004827757E+03  0.24381565610E+03  0.16982530210E+03 0.  0.
        -24    2    5    5    0    0 -0.29664997197E+02  0.32851736601E+02 -0.86724878141E+02  0.12599894661E+03  0.79970503316E+02 0.  0.
          5    1    3    3  501    0  0.45113804882E+02 -0.20507200953E+02 -0.57317948864E+01  0.50107326356E+02  0.47000000000E+01 0. -1.
        -11    1    4    4    0    0  0.11694195234E+02 -0.26405521634E+01 -0.48242231150E+02  0.49709552243E+02  0.00000000000E+00 0.  1.
         12    1    4    4    0    0 -0.68132867181E+02  0.62654355159E+02 -0.69639525427E+02  0.11583315291E+03  0.00000000000E+00 0. -1.
         -5    1    5    5    0  502  0.40989864262E+02 -0.72358338643E+02 -0.83323399427E+02  0.11781670949E+03  0.47000000000E+01 0.  1.
         11    1    6    6    0    0  0.24621772979E+02 -0.15059919679E+00 -0.40625606764E+02  0.47504676714E+02  0.00000000000E+00 0. -1.
        -12    1    6    6    0    0 -0.54286770176E+02  0.33002335797E+02 -0.46099271377E+02  0.78494269891E+02  0.00000000000E+00 0.  1.
</event>
<event>
12    1  0.1061634E+000  0.1887242E+03  0.7818608E-02  0.1159824E+00
         21   -1    0    0  503  502  0.00000000000E+00  0.00000000000E+00  0.61410480409E+02  0.61410480409E+02  0.00000000000E+00 0. -1.
         21   -1    0    0  501  503 -0.00000000000E+00 -0.00000000000E+00 -0.57787001371E+03  0.57787001371E+03  0.00000000000E+00 0. -1.
          6    2    1    2  501    0 -0.74041936049E+02  0.17732403661E+02 -0.24668066755E+03  0.31004278350E+03  0.17169312574E+03 0.  0.
         24    2    3    3    0    0 -0.10412618761E+03 -0.20162042295E+02 -0.21219618425E+03  0.25044143440E+03  0.80280262577E+02 0.  0.
         -6    2    1    2    0  502  0.74041936049E+02 -0.17732403661E+02 -0.26977886576E+03  0.32923771062E+03  0.17268522592E+03 0.  0.
        -24    2    5    5    0    0  0.23464139846E+02 -0.60165583528E+02 -0.73841282201E+02  0.12242302335E+03  0.73242053412E+02 0.  0.
          5    1    3    3  501    0  0.30084251562E+02  0.37894445956E+02 -0.34484483300E+02  0.59601349102E+02  0.47000000000E+01 0. -1.
        -13    1    4    4    0    0 -0.43337869730E+02  0.81264968762E+01 -0.23031847100E+02  0.49746124322E+02  0.00000000000E+00 0.  1.
         14    1    4    4    0    0 -0.60788317882E+02 -0.28288539172E+02 -0.18916433715E+03  0.20069531008E+03  0.00000000000E+00 0. -1.
         -5    1    5    5    0  502  0.50577796203E+02  0.42433179868E+02 -0.19593758356E+03  0.20681468727E+03  0.47000000000E+01 0.  1.
         13    1    6    6    0    0 -0.15405527196E+02 -0.14485924167E+02 -0.55980186077E+02  0.59841068677E+02  0.00000000000E+00 0. -1.
        -14    1    6    6    0    0  0.38869667043E+02 -0.45679659362E+02 -0.17861096123E+02  0.62581954668E+02  0.00000000000E+00 0.  1.
</event>
<event>
12    1  0.1061634E+000  0.1719633E+03  0.7818608E-02  0.1176911E+00
         21   -1    0    0  501  502  0.00000000000E+00  0.00000000000E+00  0.56452315842E+03  0.56452315842E+03  0.00000000000E+00 0.  1.
         21   -1    0    0  502  503 -0.00000000000E+00 -0.00000000000E+00 -0.51488795003E+02  0.51488795003E+02  0.00000000000E+00 0.  1.
         -6    2    1    2    0  503 -0.13898381177E+02  0.24432240051E+02  0.22692178990E+03  0.28219795527E+03  0.16538466638E+03 0.  0.
        -24    2    3    3    0    0 -0.27465037674E+02  0.84592159262E+01  0.24193686823E+03  0.25599234051E+03  0.78566809549E+02 0.  0.
          6    2    1    2  501    0  0.13898381177E+02 -0.24432240051E+02  0.28611257352E+03  0.33381399815E+03  0.16965046798E+03 0.  0.
         24    2    5    5    0    0 -0.27081666868E+02 -0.43302322547E+02  0.84012109515E+02  0.12668569999E+03  0.79891953398E+02 0.  0.
          5    1    5    5  501    0  0.40980048044E+02  0.18870082496E+02  0.20210046400E+03  0.20712829817E+03  0.47000000000E+01 0. -1.
        -13    1    6    6    0    0 -0.24117409385E+02  0.19158169260E+02  0.38712950641E+02  0.49470975654E+02  0.00000000000E+00 0.  1.
         14    1    6    6    0    0 -0.29642574830E+01 -0.62460491806E+02  0.45299158873E+02  0.77214724333E+02  0.00000000000E+00 0. -1.
         -5    1    3    3    0  503  0.13566656497E+02  0.15973024125E+02 -0.15015078324E+02  0.26205614766E+02  0.47000000000E+01 0.  1.
         11    1    4    4    0    0 -0.79834252885E+01 -0.32243579842E+02  0.60402981347E+02  0.68934053094E+02  0.00000000000E+00 0. -1.
        -12    1    4    4    0    0 -0.19481612385E+02  0.40702795768E+02  0.18153388688E+03  0.18705828741E+03  0.00000000000E+00 0.  1.
</event>
<event>
12    1  0.1061634E+000  0.2639663E+03  0.7818608E-02  0.1104876E+00
         21   -1    0    0  501  502  0.00000000000E+00  0.00000000000E+00  0.67216955007E+03  0.67216955007E+03  0.00000000000E+00 0. -1.
         21   -1    0    0  502  503 -0.00000000000E+00 -0.00000000000E+00 -0.12792348479E+03  0.12792348479E+03  0.00000000000E+00 0. -1.
         -6    2    1    2    0  503  0.17020740051E+02 -0.19971426755E+03  0.44696163434E+03  0.51877031858E+03  0.17079943388E+03 0.  0.
        -24    2    3    3    0    0  0.17245981239E+02 -0.28111696789E+02  0.18843631517E+03  0.20843997253E+03  0.82772494890E+02 0.  0.
          6    2    1    2  501    0 -0.17020740051E+02  0.19971426755E+03  0.97284430936E+02  0.28132271627E+03  0.17176354658E+03 0.  0.
         24    2    5    5    0    0  0.28090444919E+02  0.33366681518E+02  0.46609889279E+02  0.10161034174E+03  0.79055494682E+02 0.  0.
          5    1    5    5  501    0 -0.45111184970E+02  0.16634758603E+03  0.50674541657E+02  0.17971237453E+03  0.47000000000E+01 0. -1.
        -11    1    6    6    0    0  0.26444868584E+02  0.53458094697E+02  0.53686628948E+02  0.80245579884E+02  0.00000000000E+00 0.  1.
         12    1    6    6    0    0  0.16455763350E+01 -0.20091413179E+02 -0.70767396693E+01  0.21364761860E+02  0.00000000000E+00 0. -1.
         -5    1    3    3    0  503 -0.22524118819E+00 -0.17160257076E+03  0.25852531918E+03  0.31033034605E+03  0.47000000000E+01 0.  1.
         13    1    4    4    0    0  0.34306578888E+02 -0.50206482180E+02  0.13776358665E+03  0.15058697824E+03  0.00000000000E+00 0. -1.
        -14    1    4    4    0    0 -0.17060597649E+02  0.22094785391E+02  0.50672728519E+02  0.57852994298E+02  0.00000000000E+00 0.  1.
</event>
<event>
12    1  0.1061634E+000  0.5070522E+03  0.7818608E-02  0.1012149E+00
         21   -1    0    0  501  502  0.00000000000E+00  0.00000000000E+00  0.16499771189E+03  0.16499771189E+03  0.00000000000E+00 0. -1.
         21   -1    0    0  502  503 -0.00000000000E+00 -0.00000000000E+00 -0.22801502833E+04  0.22801502833E+04  0.00000000000E+00 0.  1.
         -6    2    1    2    0  503 -0.42950919511E+03  0.20243660623E+03 -0.36739485363E+03  0.62616364887E+03  0.17788538011E+03 0.  0.
        -24    2    3    3    0    0 -0.94470242987E+02  0.50253284949E+02 -0.13590905709E+03  0.19140092424E+03  0.81933036960E+02 0.  0.
          6    2    1    2  501    0  0.42950919511E+03 -0.20243660623E+03 -0.17477577178E+04  0.18189843463E+04  0.16908070220E+03 0.  0.
         24    2    5    5    0    0  0.39091954760E+03 -0.13072573376E+03 -0.15286746371E+04  0.15852086068E+04  0.78312648671E+02 0.  0.
          5    1    5    5  501    0  0.38589647516E+02 -0.71710872467E+02 -0.21908308071E+03  0.23377573950E+03  0.47000000000E+01 0. -1.
        -11    1    6    6    0    0  0.35861874723E+03 -0.13535722330E+03 -0.13405609048E+04  0.13942856677E+04  0.00000000000E+00 0.  1.
         12    1    6    6    0    0  0.32300800369E+02  0.46314895387E+01 -0.18811373231E+03  0.19092293912E+03  0.00000000000E+00 0. -1.
         -5    1    3    3    0  503 -0.33503895213E+03  0.15218332128E+03 -0.23148579654E+03  0.43476272462E+03  0.47000000000E+01 0.  1.
         11    1    4    4    0    0 -0.96933220958E+02  0.37610877925E+02 -0.72642897834E+02  0.12683697438E+03  0.00000000000E+00 0. -1.
        -12    1    4    4    0    0  0.24629779714E+01  0.12642407024E+02 -0.63266159252E+02  0.64563949867E+02  0.00000000000E+00 0.  1.
</event>
<event>
12    1  0.1061634E+000  0.2501890E+03  0.7818608E-02  0.1113922E+00
         21   -1    0    0  503  502  0.00000000000E+00  0.00000000000E+00  0.13577245981E+03  0.13577245981E+03  0.00000000000E+00 0.  1.
         21   -1    0    0  501  503 -0.00000000000E+00 -0.00000000000E+00 -0.45990693146E+03  0.45990693146E+03  0.00000000000E+00 0. -1.
          6    2    1    2  501    0  0.17265316894E+03  0.54953337505E+02 -0.20120598717E+03  0.32105823818E+03  0.17252697466E+03 0.  0.
         24    2    3    3    0    0  0.10053366255E+03  0.95072231161E+02 -0.94320519605E+02  0.18593850607E+03  0.80814733666E+02 0.  0.
         -6    2    1    2    0  502 -0.17265316894E+03 -0.54953337505E+02 -0.12292848449E+03  0.27462115310E+03  0.16576000538E+03 0.  0.
        -24    2    5    5    0    0 -0.90729048515E+02 -0.94558614686E+02 -0.65721118423E+02  0.16703438709E+03  0.80050791432E+02 0.  0.
          5    1    3    3  501    0  0.72119506389E+02 -0.40118893656E+02 -0.10688546756E+03  0.13511973211E+03  0.47000000000E+01 0. -1.
        -13    1    4    4    0    0  0.58375420208E+02  0.75974974898E+02 -0.10095592518E+03  0.13918327961E+03  0.00000000000E+00 0.  1.
         14    1    4    4    0    0  0.42158242342E+02  0.19097256264E+02  0.66354055713E+01  0.46755226459E+02  0.00000000000E+00 0. -1.
         -5    1    5    5    0  502 -0.81924120423E+02  0.39605277181E+02 -0.57207366062E+02  0.10758676601E+03  0.47000000000E+01 0.  1.
         13    1    6    6    0    0  0.46690583375E+01 -0.39645620480E+02 -0.22744872626E+01  0.39984354706E+02  0.00000000000E+00 0. -1.
        -14    1    6    6    0    0 -0.95398106852E+02 -0.54912994206E+02 -0.63446631161E+02  0.12705003239E+03  0.00000000000E+00 0.  1.
</event>
<event>
12    1  0.1061634E+000  0.1947220E+03  0.7818608E-02  0.1154382E+00
         21   -1    0    0  503  502  0.00000000000E+00  0.00000000000E+00  0.92540731610E+02  0.92540731610E+02  0.00000000000E+00 0.  1.
         21   -1    0    0  501  503 -0.00000000000E+00 -0.00000000000E+00 -0.45541116530E+03  0.45541116530E+03  0.00000000000E+00 0.  1.
          6    2    1    2  501    0  0.75229622037E+02  0.51790544914E+02 -0.26943753250E+03  0.33243530681E+03  0.17197352331E+03 0.  0.
         24    2    3    3    0    0  0.15667673447E+02 -0.54357865051E+01 -0.46321842046E+02  0.94474847794E+02  0.80652092652E+02 0.  0.
         -6    2    1    2    0  502 -0.75229622037E+02 -0.51790544914E+02 -0.93432901185E+02  0.21551659010E+03  0.17139409852E+03 0.  0.
        -24    2    5    5    0    0 -0.79445387400E+02  0.22770189720E+02 -0.79408708861E+02  0.13938615074E+03  0.79326570928E+02 0.  0.
          5    1    3    3  501    0  0.59561948590E+02  0.57226331419E+02 -0.22311569046E+03  0.23796045902E+03  0.47000000000E+01 0. -1.
        -13    1    4    4    0    0  0.41168593909E+02 -0.25647098968E+02 -0.35771876719E+02  0.60268183762E+02  0.00000000000E+00 0.  1.
         14    1    4    4    0    0 -0.25500920462E+02  0.20211312463E+02 -0.10549965327E+02  0.34206664033E+02  0.00000000000E+00 0. -1.
         -5    1    5    5    0  502  0.42157653627E+01 -0.74560734634E+02 -0.14024192324E+02  0.76130439360E+02  0.47000000000E+01 0.  1.
         11    1    6    6    0    0 -0.40289891372E+02  0.51447762096E+02 -0.52965297273E+02  0.84115814724E+02  0.00000000000E+00 0. -1.
        -12    1    6    6    0    0 -0.39155496028E+02 -0.28677572375E+02 -0.26443411588E+02  0.55270336013E+02  0.00000000000E+00 0.  1.
</event>
<event>
12    1  0.1061634E+000  0.2492758E+03  0.7818608E-02  0.1114196E+00
         21   -1    0    0  503  502  0.00000000000E+00  0.00000000000E+00  0.59471452426E+03  0.59471452426E+03  0.00000000000E+00 0. -1.
         21   -1    0    0  501  503 -0.00000000000E+00 -0.00000000000E+00 -0.11100058759E+03  0.11100058759E+03  0.00000000000E+00 0. -1.
          6    2    1    2  501    0 -0.17948392703E+03 -0.11797417174E+02  0.33325947484E+03  0.41455369945E+03  0.16863935793E+03 0.  0.
         24    2    3    3    0    0 -0.52335787074E+02  0.47187065467E+02  0.13780130228E+03  0.17398810360E+03  0.79479604477E+02 0.  0.
         -6    2    1    2    0  502  0.17948392703E+03  0.11797417174E+02  0.15045446182E+03  0.29116141240E+03  0.17258262912E+03 0.  0.
        -24    2    5    5    0    0  0.19863433730E+03  0.24742460841E+02  0.10159358862E+03  0.23690473264E+03  0.75728500407E+02 0.  0.
          5    1    3    3  501    0 -0.12714813995E+03 -0.58984482641E+02  0.19545817256E+03  0.24056559585E+03  0.47000000000E+01 0. -1.
        -13    1    4    4    0    0 -0.26269267509E+02  0.35767591429E+02  0.13858718180E+03  0.14551907769E+03  0.00000000000E+00 0.  1.
         14    1    4    4    0    0 -0.26066519564E+02  0.11419474038E+02 -0.78587952312E+00  0.28469025907E+02  0.00000000000E+00 0. -1.
         -5    1    5    5    0  502 -0.19150410270E+02 -0.12945043667E+02  0.48860873200E+02  0.54256679763E+02  0.47000000000E+01 0.  1.
         13    1    6    6    0    0  0.21635482460E+02 -0.20268075857E+02  0.42478193164E+01  0.29948839196E+02  0.00000000000E+00 0. -1.
        -14    1    6    6    0    0  0.17699885484E+03  0.45010536698E+02  0.97345769308E+02  0.20695589344E+03  0.00000000000E+00 0.  1.
</event>
<event>
12    1  0.1061634E+000  0.1823669E+03  0.7818608E-02  0.1165562E+00
         21   -1    0    0  501  502  0.00000000000E+00  0.00000000000E+00  0.10030970807E+03  0.10030970807E+03  0.00000000000E+00 0. -1.
         21   -1    0    0  502  503 -0.00000000000E+00 -0.00000000000E+00 -0.41081753017E+03  0.41081753017E+03  0.00000000000E+00 0. -1.
         -6    2    1    2    0  503  0.39036264254E+02  0.47002965946E+02 -0.26771729586E+03  0.32392937968E+03  0.17182719163E+03 0.  0.
        -24    2    3    3    0    0  0.90002781063E+02  0.47487263391E+02 -0.20588265928E+03  0.24365838454E+03  0.81401463023E+02 0.  0.
          6    2    1    2  501    0 -0.39036264254E+02 -0.47002965946E+02 -0.42790526245E+02  0.18719785857E+03  0.17169420602E+03 0.  0.
         24    2    5    5    0    0 -0.57566296410E+02  0.12835982888E+02 -0.62903654901E+02  0.12123809937E+03  0.85224210173E+02 0.  0.
          5    1    5    5  501    0  0.18530032156E+02 -0.59838948834E+02  0.20113128656E+02  0.65959759200E+02  0.47000000000E+01 0. -1.
        -11    1    6    6    0    0 -0.30001677074E+02  0.19622799668E+02 -0.80303521909E+02  0.87942086199E+02  0.00000000000E+00 0.  1.
         12    1    6    6    0    0 -0.27564619336E+02 -0.67868167800E+01  0.17399867007E+02  0.33296013170E+02  0.00000000000E+00 0. -1.
         -5    1    3    3    0  503 -0.50966516810E+02 -0.48429744491E+00 -0.61834636580E+02  0.80270995139E+02  0.47000000000E+01 0.  1.
         11    1    4    4    0    0  0.20833908119E+02  0.35128210913E+02 -0.14514396201E+03  0.15078067727E+03  0.00000000000E+00 0. -1.
        -12    1    4    4    0    0  0.69168872945E+02  0.12359052479E+02 -0.60738697269E+02  0.92877707274E+02  0.00000000000E+00 0.  1.
</event>
<event>
12    1  0.1061634E+000  0.2068672E+03  0.7818608E-02  0.1144733E+00
         21   -1    0    0  501  502  0.00000000000E+00  0.00000000000E+00  0.12012518369E+03  0.12012518369E+03  0.00000000000E+00 0. -1.
         21   -1    0    0  502  503 -0.00000000000E+00 -0.00000000000E+00 -0.36920849125E+03  0.36920849125E+03  0.00000000000E+00 0. -1.
         -6    2    1    2    0  503 -0.96150380977E+02 -0.48216937440E+02 -0.68778586099E+02  0.21491824966E+03  0.17288606455E+03 0.  0.
        -24    2    3    3    0    0 -0.83024766317E+02 -0.57203661680E+02 -0.11019095746E+03  0.17030751693E+03  0.81836620691E+02 0.  0.
          6    2    1    2  501    0  0.96150380977E+02  0.48216937440E+02 -0.18030472146E+03  0.27441542527E+03  0.17670388855E+03 0.  0.
         24    2    5    5    0    0  0.39356865302E+02  0.93887848257E+02 -0.14106070916E+03  0.19150874268E+03  0.80084854728E+02 0.  0.
          5    1    5    5  501    0  0.56793515675E+02 -0.45670910817E+02 -0.39244012298E+02  0.82906682595E+02  0.47000000000E+01 0. -1.
        -11    1    6    6    0    0  0.11245865548E+02  0.69629598095E+02 -0.13708515904E+03  0.15416579144E+03  0.00000000000E+00 0.  1.
         12    1    6    6    0    0  0.28110999754E+02  0.24258250162E+02 -0.39755501204E+01  0.37342951234E+02  0.00000000000E+00 0. -1.
         -5    1    3    3    0  503 -0.13125614660E+02  0.89867242401E+01  0.41412371363E+02  0.44610732730E+02  0.47000000000E+01 0.  1.
         11    1    4    4    0    0 -0.94866961789E+00 -0.38714669015E+02 -0.62702548344E+02  0.73697592497E+02  0.00000000000E+00 0. -1.
        -12    1    4    4    0    0 -0.82076096699E+02 -0.18488992664E+02 -0.47488409118E+02  0.96609924437E+02  0.00000000000E+00 0.  1.
</event>
<event>
12    1  0.1061634E+000  0.3400880E+03  0.7818608E-02  0.1066873E+00
         21   -1    0    0  501  502  0.00000000000E+00  0.00000000000E+00  0.45854914566E+03  0.45854914566E+03  0.00000000000E+00 0.  1.
         21   -1    0    0  502  503 -0.00000000000E+00 -0.00000000000E+00 -0.27699923297E+03  0.27699923297E+03  0.00000000000E+00 0.  1.
         -6    2    1    2    0  503  0.24733140351E+03  0.15858749202E+03  0.20264182482E+03  0.39588323831E+03  0.17128051092E+03 0.  0.
        -24    2    3    3    0    0  0.15974441697E+03  0.27263109472E+02  0.90445387314E+02  0.20216255213E+03  0.80173396502E+02 0.  0.
          6    2    1    2  501    0 -0.24733140351E+03 -0.15858749202E+03 -0.21091912131E+02  0.33966514032E+03  0.16912930853E+03 0.  0.
         24    2    5    5    0    0 -0.62911903492E+02 -0.43762857154E+02  0.20441941015E+02  0.11843584814E+03  0.87954999322E+02 0.  0.
          5    1    5    5  501    0 -0.18441950002E+03 -0.11482463487E+03 -0.41533853146E+02  0.22122929218E+03  0.47000000000E+01 0. -1.
        -13    1    6    6    0    0 -0.30654851780E+02 -0.61640691387E+02 -0.11316211489E+02  0.69766406062E+02  0.00000000000E+00 0.  1.
         14    1    6    6    0    0 -0.32257051711E+02  0.17877834234E+02  0.31758152504E+02  0.48669442081E+02  0.00000000000E+00 0. -1.
         -5    1    3    3    0  503  0.87586986533E+02  0.13132438255E+03  0.11219643750E+03  0.19372068617E+03  0.47000000000E+01 0.  1.
         13    1    4    4    0    0  0.11695699198E+03 -0.46198643940E+01  0.91850002543E+02  0.14878408546E+03  0.00000000000E+00 0. -1.
        -14    1    4    4    0    0  0.42787424996E+02  0.31882973866E+02 -0.14046152296E+01  0.53378466673E+02  0.00000000000E+00 0.  1.
</event>
<event>
12    1  0.1061634E+000  0.3177299E+03  0.7818608E-02  0.1076853E+00
         21   -1    0    0  501  502  0.00000000000E+00  0.00000000000E+00  0.64051771282E+03  0.64051771282E+03  0.00000000000E+00 0.  1.
         21   -1    0    0  502  503 -0.00000000000E+00 -0.00000000000E+00 -0.16432024198E+03  0.16432024198E+03  0.00000000000E+00 0. -1.
         -6    2    1    2    0  503 -0.26525889250E+03 -0.19038326349E+02  0.32283440625E+03  0.45203131321E+03  0.17142204160E+03 0.  0.
        -24    2    3    3    0    0 -0.25960305622E+03  0.23354280449E+02  0.28954628996E+03  0.39763177019E+03  0.79591465742E+02 0.  0.
          6    2    1    2  501    0  0.26525889250E+03  0.19038326349E+02  0.15336306459E+03  0.35280664159E+03  0.17386074556E+03 0.  0.
         24    2    5    5    0    0  0.21538190524E+03  0.72849917988E+02  0.13748915423E+03  0.27759047123E+03  0.80353758671E+02 0.  0.
          5    1    5    5  501    0  0.49876987261E+02 -0.53811591640E+02  0.15873910362E+02  0.75216170357E+02  0.47000000000E+01 0. -1.
        -13    1    6    6    0    0  0.17932858035E+03  0.64935189643E+02  0.74850767782E+02  0.20488522646E+03  0.00000000000E+00 0.  1.
         14    1    6    6    0    0  0.36053324887E+02  0.79147283451E+01  0.62638386447E+02  0.72705244769E+02  0.00000000000E+00 0. -1.
         -5    1    3    3    0  503 -0.56558362754E+01 -0.42392606798E+02  0.33288116292E+02  0.54399543025E+02  0.47000000000E+01 0.  1.
         11    1    4    4    0    0 -0.40909013612E+02 -0.15664299232E+02  0.85156891443E+02  0.95763321921E+02  0.00000000000E+00 0. -1.
        -12    1    4    4    0    0 -0.21869404261E+03  0.39018579681E+02  0.20438939852E+03  0.30186844827E+03  0.00000000000E+00 0.  1.
</event>
<event>
12    1  0.1061634E+000  0.1781426E+03  0.7818608E-02  0.1169892E+00
         21   -1    0    0  503  502  0.00000000000E+00  0.00000000000E+00  0.48950941780E+02  0.48950941780E+02  0.00000000000E+00 0. -1.
         21   -1    0    0  501  503 -0.00000000000E+00 -0.00000000000E+00 -0.11181157306E+04  0.11181157306E+04  0.00000000000E+00 0. -1.
          6    2    1    2  501    0 -0.30545915044E+02 -0.27235041316E+02 -0.15368503182E+03  0.23441563221E+03  0.17221149559E+03 0.  0.
         24    2    3    3    0    0 -0.42153683196E+02  0.30945852055E+02 -0.35669216471E+02  0.10224309607E+03  0.80291835977E+02 0.  0.
         -6    2    1    2    0  502  0.30545915044E+02  0.27235041316E+02 -0.91547975704E+03  0.93265104021E+03  0.17337813260E+03 0.  0.
        -24    2    5    5    0    0  0.40088821181E+02  0.26206872749E+02 -0.91716072762E+03  0.92183254447E+03  0.79356953003E+02 0.  0.
          5    1    3    3  501    0  0.11607768152E+02 -0.58180893370E+02 -0.11801581535E+03  0.13217253613E+03  0.47000000000E+01 0. -1.
        -13    1    4    4    0    0 -0.37259185827E+02 -0.21441684887E+02 -0.19455499126E+02  0.47185900707E+02  0.00000000000E+00 0.  1.
         14    1    4    4    0    0 -0.48944973684E+01  0.52387536942E+02 -0.16213717345E+02  0.55057195365E+02  0.00000000000E+00 0. -1.
         -5    1    5    5    0  502 -0.95429061374E+01  0.10281685663E+01  0.16809705802E+01  0.10818495748E+02  0.47000000000E+01 0.  1.
         13    1    6    6    0    0 -0.20117098486E+02  0.25485697046E+02 -0.32813767914E+03  0.32974013234E+03  0.00000000000E+00 0. -1.
        -14    1    6    6    0    0  0.60205919668E+02  0.72117570381E+00 -0.58902304848E+03  0.59209241213E+03  0.00000000000E+00 0.  1.
</event>
<event>
12    1  0.1061634E+000  0.2348517E+03  0.7818608E-02  0.1123532E+00
         21   -1    0    0  503  502  0.00000000000E+00  0.00000000000E+00  0.23474883949E+03  0.23474883949E+03  0.00000000000E+00 0. -1.
         21   -1    0    0  501  503 -0.00000000000E+00 -0.00000000000E+00 -0.27956940841E+03  0.27956940841E+03  0.00000000000E+00 0. -1.
          6    2    1    2  501    0  0.13401401016E+03  0.82652453598E+02  0.82114854606E+02  0.24735776338E+03  0.17219706953E+03 0.  0.
         24    2    3    3    0    0  0.20370042041E+02 -0.27943773227E+01  0.15904308852E-01  0.83106614093E+02  0.80523051952E+02 0.  0.
         -6    2    1    2    0  502 -0.13401401016E+03 -0.82652453598E+02 -0.12693542353E+03  0.26696048452E+03  0.17425302161E+03 0.  0.
        -24    2    5    5    0    0 -0.11613922816E+03 -0.54255668790E+01 -0.12379607837E+03  0.18749070817E+03  0.79432610049E+02 0.  0.
          5    1    3    3  501    0  0.11364396812E+03  0.85446830921E+02  0.82098950297E+02  0.16425114929E+03  0.47000000000E+01 0. -1.
        -13    1    4    4    0    0 -0.28628972950E+02  0.12536060045E+02  0.44749331678E+01  0.31572075011E+02  0.00000000000E+00 0.  1.
         14    1    4    4    0    0  0.48999014991E+02 -0.15330437368E+02 -0.44590288590E+01  0.51534539082E+02  0.00000000000E+00 0. -1.
         -5    1    5    5    0  502 -0.17874782001E+02 -0.77226886719E+02 -0.31393451634E+01  0.79469776343E+02  0.47000000000E+01 0.  1.
         11    1    6    6    0    0 -0.52047838701E+02  0.16955465511E+02 -0.10989372677E+02  0.55832173843E+02  0.00000000000E+00 0. -1.
        -12    1    6    6    0    0 -0.64091389456E+02 -0.22381032390E+02 -0.11280670569E+03  0.13165853433E+03  0.00000000000E+00 0.  1.
</event>
<event>
12    1  0.1061634E+000  0.3893198E+03  0.7818608E-02  0.1047646E+00
         21   -1    0    0  501  502  0.00000000000E+00  0.00000000000E+00  0.98677790972E+03  0.98677790972E+03  0.00000000000E+00 0. -1.
         21   -1    0    0  502  503 -0.00000000000E+00 -0.00000000000E+00 -0.15478548572E+03  0.15478548572E+03  0.00000000000E+00 0. -1.
         -6    2    1    2    0  503  0.54887278726E+02  0.34410598912E+03  0.47413578878E+03  0.61276166534E+03  0.17102797196E+03 0.  0.
        -24    2    3    3    0    0  0.24347893416E+02  0.24357998009E+03  0.22293942300E+03  0.34043862788E+03  0.79198777862E+02 0.  0.
          6    2    1    2  501    0 -0.54887278726E+02 -0.34410598912E+03  0.35785663523E+03  0.52880173010E+03  0.17363281159E+03 0.  0.
         24    2    5    5    0    0 -0.81845250779E+00 -0.11339898349E+03  0.20506652547E+03  0.24681579418E+03  0.77496819718E+02 0.  0.
          5    1    5    5  501    0 -0.54068826218E+02 -0.23070700563E+03  0.15279010976E+03  0.28198593592E+03  0.47000000000E+01 0. -1.
        -11    1    6    6    0    0  0.12499306255E+02 -0.11584633697E+03  0.14906721975E+03  0.18920264916E+03  0.00000000000E+00 0.  1.
         12    1    6    6    0    0 -0.13317758762E+02  0.24473534771E+01  0.55999305726E+02  0.57613145021E+02  0.00000000000E+00 0. -1.
         -5    1    3    3    0  503  0.30539385310E+02  0.10052600903E+03  0.25119636578E+03  0.27232303746E+03  0.47000000000E+01 0.  1.
         13    1    4    4    0    0  0.16381845121E+02  0.25904165567E+02  0.63466468094E+02  0.70479665263E+02  0.00000000000E+00 0. -1.
        -14    1    4    4    0    0  0.79660482952E+01  0.21767581452E+03  0.15947295490E+03  0.26995896262E+03  0.00000000000E+00 0.  1.
</event>
<event>
12    1  0.1061634E+000  0.1961656E+03  0.7818608E-02  0.1153339E+00
         21   -1    0    0  503  502  0.00000000000E+00  0.00000000000E+00  0.60347944431E+03  0.60347944431E+03  0.00000000000E+00 0. -1.
         21   -1    0    0  501  503 -0.00000000000E+00 -0.00000000000E+00 -0.94079417007E+02  0.94079417007E+02  0.00000000000E+00 0. -1.
          6    2    1    2  501    0  0.80732393162E+02 -0.47857429929E+02  0.54491388339E+02  0.20215720257E+03  0.17055840713E+03 0.  0.
         24    2    3    3    0    0  0.10917458831E+03 -0.48083325653E+02  0.78787536022E+02  0.16445571340E+03  0.81284124524E+02 0.  0.
         -6    2    1    2    0  502 -0.80732393162E+02  0.47857429929E+02  0.45490863896E+03  0.49540165875E+03  0.17225818059E+03 0.  0.
        -24    2    5    5    0    0 -0.27806098795E+01  0.63079625039E+02  0.34630100168E+03  0.36076917894E+03  0.79014212814E+02 0.  0.
          5    1    3    3  501    0 -0.28442195143E+02  0.22589572400E+00 -0.24296147683E+02  0.37701489171E+02  0.47000000000E+01 0. -1.
        -11    1    4    4    0    0  0.60573973799E+02 -0.20937415701E+02 -0.45321603350E+01  0.64250464242E+02  0.00000000000E+00 0.  1.
         12    1    4    4    0    0  0.48600614507E+02 -0.27145909951E+02  0.83319696357E+02  0.10020524916E+03  0.00000000000E+00 0. -1.
         -5    1    5    5    0  502 -0.77951783282E+02 -0.15222195111E+02  0.10860763729E+03  0.13463247980E+03  0.47000000000E+01 0.  1.
         13    1    6    6    0    0 -0.40667148520E+02  0.35113830973E+02  0.17007172356E+03  0.17835691534E+03  0.00000000000E+00 0. -1.
        -14    1    6    6    0    0  0.37886538640E+02  0.27965794067E+02  0.17622927812E+03  0.18241226361E+03  0.00000000000E+00 0.  1.
</event>
<event>
12    1  0.1061634E+000  0.1744222E+03  0.7818608E-02  0.1173486E+00
         21   -1    0    0  501  502  0.00000000000E+00  0.00000000000E+00  0.30024480372E+02  0.30024480372E+02  0.00000000000E+00 0. -1.
         21   -1    0    0  502  503 -0.00000000000E+00 -0.00000000000E+00 -0.10310377010E+04  0.10310377010E+04  0.00000000000E+00 0. -1.
         -6    2    1    2    0  503  0.12859334801E+02  0.24861211123E+02 -0.57656699831E+03  0.60217471253E+03  0.17146847688E+03 0.  0.
        -24    2    3    3    0    0 -0.58789381763E+02  0.29753835353E+02 -0.31749007891E+03  0.33328734480E+03  0.77065049639E+02 0.  0.
          6    2    1    2  501    0 -0.12859334801E+02 -0.24861211123E+02 -0.42444622227E+03  0.45888746879E+03  0.17216175854E+03 0.  0.
         24    2    5    5    0    0 -0.59773425085E+02 -0.44153746388E+02 -0.36271615894E+03  0.37885107393E+03  0.80266484863E+02 0.  0.
          5    1    5    5  501    0  0.46914090285E+02  0.19292535266E+02 -0.61730063330E+02  0.80036394864E+02  0.47000000000E+01 0. -1.
        -13    1    6    6    0    0 -0.36460736876E+02 -0.67185520153E+02 -0.24389031209E+03  0.25558905255E+03  0.00000000000E+00 0.  1.
         14    1    6    6    0    0 -0.23312688209E+02  0.23031773764E+02 -0.11882584685E+03  0.12326202138E+03  0.00000000000E+00 0. -1.
         -5    1    3    3    0  503  0.71648716564E+02 -0.48926242305E+01 -0.25907691940E+03  0.26888736773E+03  0.47000000000E+01 0.  1.
         13    1    4    4    0    0 -0.29919181622E+02 -0.16247156871E+02 -0.51002970007E+02  0.61322348984E+02  0.00000000000E+00 0. -1.
        -14    1    4    4    0    0 -0.28870200142E+02  0.46000992224E+02 -0.26648710890E+03  0.27196499582E+03  0.00000000000E+00 0.  1.
</event>
<event>
12    1  0.1169540E+000  0.1856629E+03  0.7818608E-02  0.1162753E+00
         21   -1    0    0  503  502  0.00000000000E+00  0.00000000000E+00  0.53760650961E+03  0.53760650961E+03  0.00000000000E+00 0. -1.
         21   -1    0    0  501  503 -0.00000000000E+00 -0.00000000000E+00 -0.25863641813E+03  0.25863641813E+03  0.00000000000E+00 0. -1.
          6    2    1    2  501    0  0.15274628850E+02 -0.66409828832E+02  0.48504050264E+03  0.51887001031E+03  0.17122563694E+03 0.  0.
         24    2    3    3    0    0  0.64228016000E+02 -0.81371994215E+02  0.32046105183E+03  0.34644963410E+03  0.81150623785E+02 0.  0.
         -6    2    1    2    0  502 -0.15274628850E+02  0.66409828832E+02 -0.20607041116E+03  0.27737291743E+03  0.17270535983E+03 0.  0.
        -24    2    5    5    0    0 -0.77558045438E+02  0.45033249459E+02 -0.12166676137E+03  0.17021766452E+03  0.78281597605E+02 0.  0.
          5    1    3    3  501    0 -0.48953387150E+02  0.14962165384E+02  0.16457945081E+03  0.17242037622E+03  0.47000000000E+01 0. -1.
        -11    1    4    4    0    0  0.14594590047E+02 -0.79888003324E+02  0.21674970313E+03  0.23146388258E+03  0.00000000000E+00 0.  1.
         12    1    4    4    0    0  0.49633425953E+02 -0.14839908911E+01  0.10371134870E+03  0.11498575151E+03  0.00000000000E+00 0. -1.
         -5    1    5    5    0  502  0.62283416588E+02  0.21376579373E+02 -0.84403649789E+02  0.10715525291E+03  0.47000000000E+01 0.  1.
         11    1    6    6    0    0 -0.83781946088E+01  0.17818658822E+02  0.75943667752E+01  0.21103865850E+02  0.00000000000E+00 0. -1.
        -12    1    6    6    0    0 -0.69179850829E+02  0.27214590637E+02 -0.12926112815E+03  0.14911379867E+03  0.00000000000E+00 0.  1.
</event>
<event>
12    1  0.1061634E+000  0.2169407E+03  0.7818608E-02  0.1136249E+00
         21   -1    0    0  503  502  0.00000000000E+00  0.00000000000E+00  0.39527696816E+03  0.39527696816E+03  0.00000000000E+00 0.  1.
         21   -1    0    0  501  503 -0.00000000000E+00 -0.00000000000E+00 -0.11896293159E+03  0.11896293159E+03  0.00000000000E+00 0.  1.
          6    2    1    2  501    0  0.29495283574E+02 -0.13131027504E+03  0.14514936604E+03  0.26102029911E+03  0.17014963416E+03 0.  0.
         24    2    3    3    0    0  0.70996653853E+02 -0.10354725357E+03  0.15130358843E+03  0.21049195509E+03  0.75176650023E+02 0.  0.
         -6    2    1    2    0  502 -0.29495283574E+02  0.13131027504E+03  0.13116467053E+03  0.25321960064E+03  0.16971633767E+03 0.  0.
        -24    2    5    5    0    0  0.47127311560E+02  0.68355815052E+02  0.87919276366E+02  0.14493044960E+03  0.79884511132E+02 0.  0.
          5    1    3    3  501    0 -0.41501370278E+02 -0.27763021471E+02 -0.61542223919E+01  0.50528344020E+02  0.47000000000E+01 0. -1.
        -13    1    4    4    0    0  0.56632953456E+01 -0.74358793076E+02  0.71650909953E+02  0.10341738693E+03  0.00000000000E+00 0.  1.
         14    1    4    4    0    0  0.65333358507E+02 -0.29188460489E+02  0.79652678476E+02  0.10707456817E+03  0.00000000000E+00 0. -1.
         -5    1    5    5    0  502 -0.76622595134E+02  0.62954459984E+02  0.43245394167E+02  0.10828915104E+03  0.47000000000E+01 0.  1.
         13    1    6    6    0    0 -0.17878377621E+01  0.60846216517E+02  0.68835638490E+02  0.91890171153E+02  0.00000000000E+00 0. -1.
        -14    1    6    6    0    0  0.48915149322E+02  0.75095985354E+01  0.19083637876E+02  0.53040278449E+02  0.00000000000E+00 0.  1.
</event>
<event>
12    1  0.1061634E+000  0.2559349E+03  0.7818608E-02  0.1109620E+00
         21   -1    0    0  503  502  0.00000000000E+00  0.00000000000E+00  0.50693280811E+03  0.50693280811E+03  0.00000000000E+00 0. -1.
         21   -1    0    0  501  503 -0.00000000000E+00 -0.00000000000E+00 -0.13397962298E+03  0.13397962298E+03  0.00000000000E+00 0. -1.
          6    2    1    2  501    0 -0.67822690533E+02  0.17650794918E+03  0.24709266119E+03  0.35570455584E+03  0.17238321947E+03 0.  0.
         24    2    3    3    0    0 -0.82913264218E+01  0.17358468181E+03  0.15713304273E+03  0.24768903955E+03  0.80365909085E+02 0.  0.
         -6    2    1    2    0  502  0.67822690533E+02 -0.17650794918E+03  0.12586052395E+03  0.28520787525E+03  0.17247517833E+03 0.  0.
        -24    2    5    5    0    0  0.36027818188E+02 -0.16148974925E+03  0.15452723326E+03  0.23959723549E+03  0.78429756086E+02 0.  0.
          5    1    3    3  501    0 -0.59531364111E+02  0.29232673710E+01  0.89959618464E+02  0.10801551629E+03  0.47000000000E+01 0. -1.
        -11    1    4    4    0    0 -0.37722364046E+02  0.13203488389E+03  0.13363811402E+03  0.19161245479E+03  0.00000000000E+00 0.  1.
         12    1    4    4    0    0  0.29431037624E+02  0.41549797922E+02  0.23494928704E+02  0.56076584755E+02  0.00000000000E+00 0. -1.
         -5    1    5    5    0  502  0.31794872345E+02 -0.15018199933E+02 -0.28666709310E+02  0.45610639760E+02  0.47000000000E+01 0.  1.
         11    1    6    6    0    0  0.26173810662E+00 -0.48591986787E+02  0.95774821846E+02  0.10739676991E+03  0.00000000000E+00 0. -1.
        -12    1    6    6    0    0  0.35766080081E+02 -0.11289776246E+03  0.58752411410E+02  0.13220046558E+03  0.00000000000E+00 0.  1.
</event>
<event>
12    1  0.1061634E+000  0.2856490E+03  0.7818608E-02  0.1092696E+00
         21   -1    0    0  501  502  0.00000000000E+00  0.00000000000E+00  0.97398515834E+03  0.97398515834E+03  0.00000000000E+00 0.  1.
         21   -1    0    0  502  503 -0.00000000000E+00 -0.00000000000E+00 -0.98809523437E+02  0.98809523437E+02  0.00000000000E+00 0.  1.
         -6    2    1    2    0  503 -0.10616130343E+03  0.20180038475E+03  0.64789297792E+03  0.70806828022E+03  0.17205162302E+03 0.  0.
        -24    2    3    3    0    0 -0.11738656911E+03  0.22058712308E+03  0.60698347999E+03  0.66143540397E+03  0.81422129516E+02 0.  0.
          6    2    1    2  501    0  0.10616130343E+03 -0.20180038475E+03  0.22728265698E+03  0.36472640156E+03  0.17138939347E+03 0.  0.
         24    2    5    5    0    0  0.98874715613E+02 -0.65905626896E+02  0.16077640322E+03  0.21318217908E+03  0.74012354394E+02 0.  0.
          5    1    5    5  501    0  0.72865878219E+01 -0.13589475786E+03  0.66506253766E+02  0.15154422247E+03  0.47000000000E+01 0. -1.
        -11    1    6    6    0    0  0.90401609568E+02 -0.19306430389E+02  0.11146555423E+03  0.14480938867E+03  0.00000000000E+00 0.  1.
         12    1    6    6    0    0  0.84731060447E+01 -0.46599196507E+02  0.49310848983E+02  0.68372790411E+02  0.00000000000E+00 0. -1.
         -5    1    3    3    0  503  0.11225265672E+02 -0.18786738323E+02  0.40909497931E+02  0.46632876249E+02  0.47000000000E+01 0.  1.
         13    1    4    4    0    0 -0.57013836366E+02  0.16273701157E+03  0.33329675209E+03  0.37526075924E+03  0.00000000000E+00 0. -1.
        -14    1    4    4    0    0 -0.60372732741E+02  0.57850111508E+02  0.27368672790E+03  0.28617464473E+03  0.00000000000E+00 0.  1.
</event>
<event>
12    1  0.1061634E+000  0.2152919E+03  0.7818608E-02  0.1137583E+00
         21   -1    0    0  503  502  0.00000000000E+00  0.00000000000E+00  0.37896338028E+03  0.37896338028E+03  0.00000000000E+00 0.  1.
         21   -1    0    0  501  503 -0.00000000000E+00 -0.00000000000E+00 -0.15987173575E+03  0.15987173575E+03  0.00000000000E+00 0.  1.
          6    2    1    2  501    0 -0.93435942350E+02  0.89405066191E+02 -0.21624032406E+02  0.21637510094E+03  0.17212508343E+03 0.  0.
         24    2    3    3    0    0 -0.18449760415E+02  0.68197508865E+01  0.23224835258E+02  0.96055639858E+02  0.91106477894E+02 0.  0.
         -6    2    1    2    0  502  0.93435942350E+02 -0.89405066191E+02  0.24071567694E+03  0.32246001509E+03  0.17121005527E+03 0.  0.
        -24    2    5    5    0    0  0.81657287356E+02  0.43041347305E+01  0.18824154917E+03  0.21431300803E+03  0.61715042113E+02 0.  0.
          5    1    3    3  501    0 -0.74986181935E+02  0.82585315304E+02 -0.44848867664E+02  0.12031946109E+03  0.47000000000E+01 0. -1.
        -11    1    4    4    0    0 -0.11804174996E+02  0.34638097497E+02  0.46505812233E+02  0.59177081011E+02  0.00000000000E+00 0.  1.
         12    1    4    4    0    0 -0.66455854192E+01 -0.27818346611E+02 -0.23280976975E+02  0.36878558847E+02  0.00000000000E+00 0. -1.
         -5    1    5    5    0  502  0.11778654994E+02 -0.93709200921E+02  0.52474127760E+02  0.10814700705E+03  0.47000000000E+01 0.  1.
         11    1    6    6    0    0  0.39468398174E+02  0.39333757501E+01  0.27849234363E+02  0.48464479300E+02  0.00000000000E+00 0. -1.
        -12    1    6    6    0    0  0.42188889182E+02  0.37075898037E+00  0.16039231481E+03  0.16584852873E+03  0.00000000000E+00 0.  1.
</event>
<event>
12    1  0.1061634E+000  0.3501055E+03  0.7818608E-02  0.1062593E+00
         21   -1    0    0  501  502  0.00000000000E+00  0.00000000000E+00  0.26356648184E+03  0.26356648184E+03  0.00000000000E+00 0. -1.
         21   -1    0    0  502  503 -0.00000000000E+00 -0.00000000000E+00 -0.50535111106E+03  0.50535111106E+03  0.00000000000E+00 0. -1.
         -6    2    1    2    0  503  0.29630917158E+03 -0.70974410415E+02 -0.22985437270E+03  0.41881609738E+03  0.17244534985E+03 0.  0.
        -24    2    3    3    0    0  0.71786491276E+02 -0.57327802990E+02 -0.10683775075E+03  0.16239487529E+03  0.80734213380E+02 0.  0.
          6    2    1    2  501    0 -0.29630917158E+03  0.70974410415E+02 -0.11930256515E+02  0.35010149552E+03  0.17202393453E+03 0.  0.
         24    2    5    5    0    0 -0.29639907432E+03  0.29624439347E+02 -0.12100905691E+02  0.30848482445E+03  0.79287050225E+02 0.  0.
          5    1    5    5  501    0  0.89902743311E-01  0.41349971068E+02  0.17064917562E+00  0.41616671070E+02  0.47000000000E+01 0. -1.
        -13    1    6    6    0    0 -0.12033252285E+03  0.24985479186E+02 -0.41917981879E+02  0.12985109715E+03  0.00000000000E+00 0.  1.
         14    1    6    6    0    0 -0.17606655147E+03  0.46389601617E+01  0.29817076188E+02  0.17863372730E+03  0.00000000000E+00 0. -1.
         -5    1    3    3    0  503  0.22452268030E+03 -0.13646607425E+02 -0.12301662195E+03  0.25642122209E+03  0.47000000000E+01 0.  1.
         13    1    4    4    0    0  0.39089537464E+02 -0.47246082287E+02 -0.13232179746E+02  0.62731768758E+02  0.00000000000E+00 0. -1.
        -14    1    4    4    0    0  0.32696953812E+02 -0.10081720703E+02 -0.93605571004E+02  0.99663106533E+02  0.00000000000E+00 0.  1.
</event>
<event>
12    1  0.1061634E+000  0.1968929E+03  0.7818608E-02  0.1156391E+00
         21   -1    0    0  503  502  0.00000000000E+00  0.00000000000E+00  0.82344696786E+03  0.82344696786E+03  0.00000000000E+00 0. -1.
         21   -1    0    0  501  503 -0.00000000000E+00 -0.00000000000E+00 -0.58549644735E+02  0.58549644735E+02  0.00000000000E+00 0. -1.
          6    2    1    2  501    0  0.42526039523E+02 -0.23136742519E+02  0.14176471452E+03  0.22849752180E+03  0.17254017009E+03 0.  0.
         24    2    3    3    0    0  0.71472003657E+02 -0.61007999747E+01  0.23998134873E+02  0.10594488225E+03  0.74181807280E+02 0.  0.
         -6    2    1    2    0  502 -0.42526039523E+02  0.23136742519E+02  0.62313260860E+03  0.65349909079E+03  0.19084821422E+03 0.  0.
        -24    2    5    5    0    0 -0.75755425789E+02 -0.11087314459E+02  0.57506199271E+03  0.58561424492E+03  0.79912047327E+02 0.  0.
          5    1    3    3  501    0 -0.28945964133E+02 -0.17035942544E+02  0.11776657965E+03  0.12255263955E+03  0.47000000000E+01 0. -1.
        -11    1    4    4    0    0  0.77414358651E+02 -0.25224793347E+02  0.26813813488E+02  0.85721955872E+02  0.00000000000E+00 0.  1.
         12    1    4    4    0    0 -0.59423549942E+01  0.19123993372E+02 -0.28156786151E+01  0.20222926382E+02  0.00000000000E+00 0. -1.
         -5    1    5    5    0  502  0.33229386266E+02  0.34224056977E+02  0.48070615889E+02  0.67884845875E+02  0.47000000000E+01 0.  1.
         11    1    6    6    0    0 -0.50669487364E+01 -0.36228573497E+00  0.33721975925E+03  0.33725801881E+03  0.00000000000E+00 0. -1.
        -12    1    6    6    0    0 -0.70688477053E+02 -0.10725028724E+02  0.23784223346E+03  0.24835622611E+03  0.00000000000E+00 0.  1.
</event>
<event>
12    1  0.1061634E+000  0.2932560E+03  0.7818608E-02  0.1088691E+00
         21   -1    0    0  503  502  0.00000000000E+00  0.00000000000E+00  0.36092129867E+02  0.36092129867E+02  0.00000000000E+00 0.  1.
         21   -1    0    0  501  503 -0.00000000000E+00 -0.00000000000E+00 -0.32091892216E+04  0.32091892216E+04  0.00000000000E+00 0.  1.
          6    2    1    2  501    0 -0.20747245507E+03 -0.11536587739E+03 -0.24113568743E+04  0.24291235181E+04  0.17217719365E+03 0.  0.
         24    2    3    3    0    0 -0.19754487312E+02 -0.39592205375E+02 -0.69970809686E+03  0.70553908098E+03  0.78969560542E+02 0.  0.
         -6    2    1    2    0  502  0.20747245507E+03  0.11536587739E+03 -0.76174021746E+03  0.81615783333E+03  0.17178866295E+03 0.  0.
        -24    2    5    5    0    0  0.14659235961E+03  0.13241815904E+03 -0.44767219332E+03  0.49575499295E+03  0.79616151757E+02 0.  0.
          5    1    3    3  501    0 -0.18771796776E+03 -0.75773672019E+02 -0.17116487774E+04  0.17235844371E+04  0.47000000000E+01 0. -1.
        -11    1    4    4    0    0 -0.12538352622E+02 -0.21702214506E+02 -0.53894850676E+02  0.59437793788E+02  0.00000000000E+00 0.  1.
         12    1    4    4    0    0 -0.72161346900E+01 -0.17889990868E+02 -0.64581324618E+03  0.64610128719E+03  0.00000000000E+00 0. -1.
         -5    1    5    5    0  502  0.60880095459E+02 -0.17052281649E+02 -0.31406802414E+03  0.32040284038E+03  0.47000000000E+01 0.  1.
         11    1    6    6    0    0  0.71851159836E+02  0.55790397954E+02 -0.29917345603E+03  0.31269780054E+03  0.00000000000E+00 0. -1.
        -12    1    6    6    0    0  0.74741199779E+02  0.76627761089E+02 -0.14849873729E+03  0.18305719241E+03  0.00000000000E+00 0.  1.
</event>
<event>
12    1  0.1061634E+000  0.1828756E+03  0.7818608E-02  0.1165066E+00
         21   -1    0    0  501  502  0.00000000000E+00  0.00000000000E+00  0.12874907274E+03  0.12874907274E+03  0.00000000000E+00 0. -1.
         21   -1    0    0  502  503 -0.00000000000E+00 -0.00000000000E+00 -0.25968406503E+03  0.25968406503E+03  0.00000000000E+00 0. -1.
         -6    2    1    2    0  503 -0.60063444858E+02  0.12177563895E+02 -0.63267732373E+02  0.19343998142E+03  0.17222168847E+03 0.  0.
        -24    2    3    3    0    0 -0.31495475505E+01 -0.27904358047E+02 -0.85318660639E+02  0.12026836390E+03  0.79978951315E+02 0.  0.
          6    2    1    2  501    0  0.60063444858E+02 -0.12177563895E+02 -0.67667259916E+02  0.19499315636E+03  0.17230079074E+03 0.  0.
         24    2    5    5    0    0  0.57856971374E+02 -0.18801597462E+02  0.23180251457E+02  0.10375661396E+03  0.80790975233E+02 0.  0.
          5    1    5    5  501    0  0.22064734842E+01  0.66240335670E+01 -0.90847511373E+02  0.91236542397E+02  0.47000000000E+01 0. -1.
        -13    1    6    6    0    0  0.63181587890E+02  0.16437762177E+02  0.18174424498E+02  0.67767416798E+02  0.00000000000E+00 0.  1.
         14    1    6    6    0    0 -0.53246165161E+01 -0.35239359639E+02  0.50058269592E+01  0.35989197162E+02  0.00000000000E+00 0. -1.
         -5    1    3    3    0  503 -0.56913897307E+02  0.40081921942E+02  0.22050928266E+02  0.73171617521E+02  0.47000000000E+01 0.  1.
         13    1    4    4    0    0 -0.22437798697E+02 -0.50378060412E+02 -0.55746553262E+02  0.78416082418E+02  0.00000000000E+00 0. -1.
        -14    1    4    4    0    0  0.19288251147E+02  0.22473702365E+02 -0.29572107377E+02  0.41852281479E+02  0.00000000000E+00 0.  1.
</event>
<event>
12    1  0.1061634E+000  0.1806706E+03  0.7818608E-02  0.1167166E+00
         21   -1    0    0  503  502  0.00000000000E+00  0.00000000000E+00  0.28948490684E+03  0.28948490684E+03  0.00000000000E+00 0.  1.
         21   -1    0    0  501  503 -0.00000000000E+00 -0.00000000000E+00 -0.13863706973E+03  0.13863706973E+03  0.00000000000E+00 0.  1.
          6    2    1    2  501    0  0.23877297504E+02 -0.50715524046E+02  0.16794721291E+03  0.24664400127E+03  0.17171140709E+03 0.  0.
         24    2    3    3    0    0  0.60413507616E+02 -0.45997050432E+02  0.16930515905E+03  0.20948094623E+03  0.97224016573E+02 0.  0.
         -6    2    1    2    0  502 -0.23877297504E+02  0.50715524046E+02 -0.17099375795E+02  0.18147797530E+03  0.17175470052E+03 0.  0.
        -24    2    5    5    0    0  0.34589099656E+02  0.70957680960E+02  0.11632079211E+02  0.11309924308E+03  0.80154446019E+02 0.  0.
          5    1    3    3  501    0 -0.36536210112E+02 -0.47184736143E+01 -0.13579461452E+01  0.37163055045E+02  0.47000000000E+01 0.  1.
        -11    1    4    4    0    0 -0.98448625921E+01 -0.44209497857E+01  0.10501310138E+03  0.10556617630E+03  0.00000000000E+00 0.  1.
         12    1    4    4    0    0  0.70258370208E+02 -0.41576100646E+02  0.64292057671E+02  0.10391476993E+03  0.00000000000E+00 0. -1.
         -5    1    5    5    0  502 -0.58466397160E+02 -0.20242156913E+02 -0.28731455006E+02  0.68378732221E+02  0.47000000000E+01 0.  1.
         13    1    6    6    0    0  0.12984647173E+02  0.51685605659E+02  0.44407163590E+02  0.69368574100E+02  0.00000000000E+00 0. -1.
        -14    1    6    6    0    0  0.21604452483E+02  0.19272075301E+02 -0.32775084379E+02  0.43730668981E+02  0.00000000000E+00 0.  1.
</event>
<event>
12    1  0.1061634E+000  0.2654846E+03  0.7818608E-02  0.1104063E+00
         21   -1    0    0  503  502  0.00000000000E+00  0.00000000000E+00  0.12817255196E+04  0.12817255196E+04  0.00000000000E+00 0. -1.
         21   -1    0    0  501  503 -0.00000000000E+00 -0.00000000000E+00 -0.60982020734E+02  0.60982020734E+02  0.00000000000E+00 0.  1.
          6    2    1    2  501    0 -0.19534802223E+03 -0.52983278919E+02  0.82621120045E+03  0.86781738691E+03  0.17179636682E+03 0.  0.
         24    2    3    3    0    0 -0.16830855670E+03  0.18132468358E+02  0.52808290826E+03  0.56009811418E+03  0.78624314633E+02 0.  0.
         -6    2    1    2    0  502  0.19534802223E+03  0.52983278919E+02  0.39453229842E+03  0.47489015342E+03  0.16999072234E+03 0.  0.
        -24    2    5    5    0    0  0.10777787031E+03  0.37642256321E+02  0.11225285463E+03  0.17890425364E+03  0.79831195702E+02 0.  0.
          5    1    3    3  501    0 -0.27039465538E+02 -0.71115747276E+02  0.29812829219E+03  0.30771927273E+03  0.47000000000E+01 0. -1.
        -11    1    4    4    0    0 -0.10694136174E+03 -0.20276281584E+01  0.21167557905E+03  0.23716474631E+03  0.00000000000E+00 0.  1.
         12    1    4    4    0    0 -0.61367194956E+02  0.20160096516E+02  0.31640732921E+03  0.32293336787E+03  0.00000000000E+00 0. -1.
         -5    1    5    5    0  502  0.87570151920E+02  0.15341022598E+02  0.28227944379E+03  0.29598589978E+03  0.47000000000E+01 0.  1.
         11    1    6    6    0    0  0.26603485930E+02 -0.21876120094E+02  0.49448022224E+02  0.60261239581E+02  0.00000000000E+00 0. -1.
        -12    1    6    6    0    0  0.81174384385E+02  0.59518376414E+02  0.62804832405E+02  0.11864301406E+03  0.00000000000E+00 0.  1.
</event>
<event>
12    1  0.1061634E+000  0.3473888E+03  0.7818608E-02  0.1063724E+00
         21   -1    0    0  503  502  0.00000000000E+00  0.00000000000E+00  0.34368300859E+03  0.34368300859E+03  0.00000000000E+00 0.  1.
         21   -1    0    0  501  503 -0.00000000000E+00 -0.00000000000E+00 -0.43540271617E+03  0.43540271617E+03  0.00000000000E+00 0. -1.
          6    2    1    2  501    0 -0.28655684088E+03 -0.93538623176E+02  0.12585163458E+03  0.36918781629E+03  0.17203695153E+03 0.  0.
         24    2    3    3    0    0 -0.84167960455E+02  0.54384988998E+01  0.69136790166E+02  0.13681657627E+03  0.82613902881E+02 0.  0.
         -6    2    1    2    0  502  0.28655684088E+03  0.93538623176E+02 -0.21757134217E+03  0.40989790846E+03  0.17266936425E+03 0.  0.
        -24    2    5    5    0    0  0.20059145160E+03  0.75744591948E+01 -0.18405869603E+03  0.28370332421E+03  0.79471187849E+02 0.  0.
          5    1    3    3  501    0 -0.20238888043E+03 -0.98977122076E+02  0.56714844415E+02  0.23237124003E+03  0.47000000000E+01 0. -1.
        -11    1    4    4    0    0 -0.11391484667E+02 -0.13877368527E+02 -0.15367762763E+02  0.23632930679E+02  0.00000000000E+00 0.  1.
         12    1    4    4    0    0 -0.72776475788E+02  0.19315867426E+02  0.84504552929E+02  0.11318364559E+03  0.00000000000E+00 0. -1.
         -5    1    5    5    0  502  0.85965389285E+02  0.85964163982E+02 -0.33512646132E+02  0.12619458425E+03  0.47000000000E+01 0.  1.
         13    1    6    6    0    0  0.12355181464E+03 -0.33706190449E+02 -0.10060348600E+03  0.16285643852E+03  0.00000000000E+00 0. -1.
        -14    1    6    6    0    0  0.77039636960E+02  0.41280649644E+02 -0.83455210038E+02  0.12084688569E+03  0.00000000000E+00 0.  1.
</event>
<event>
12    1  0.1061634E+000  0.5206047E+03  0.7818608E-02  0.1008790E+00
         21   -1    0    0  503  502  0.00000000000E+00  0.00000000000E+00  0.26361729339E+03  0.26361729339E+03  0.00000000000E+00 0.  1.
         21   -1    0    0  501  503 -0.00000000000E+00 -0.00000000000E+00 -0.10243801087E+04  0.10243801087E+04  0.00000000000E+00 0. -1.
          6    2    1    2  501    0 -0.30439422012E+03 -0.37995412270E+03 -0.42358424537E+03  0.67115788844E+03  0.18441345313E+03 0.  0.
         24    2    3    3    0    0 -0.16772763125E+03 -0.24724744794E+03 -0.34917949938E+03  0.46659255837E+03  0.80736819028E+02 0.  0.
         -6    2    1    2    0  502  0.30439422012E+03  0.37995412270E+03 -0.33717856994E+03  0.61683951364E+03  0.17257062601E+03 0.  0.
        -24    2    5    5    0    0  0.39607659235E+02  0.91309038821E+02 -0.80156395652E+02  0.14832014867E+03  0.75284204837E+02 0.  0.
          5    1    3    3  501    0 -0.13666658887E+03 -0.13270667476E+03 -0.74404745987E+02  0.20456533007E+03  0.47000000000E+01 0. -1.
        -13    1    4    4    0    0 -0.79297162254E+02 -0.10365746692E+03 -0.94452636345E+02  0.16110310644E+03  0.00000000000E+00 0.  1.
         14    1    4    4    0    0 -0.88430468996E+02 -0.14358998101E+03 -0.25472686303E+03  0.30548945194E+03  0.00000000000E+00 0. -1.
         -5    1    5    5    0  502  0.26478656089E+03  0.28864508387E+03 -0.25702217429E+03  0.46851936497E+03  0.47000000000E+01 0.  1.
         13    1    6    6    0    0 -0.71714386160E+00  0.79376474208E+02 -0.68058138037E+02  0.10456122181E+03  0.00000000000E+00 0. -1.
        -14    1    6    6    0    0  0.40324803097E+02  0.11932564613E+02 -0.12098257615E+02  0.43758926865E+02  0.00000000000E+00 0.  1.
</event>
<event>
12    1  0.1061634E+000  0.2481110E+03  0.7818608E-02  0.1115467E+00
         21   -1    0    0  501  502  0.00000000000E+00  0.00000000000E+00  0.18746108216E+02  0.18746108216E+02  0.00000000000E+00 0. -1.
         21   -1    0    0  502  503 -0.00000000000E+00 -0.00000000000E+00 -0.33202112986E+04  0.33202112986E+04  0.00000000000E+00 0. -1.
         -6    2    1    2    0  503  0.16437581334E+03  0.70000390939E+02 -0.13598250430E+04  0.13822746501E+04  0.17216154621E+03 0.  0.
        -24    2    3    3    0    0  0.15489377454E+03  0.90358386283E+02 -0.86725740537E+03  0.88917291143E+03  0.79601129984E+02 0.  0.
          6    2    1    2  501    0 -0.16437581334E+03 -0.70000390939E+02 -0.19416401474E+04  0.19566827568E+04  0.16346707852E+03 0.  0.
         24    2    5    5    0    0 -0.88666399720E+02 -0.68533946358E+02 -0.16319703048E+04  0.16378543277E+04  0.81737938818E+02 0.  0.
          5    1    5    5  501    0 -0.75709413618E+02 -0.14664445803E+01 -0.30966984263E+03  0.31882842910E+03  0.47000000000E+01 0. -1.
        -13    1    6    6    0    0 -0.32443386543E+02  0.14569575497E+02 -0.58761404929E+03  0.58868932111E+03  0.00000000000E+00 0.  1.
         14    1    6    6    0    0 -0.56223013177E+02 -0.83103521855E+02 -0.10443562555E+04  0.10491650066E+04  0.00000000000E+00 0. -1.
         -5    1    3    3    0  503  0.94820387939E+01 -0.20357995344E+02 -0.49256763760E+03  0.49310173863E+03  0.47000000000E+01 0.  1.
         11    1    4    4    0    0  0.47248997217E+02  0.11449697742E+02 -0.40885208668E+03  0.41173242779E+03  0.00000000000E+00 0. -1.
        -12    1    4    4    0    0  0.10764477733E+03  0.78908688541E+02 -0.45840531869E+03  0.47744048364E+03  0.00000000000E+00 0.  1.
</event>
<event>
12    1  0.1061634E+000  0.1994996E+03  0.7818608E-02  0.1150182E+00
         21   -1    0    0  503  502  0.00000000000E+00  0.00000000000E+00  0.12719983215E+03  0.12719983215E+03  0.00000000000E+00 0.  1.
         21   -1    0    0  501  503 -0.00000000000E+00 -0.00000000000E+00 -0.34355783690E+03  0.34355783690E+03  0.00000000000E+00 0.  1.
          6    2    1    2  501    0  0.10104096736E+03  0.53889336906E+01 -0.37713056364E+02  0.20303287885E+03  0.17193532966E+03 0.  0.
         24    2    3    3    0    0  0.33878282941E+02  0.66281881442E+02 -0.33764934781E+02  0.11216784197E+03  0.76814894965E+02 0.  0.
         -6    2    1    2    0  502 -0.10104096736E+03 -0.53889336906E+01 -0.17864494839E+03  0.26772479019E+03  0.17182615635E+03 0.  0.
        -24    2    5    5    0    0 -0.96678693480E+02 -0.48387323177E+02 -0.17531537669E+03  0.22412356338E+03  0.88361685926E+02 0.  0.
          5    1    3    3  501    0  0.67162684417E+02 -0.60892947752E+02 -0.39481215825E+01  0.90865036884E+02  0.47000000000E+01 0. -1.
        -11    1    4    4    0    0 -0.23714171577E+02  0.98395783318E+01 -0.29566047323E+01  0.25844162724E+02  0.00000000000E+00 0.  1.
         12    1    4    4    0    0  0.57592454519E+02  0.56442303110E+02 -0.30808330049E+02  0.86323679244E+02  0.00000000000E+00 0. -1.
         -5    1    5    5    0  502 -0.43622738781E+01  0.42998389486E+02 -0.33295716971E+01  0.43601226812E+02  0.47000000000E+01 0.  1.
         11    1    6    6    0    0 -0.36674621918E+02  0.22777638877E+02 -0.79932291001E+02  0.90846132941E+02  0.00000000000E+00 0. -1.
        -12    1    6    6    0    0 -0.60004071562E+02 -0.71164962054E+02 -0.95383085690E+02  0.13327743044E+03  0.00000000000E+00 0.  1.
</event>
<event>
12    1  0.1061634E+000  0.2326423E+03  0.7818608E-02  0.1124861E+00
         21   -1    0    0  503  502  0.00000000000E+00  0.00000000000E+00  0.43402586856E+03  0.43402586856E+03  0.00000000000E+00 0.  1.
         21   -1    0    0  501  503 -0.00000000000E+00 -0.00000000000E+00 -0.13744460552E+03  0.13744460552E+03  0.00000000000E+00 0. -1.
          6    2    1    2  501    0  0.83538019008E+02 -0.13213546303E+03  0.60457229895E+02  0.23999344336E+03  0.17176552331E+03 0.  0.
         24    2    3    3    0    0  0.11596695439E+03 -0.70756950832E+02  0.18380952052E+02  0.15868255377E+03  0.79921291724E+02 0.  0.
         -6    2    1    2    0  502 -0.83538019008E+02  0.13213546303E+03  0.23612403315E+03  0.33147703072E+03  0.17229068940E+03 0.  0.
        -24    2    5    5    0    0 -0.96600283083E+02  0.80405253098E+02  0.84941121017E+02  0.17108688051E+03  0.79114519691E+02 0.  0.
          5    1    3    3  501    0 -0.32428935378E+02 -0.61378512201E+02  0.42076277843E+02  0.81310889596E+02  0.47000000000E+01 0. -1.
        -11    1    4    4    0    0  0.61593823694E+01 -0.16855771959E+02  0.30886388949E+02  0.35721478998E+02  0.00000000000E+00 0.  1.
         12    1    4    4    0    0  0.10980757202E+03 -0.53901178872E+02 -0.12505436897E+02  0.12296107477E+03  0.00000000000E+00 0. -1.
         -5    1    5    5    0  502  0.13062264075E+02  0.51730209934E+02  0.15118291213E+03  0.16039015021E+03  0.47000000000E+01 0.  1.
         11    1    6    6    0    0 -0.35073837646E+02  0.56470916842E+02  0.39441476309E+01  0.66593504463E+02  0.00000000000E+00 0. -1.
        -12    1    6    6    0    0 -0.61526445437E+02  0.23934336256E+02  0.80996973386E+02  0.10449337605E+03  0.00000000000E+00 0.  1.
</event>
<event>
12    1  0.1061634E+000  0.2062066E+03  0.7818608E-02  0.1144740E+00
         21   -1    0    0  501  502  0.00000000000E+00  0.00000000000E+00  0.98036451776E+02  0.98036451776E+02  0.00000000000E+00 0. -1.
         21   -1    0    0  502  503 -0.00000000000E+00 -0.00000000000E+00 -0.50673966370E+03  0.50673966370E+03  0.00000000000E+00 0. -1.
         -6    2    1    2    0  503 -0.96591907518E+02 -0.55327191461E+02 -0.88202872074E+02  0.22367030904E+03  0.17279341941E+03 0.  0.
        -24    2    3    3    0    0 -0.21544810810E+02 -0.55149201596E+02  0.76919880283E+01  0.10180968128E+03  0.82464727081E+02 0.  0.
          6    2    1    2  501    0  0.96591907518E+02  0.55327191461E+02 -0.32050033985E+03  0.38110580643E+03  0.17358016344E+03 0.  0.
         24    2    5    5    0    0  0.54110224800E+02  0.27361122077E+02 -0.48376767966E+02  0.10423016146E+03  0.69620883726E+02 0.  0.
          5    1    5    5  501    0  0.42481682718E+02  0.27966069384E+02 -0.27212357188E+03  0.27687564497E+03  0.47000000000E+01 0. -1.
        -13    1    6    6    0    0  0.32457610657E+02  0.50788693995E+02 -0.28803633160E+02  0.66802973067E+02  0.00000000000E+00 0.  1.
         14    1    6    6    0    0  0.21652614143E+02 -0.23427571918E+02 -0.19573134805E+02  0.37427188397E+02  0.00000000000E+00 0. -1.
         -5    1    3    3    0  503 -0.75047096708E+02 -0.17798986508E+00 -0.95894860103E+02  0.12186062776E+03  0.47000000000E+01 0.  1.
         13    1    4    4    0    0  0.31448093244E+02 -0.26914763315E+02  0.11492729232E+01  0.41409031397E+02  0.00000000000E+00 0. -1.
        -14    1    4    4    0    0 -0.52992904054E+02 -0.28234438281E+02  0.65427151051E+01  0.60400649881E+02  0.00000000000E+00 0.  1.
</event>
<event>
12    1  0.1061634E+000  0.2137191E+03  0.7818608E-02  0.1138672E+00
         21   -1    0    0  503  502  0.00000000000E+00  0.00000000000E+00  0.43112898535E+03  0.43112898535E+03  0.00000000000E+00 0. -1.
         21   -1    0    0  501  503 -0.00000000000E+00 -0.00000000000E+00 -0.10890972602E+03  0.10890972602E+03  0.00000000000E+00 0. -1.
          6    2    1    2  501    0 -0.11646325094E+03  0.48067058947E+02  0.11618050611E+03  0.24317541296E+03  0.17251736287E+03 0.  0.
         24    2    3    3    0    0 -0.91934821215E+02  0.66574664457E+02  0.14587656016E+03  0.20018563565E+03  0.76877308854E+02 0.  0.
         -6    2    1    2    0  502  0.11646325094E+03 -0.48067058947E+02  0.20603875322E+03  0.29686329841E+03  0.17263174431E+03 0.  0.
        -24    2    5    5    0    0  0.61709682254E+02  0.30920972817E+02  0.58329753527E+02  0.12057631354E+03  0.79825408220E+02 0.  0.
          5    1    3    3  501    0 -0.24528429726E+02 -0.18507605509E+02 -0.29696054052E+02  0.42989777305E+02  0.47000000000E+01 0. -1.
        -13    1    4    4    0    0 -0.91185003074E+02  0.24091932891E+02  0.10646702577E+03  0.14223344752E+03  0.00000000000E+00 0.  1.
         14    1    4    4    0    0 -0.74981814058E+00  0.42482731565E+02  0.39409534391E+02  0.57952188133E+02  0.00000000000E+00 0. -1.
         -5    1    5    5    0  502  0.54753568687E+02 -0.78988031764E+02  0.14770899969E+03  0.17628698487E+03  0.47000000000E+01 0.  1.
         13    1    6    6    0    0  0.28240922415E+02  0.39656352078E+02  0.68938518088E+02  0.84396061728E+02  0.00000000000E+00 0. -1.
        -14    1    6    6    0    0  0.33468759839E+02 -0.87353792616E+01 -0.10608764560E+02  0.36180251816E+02  0.00000000000E+00 0.  1.
</event>
<event>
12    1  0.1061634E+000  0.2983338E+03  0.7818608E-02  0.1086212E+00
         21   -1    0    0  503  502  0.00000000000E+00  0.00000000000E+00  0.20216469925E+03  0.20216469925E+03  0.00000000000E+00 0.  1.
         21   -1    0    0  501  503 -0.00000000000E+00 -0.00000000000E+00 -0.46300467903E+03  0.46300467903E+03  0.00000000000E+00 0.  1.
          6    2    1    2  501    0 -0.87923609727E+02 -0.22670451802E+03 -0.53938392287E+02  0.30211111943E+03  0.17098619443E+03 0.  0.
         24    2    3    3    0    0 -0.14425983292E+02 -0.11011086475E+03 -0.83466365985E+02  0.16107930634E+03  0.81531571494E+02 0.  0.
         -6    2    1    2    0  502  0.87923609727E+02  0.22670451802E+03 -0.20690158749E+03  0.36305825884E+03  0.17285118677E+03 0.  0.
        -24    2    5    5    0    0  0.98588501572E+02  0.22484293763E+03 -0.14023204950E+03  0.29535210922E+03  0.85403755610E+02 0.  0.
          5    1    3    3  501    0 -0.73497626435E+02 -0.11659365326E+03  0.29527973698E+02  0.14103181309E+03  0.47000000000E+01 0. -1.
        -13    1    4    4    0    0  0.32589675089E+02 -0.29984878390E+02 -0.20154086231E+02  0.48655596248E+02  0.00000000000E+00 0.  1.
         14    1    4    4    0    0 -0.47015658381E+02 -0.80125986365E+02 -0.63312279754E+02  0.11242371010E+03  0.00000000000E+00 0. -1.
         -5    1    5    5    0  502 -0.10664891845E+02  0.18615803903E+01 -0.66669537997E+02  0.67706149620E+02  0.47000000000E+01 0.  1.
         13    1    6    6    0    0  0.85241829410E+02  0.10264289727E+03 -0.48475395850E+02  0.14195632372E+03  0.00000000000E+00 0. -1.
        -14    1    6    6    0    0  0.13346672162E+02  0.12220004036E+03 -0.91756653646E+02  0.15339578551E+03  0.00000000000E+00 0.  1.
</event>
<event>
12    1  0.1061634E+000  0.2376139E+03  0.7818608E-02  0.1121540E+00
         21   -1    0    0  501  502  0.00000000000E+00  0.00000000000E+00  0.32957598201E+03  0.32957598201E+03  0.00000000000E+00 0.  1.
         21   -1    0    0  502  503 -0.00000000000E+00 -0.00000000000E+00 -0.57873938718E+03  0.57873938718E+03  0.00000000000E+00 0.  1.
         -6    2    1    2    0  503  0.14748216236E+03 -0.70586525402E+02  0.25683612789E+03  0.34930203567E+03  0.17121235280E+03 0.  0.
        -24    2    3    3    0    0  0.14547034196E+03 -0.10191650091E+03  0.17731320088E+03  0.26367726877E+03  0.80852565284E+02 0.  0.
          6    2    1    2  501    0 -0.14748216236E+03  0.70586525402E+02 -0.50599953306E+03  0.55901333352E+03  0.17241500459E+03 0.  0.
         24    2    5    5    0    0 -0.79229430284E+02  0.91177593573E+02 -0.21511068168E+03  0.25947895922E+03  0.80411869236E+02 0.  0.
          5    1    5    5  501    0 -0.68252732074E+02 -0.20591068171E+02 -0.29088885139E+03  0.29953437430E+03  0.47000000000E+01 0. -1.
        -13    1    6    6    0    0 -0.84521386447E+02  0.44851530909E+02 -0.16707543987E+03  0.19253500253E+03  0.00000000000E+00 0.  1.
         14    1    6    6    0    0  0.52919561627E+01  0.46326062664E+02 -0.48035241811E+02  0.66943956694E+02  0.00000000000E+00 0. -1.
         -5    1    3    3    0  503  0.20118203966E+01  0.31329975503E+02  0.79522927010E+02  0.85624766899E+02  0.47000000000E+01 0.  1.
         11    1    4    4    0    0  0.13012962913E+03 -0.72766592790E+02  0.17606834490E+03  0.23071358755E+03  0.00000000000E+00 0. -1.
        -12    1    4    4    0    0  0.15340712827E+02 -0.29149908115E+02  0.12448559809E+01  0.32963681220E+02  0.00000000000E+00 0.  1.
</event>
<event>
12    1  0.1061634E+000  0.2192612E+03  0.7818608E-02  0.1135071E+00
         21   -1    0    0  503  502  0.00000000000E+00  0.00000000000E+00  0.60822014185E+02  0.60822014185E+02  0.00000000000E+00 0. -1.
         21   -1    0    0  501  503 -0.00000000000E+00 -0.00000000000E+00 -0.78228376200E+03  0.78228376200E+03  0.00000000000E+00 0. -1.
          6    2    1    2  501    0  0.72641179790E+02  0.10950651071E+03 -0.32798142084E+03  0.39265903866E+03  0.17129183093E+03 0.  0.
         24    2    3    3    0    0  0.70714952060E+02  0.65278550617E+01 -0.12527692790E+03  0.16523978854E+03  0.81034941320E+02 0.  0.
         -6    2    1    2    0  502 -0.72641179790E+02 -0.10950651071E+03 -0.39348032698E+03  0.45044673752E+03  0.17551945400E+03 0.  0.
        -24    2    5    5    0    0 -0.90445576278E+02 -0.52431700291E+02 -0.14930314846E+03  0.19901262084E+03  0.79906868612E+02 0.  0.
          5    1    3    3  501    0  0.19262277301E+01  0.10297865565E+03 -0.20270449293E+03  0.22741925013E+03  0.47000000000E+01 0. -1.
        -11    1    4    4    0    0  0.29375645724E+02  0.31017580161E+02 -0.10449307889E+03  0.11288853962E+03  0.00000000000E+00 0.  1.
         12    1    4    4    0    0  0.41339306335E+02 -0.24489725100E+02 -0.20783849010E+02  0.52351248920E+02  0.00000000000E+00 0. -1.
         -5    1    5    5    0  502  0.17804396488E+02 -0.57074810420E+02 -0.24417717852E+03  0.25143411667E+03  0.47000000000E+01 0.  1.
         13    1    6    6    0    0 -0.89690565975E+02 -0.55731568239E+02 -0.15779694294E+03  0.18986911420E+03  0.00000000000E+00 0. -1.
        -14    1    6    6    0    0 -0.75501030315E+00  0.32998679477E+01  0.84937944855E+01  0.91435066464E+01  0.00000000000E+00 0.  1.
</event>
<event>
12    1  0.1061634E+000  0.1752473E+03  0.7818608E-02  0.1173050E+00
         21   -1    0    0  501  502  0.00000000000E+00  0.00000000000E+00  0.23434816876E+03  0.23434816876E+03  0.00000000000E+00 0. -1.
         21   -1    0    0  502  503 -0.00000000000E+00 -0.00000000000E+00 -0.22374551965E+03  0.22374551965E+03  0.00000000000E+00 0. -1.
         -6    2    1    2    0  503 -0.35799902005E+02  0.66304530837E+01  0.15403124163E+03  0.23163536824E+03  0.16912635670E+03 0.  0.
        -24    2    3    3    0    0 -0.77010633201E+02  0.25426157907E+02  0.62757852222E+02  0.12963279720E+03  0.79303133364E+02 0.  0.
          6    2    1    2  501    0  0.35799902005E+02 -0.66304530837E+01 -0.14342859252E+03  0.22645832018E+03  0.17142349236E+03 0.  0.
         24    2    5    5    0    0  0.67108276943E+02  0.30998052860E+02 -0.14195123195E+03  0.17726084671E+03  0.76202725740E+02 0.  0.
          5    1    5    5  501    0 -0.31308374938E+02 -0.37628505944E+02 -0.14773605740E+01  0.49197473462E+02  0.47000000000E+01 0. -1.
        -11    1    6    6    0    0  0.48118872275E+02  0.23170767375E+01 -0.13337727282E+03  0.14181075989E+03  0.00000000000E+00 0.  1.
         12    1    6    6    0    0  0.18989404667E+02  0.28680976123E+02 -0.85739591263E+01  0.35450086827E+02  0.00000000000E+00 0. -1.
         -5    1    3    3    0  503  0.41210731196E+02 -0.18795704823E+02  0.91273389409E+02  0.10200257104E+03  0.47000000000E+01 0.  1.
         11    1    4    4    0    0 -0.64887449315E+02  0.43942069562E+02  0.71263039688E+02  0.10592312015E+03  0.00000000000E+00 0. -1.
        -12    1    4    4    0    0 -0.12123183886E+02 -0.18515911656E+02 -0.85051874657E+01  0.23709677050E+02  0.00000000000E+00 0.  1.
</event>
<event>
12    1  0.1061634E+000  0.1828456E+03  0.7818608E-02  0.1165352E+00
         21   -1    0    0  503  502  0.00000000000E+00  0.00000000000E+00  0.59592244077E+03  0.59592244077E+03  0.00000000000E+00 0.  1.
         21   -1    0    0  501  503 -0.00000000000E+00 -0.00000000000E+00 -0.14587417907E+03  0.14587417907E+03  0.00000000000E+00 0.  1.
          6    2    1    2  501    0  0.20285414467E+02 -0.61305783346E+02  0.51628603601E+03  0.54732311692E+03  0.16982763682E+03 0.  0.
         24    2    3    3    0    0  0.25531956578E+02 -0.18014539723E+02  0.14232509907E+03  0.17079884103E+03  0.89103343507E+02 0.  0.
         -6    2    1    2    0  502 -0.20285414467E+02  0.61305783346E+02 -0.66237774307E+02  0.19447350293E+03  0.17106315642E+03 0.  0.
        -24    2    5    5    0    0  0.34194536464E+02  0.81397769906E+02 -0.69589763228E+02  0.13612044982E+03  0.76754012553E+02 0.  0.
          5    1    3    3  501    0 -0.52465421111E+01 -0.43291243623E+02  0.37396093694E+03  0.37652427589E+03  0.47000000000E+01 0. -1.
        -13    1    4    4    0    0  0.34512918413E+02 -0.18257287253E+02  0.12984958883E+02  0.41147044030E+02  0.00000000000E+00 0.  1.
         14    1    4    4    0    0 -0.89809618354E+01  0.24274753061E+00  0.12934014019E+03  0.12965179700E+03  0.00000000000E+00 0. -1.
         -5    1    5    5    0  502 -0.54479950931E+02 -0.20091986561E+02  0.33519889212E+01  0.58353053109E+02  0.47000000000E+01 0.  1.
         11    1    6    6    0    0  0.44094951692E+02  0.71246633678E+02 -0.22234846745E+02  0.86688153660E+02  0.00000000000E+00 0. -1.
        -12    1    6    6    0    0 -0.99004152279E+01  0.10151136228E+02 -0.47354916484E+02  0.49432296159E+02  0.00000000000E+00 0.  1.
</event>
<event>
12    1  0.1061634E+000  0.2430889E+03  0.7818608E-02  0.1117906E+00
         21   -1    0    0  501  502  0.00000000000E+00  0.00000000000E+00  0.45936894458E+03  0.45936894458E+03  0.00000000000E+00 0.  1.
         21   -1    0    0  502  503 -0.00000000000E+00 -0.00000000000E+00 -0.14023535348E+03  0.14023535348E+03  0.00000000000E+00 0.  1.
         -6    2    1    2    0  503  0.70084963601E+02  0.15498764663E+03  0.71811417119E+02  0.25347400050E+03  0.17366380329E+03 0.  0.
        -24    2    3    3    0    0 -0.17368693696E+02  0.77146103855E+02  0.77474241654E+02  0.13616413077E+03  0.79279376428E+02 0.  0.
          6    2    1    2  501    0 -0.70084963601E+02 -0.15498764663E+03  0.24732217398E+03  0.34613029755E+03  0.17235095710E+03 0.  0.
         24    2    5    5    0    0  0.12521279110E+02 -0.86054765416E+02  0.19183490532E+03  0.22498385547E+03  0.79087920952E+02 0.  0.
          5    1    5    5  501    0 -0.82606242711E+02 -0.68932881214E+02  0.55487268660E+02  0.12114644209E+03  0.47000000000E+01 0. -1.
        -13    1    6    6    0    0  0.22978338396E+02 -0.77106939014E+02  0.19492600018E+03  0.21087823412E+03  0.00000000000E+00 0.  1.
         14    1    6    6    0    0 -0.10457059286E+02 -0.89478264019E+01 -0.30910948578E+01  0.14105621349E+02  0.00000000000E+00 0. -1.
         -5    1    3    3    0  503  0.87453657296E+02  0.77841542775E+02 -0.56628245349E+01  0.11730986974E+03  0.47000000000E+01 0.  1.
         11    1    4    4    0    0 -0.24185354904E+02  0.40972894789E+02 -0.29977847976E+01  0.47672803703E+02  0.00000000000E+00 0. -1.
        -12    1    4    4    0    0  0.68166612087E+01  0.36173209066E+02  0.80472026451E+02  0.88491327063E+02  0.00000000000E+00 0.  1.
</event>
<event>
12    1  0.1061634E+000  0.1955531E+03  0.7818608E-02  0.1153630E+00
         21   -1    0    0  501  502  0.00000000000E+00  0.00000000000E+00  0.46663770829E+03  0.46663770829E+03  0.00000000000E+00 0.  1.
         21   -1    0    0  502  503 -0.00000000000E+00 -0.00000000000E+00 -0.85885970622E+02  0.85885970622E+02  0.00000000000E+00 0.  1.
         -6    2    1    2    0  503  0.13197565982E+02 -0.91937322304E+02  0.25089845078E+03  0.31810538356E+03  0.17208822001E+03 0.  0.
        -24    2    3    3    0    0 -0.68146035503E+02 -0.37848304734E+02  0.11731616445E+03  0.15254959071E+03  0.58582581537E+02 0.  0.
          6    2    1    2  501    0 -0.13197565982E+02  0.91937322304E+02  0.12985328689E+03  0.23441829535E+03  0.17164910165E+03 0.  0.
         24    2    5    5    0    0 -0.53906675509E+02  0.10667123144E+03  0.12569872544E+03  0.19067278063E+03  0.79191277387E+02 0.  0.
          5    1    5    5  501    0  0.40709109526E+02 -0.14733909139E+02  0.41545614438E+01  0.43745514716E+02  0.47000000000E+01 0. -1.
        -13    1    6    6    0    0 -0.41409283330E+01  0.81725317501E+00 -0.10395626609E+02  0.11219814740E+02  0.00000000000E+00 0.  1.
         14    1    6    6    0    0 -0.49765747176E+02  0.10585397827E+03  0.13609435205E+03  0.17945296589E+03  0.00000000000E+00 0. -1.
         -5    1    3    3    0  503  0.81343601486E+02 -0.54089017569E+02  0.13358228633E+03  0.16555579284E+03  0.47000000000E+01 0.  1.
         11    1    4    4    0    0 -0.32626213470E+02 -0.42471766730E+02  0.98427701810E+02  0.11205504566E+03  0.00000000000E+00 0. -1.
        -12    1    4    4    0    0 -0.35519822034E+02  0.46234619958E+01  0.18888462642E+02  0.40494545054E+02  0.00000000000E+00 0.  1.
</event>
<event>
12    1  0.1061634E+000  0.1878862E+03  0.7818608E-02  0.1160399E+00
         21   -1    0    0  503  502  0.00000000000E+00  0.00000000000E+00  0.21819775456E+03  0.21819775456E+03  0.00000000000E+00 0. -1.
         21   -1    0    0  501  503 -0.00000000000E+00 -0.00000000000E+00 -0.17160724920E+03  0.17160724920E+03  0.00000000000E+00 0. -1.
          6    2    1    2  501    0  0.66136372122E+02  0.39575370538E+02  0.70068165608E+02  0.20045768546E+03  0.17127027225E+03 0.  0.
         24    2    3    3    0    0  0.46946178562E+02  0.67407923623E+02  0.10236868044E+03  0.15346483708E+03  0.79525704248E+02 0.  0.
         -6    2    1    2    0  502 -0.66136372122E+02 -0.39575370538E+02 -0.23477660241E+02  0.18934731830E+03  0.17135045009E+03 0.  0.
        -24    2    5    5    0    0 -0.10444410865E+03 -0.11707810347E+02  0.82766333975E+01  0.13212399479E+03  0.79640458841E+02 0.  0.
          5    1    3    3  501    0  0.19190193560E+02 -0.27832553086E+02 -0.32300514833E+02  0.46992848377E+02  0.47000000000E+01 0. -1.
        -11    1    4    4    0    0  0.49480348987E+01 -0.76233284520E+01  0.54098933433E+02  0.54857021288E+02  0.00000000000E+00 0.  1.
         12    1    4    4    0    0  0.41998143663E+02  0.75031252075E+02  0.48269747009E+02  0.98607815793E+02  0.00000000000E+00 0. -1.
         -5    1    5    5    0  502  0.38307736530E+02 -0.27867560190E+02 -0.31754293639E+02  0.57223323510E+02  0.47000000000E+01 0.  1.
         13    1    6    6    0    0 -0.82685111556E+02 -0.50124250673E+01 -0.29571160185E+02  0.87956839374E+02  0.00000000000E+00 0. -1.
        -14    1    6    6    0    0 -0.21758997096E+02 -0.66953852800E+01  0.37847793583E+02  0.44167155418E+02  0.00000000000E+00 0.  1.
</event>
<event>
12    1  0.1061634E+000  0.2546839E+03  0.7818608E-02  0.1110423E+00
         21   -1    0    0  501  502  0.00000000000E+00  0.00000000000E+00  0.64392191709E+02  0.64392191709E+02  0.00000000000E+00 0.  1.
         21   -1    0    0  502  503 -0.00000000000E+00 -0.00000000000E+00 -0.10769208360E+04  0.10769208360E+04  0.00000000000E+00 0.  1.
         -6    2    1    2    0  503 -0.71786489075E+01 -0.18790807039E+03 -0.65221689706E+03  0.70007787825E+03  0.17135103993E+03 0.  0.
        -24    2    3    3    0    0 -0.60367962177E+02 -0.17003543238E+03 -0.48556906267E+03  0.52417414054E+03  0.80155323337E+02 0.  0.
          6    2    1    2  501    0  0.71786489075E+01  0.18790807039E+03 -0.36031174720E+03  0.44123514943E+03  0.17176415809E+03 0.  0.
         24    2    5    5    0    0  0.13177926820E+02  0.20996322380E+03 -0.29020151935E+03  0.36734363993E+03  0.80412777961E+02 0.  0.
          5    1    5    5  501    0 -0.59992779129E+01 -0.22055153408E+02 -0.70110227851E+02  0.73891509503E+02  0.47000000000E+01 0. -1.
        -11    1    6    6    0    0  0.45434082894E+02  0.96246771349E+02 -0.12430910185E+03  0.16364733327E+03  0.00000000000E+00 0.  1.
         12    1    6    6    0    0 -0.32256156074E+02  0.11371645245E+03 -0.16589241750E+03  0.20369630665E+03  0.00000000000E+00 0. -1.
         -5    1    3    3    0  503  0.53189313270E+02 -0.17872638009E+02 -0.16664783439E+03  0.17590373771E+03  0.47000000000E+01 0.  1.
         11    1    4    4    0    0  0.25825166567E+01 -0.10959184054E+03 -0.28950351391E+03  0.30956312034E+03  0.00000000000E+00 0. -1.
        -12    1    4    4    0    0 -0.62950478834E+02 -0.60443591839E+02 -0.19606554876E+03  0.21461102020E+03  0.00000000000E+00 0.  1.
</event>
<event>
12    1  0.1061634E+000  0.2863941E+03  0.7818608E-02  0.1092630E+00
         21   -1    0    0  503  502  0.00000000000E+00  0.00000000000E+00  0.16717844898E+03  0.16717844898E+03  0.00000000000E+00 0. -1.
         21   -1    0    0  501  503 -0.00000000000E+00 -0.00000000000E+00 -0.48573643818E+03  0.48573643818E+03  0.00000000000E+00 0. -1.
          6    2    1    2  501    0  0.11179441482E+03  0.19590070528E+03 -0.16228663933E+03  0.32917859249E+03  0.17648375261E+03 0.  0.
         24    2    3    3    0    0  0.45999323646E+02  0.16978170604E+03 -0.17050948062E+03  0.25775799838E+03  0.80149468287E+02 0.  0.
         -6    2    1    2    0  502 -0.11179441482E+03 -0.19590070528E+03 -0.15627134987E+03  0.32373629467E+03  0.17178293332E+03 0.  0.
        -24    2    5    5    0    0 -0.29735402955E+02 -0.19660552230E+02 -0.30807829926E+02  0.92311451983E+02  0.79382304575E+02 0.  0.
          5    1    3    3  501    0  0.65795091177E+02  0.26118999242E+02  0.82228412899E+01  0.71420594111E+02  0.47000000000E+01 0. -1.
        -11    1    4    4    0    0  0.39607454128E+02  0.34001305806E+02 -0.22624631943E+02  0.56892118871E+02  0.00000000000E+00 0.  1.
         12    1    4    4    0    0  0.63918695183E+01  0.13578040023E+03 -0.14788484868E+03  0.20086587951E+03  0.00000000000E+00 0. -1.
         -5    1    5    5    0  502 -0.82059011868E+02 -0.17624015305E+03 -0.12546351994E+03  0.23142484269E+03  0.47000000000E+01 0.  1.
         13    1    6    6    0    0  0.13831560242E+02 -0.11621201149E+02  0.18614199556E+02  0.25939406315E+02  0.00000000000E+00 0. -1.
        -14    1    6    6    0    0 -0.43566963197E+02 -0.80393510810E+01 -0.49422029482E+02  0.66372045668E+02  0.00000000000E+00 0.  1.
</event>
<event>
12    1  0.1061634E+000  0.2026005E+03  0.7818608E-02  0.1148063E+00
         21   -1    0    0  503  502  0.00000000000E+00  0.00000000000E+00  0.11495605698E+03  0.11495605698E+03  0.00000000000E+00 0.  1.
         21   -1    0    0  501  503 -0.00000000000E+00 -0.00000000000E+00 -0.35819500147E+03  0.35819500147E+03  0.00000000000E+00 0.  1.
          6    2    1    2  501    0  0.10039991370E+03 -0.18411988797E+02 -0.15121032988E+03  0.25280725616E+03  0.17500800239E+03 0.  0.
         24    2    3    3    0    0  0.82685739465E+02  0.62518123994E+01 -0.16844135318E+02  0.11497235746E+03  0.77838945364E+02 0.  0.
         -6    2    1    2    0  502 -0.10039991370E+03  0.18411988797E+02 -0.92028614615E+02  0.22034380229E+03  0.17222944376E+03 0.  0.
        -24    2    5    5    0    0 -0.55556906876E+02  0.78658217640E+02 -0.52063934333E+02  0.13513952411E+03  0.79236056274E+02 0.  0.
          5    1    3    3  501    0  0.17714174238E+02 -0.24663801197E+02 -0.13436619456E+03  0.13783489870E+03  0.47000000000E+01 0. -1.
        -13    1    4    4    0    0  0.20253848065E+02  0.15105451849E+02 -0.40407750244E+02  0.47656891598E+02  0.00000000000E+00 0.  1.
         14    1    4    4    0    0  0.62431891401E+02 -0.88536394494E+01  0.23563614926E+02  0.67315465859E+02  0.00000000000E+00 0. -1.
         -5    1    5    5    0  502 -0.44843006828E+02 -0.60246228842E+02 -0.39964680282E+02  0.85204278185E+02  0.47000000000E+01 0.  1.
         11    1    6    6    0    0  0.62894696976E+01  0.21292925142E+02 -0.45380029953E+02  0.50520225739E+02  0.00000000000E+00 0. -1.
        -12    1    6    6    0    0 -0.61846376574E+02  0.57365292497E+02 -0.66839043802E+01  0.84619298369E+02  0.00000000000E+00 0.  1.
</event>
<event>
12    1  0.1061634E+000  0.2058750E+03  0.7818608E-02  0.1144987E+00
         21   -1    0    0  503  502  0.00000000000E+00  0.00000000000E+00  0.59717222947E+03  0.59717222947E+03  0.00000000000E+00 0.  1.
         21   -1    0    0  501  503 -0.00000000000E+00 -0.00000000000E+00 -0.77884232540E+02  0.77884232540E+02  0.00000000000E+00 0.  1.
          6    2    1    2  501    0  0.55189032280E+02  0.98199408603E+02  0.36122478275E+03  0.41550201799E+03  0.17166720756E+03 0.  0.
         24    2    3    3    0    0  0.25641252630E+02 -0.16646844721E+02  0.13696313217E+03  0.16177359801E+03  0.80481091974E+02 0.  0.
         -6    2    1    2    0  502 -0.55189032280E+02 -0.98199408603E+02  0.15806321418E+03  0.25955444402E+03  0.17232404533E+03 0.  0.
        -24    2    5    5    0    0 -0.93629125556E+02 -0.49541512222E+02  0.14414788838E+03  0.19582879813E+03  0.79683937325E+02 0.  0.
          5    1    3    3  501    0  0.29547779650E+02  0.11484625332E+03  0.22426165058E+03  0.25372841998E+03  0.47000000000E+01 0. -1.
        -13    1    4    4    0    0 -0.20776856314E+02  0.11408265854E+02  0.78614012317E+02  0.82109617102E+02  0.00000000000E+00 0.  1.
         14    1    4    4    0    0  0.46418108944E+02 -0.28055110574E+02  0.58349119852E+02  0.79663980912E+02  0.00000000000E+00 0. -1.
         -5    1    5    5    0  502  0.38440093277E+02 -0.48657896382E+02  0.13915325802E+02  0.63725645886E+02  0.47000000000E+01 0.  1.
         11    1    6    6    0    0 -0.32863197156E+02  0.19459633401E+02  0.60393418690E+02  0.71456504816E+02  0.00000000000E+00 0. -1.
        -12    1    6    6    0    0 -0.60765928400E+02 -0.69001145623E+02  0.83754469691E+02  0.12437229332E+03  0.00000000000E+00 0.  1.
</event>
<event>
12    1  0.1061634E+000  0.2776833E+03  0.7818608E-02  0.1097122E+00
         21   -1    0    0  503  502  0.00000000000E+00  0.00000000000E+00  0.88597898592E+03  0.88597898592E+03  0.00000000000E+00 0. -1.
         21   -1    0    0  501  503 -0.00000000000E+00 -0.00000000000E+00 -0.31195405419E+03  0.31195405419E+03  0.00000000000E+00 0.  1.
          6    2    1    2  501    0  0.17513277957E+03 -0.12960469050E+03  0.79618976265E+03  0.84322367730E+03  0.17216029020E+03 0.  0.
         24    2    3    3    0    0  0.15595345551E+03 -0.10892656279E+03  0.78649297584E+03  0.81303180568E+03  0.79139368440E+02 0.  0.
         -6    2    1    2    0  502 -0.17513277957E+03  0.12960469050E+03 -0.22216483092E+03  0.35470936282E+03  0.17027229280E+03 0.  0.
        -24    2    5    5    0    0 -0.11776401765E+03  0.14484641464E+03 -0.21204895379E+03  0.29431146576E+03  0.82496256814E+02 0.  0.
          5    1    3    3  501    0  0.19179324065E+02 -0.20678127715E+02  0.96967868147E+01  0.30191871620E+02  0.47000000000E+01 0. -1.
        -13    1    4    4    0    0  0.90757690147E+02 -0.10276347936E+03  0.45826065597E+03  0.47833055498E+03  0.00000000000E+00 0.  1.
         14    1    4    4    0    0  0.65195765359E+02 -0.61630834304E+01  0.32823231986E+03  0.33470125070E+03  0.00000000000E+00 0. -1.
         -5    1    5    5    0  502 -0.57368761918E+02 -0.15241724135E+02 -0.10115877123E+02  0.60397897054E+02  0.47000000000E+01 0.  1.
         11    1    6    6    0    0 -0.11564522165E+03  0.10885725587E+03 -0.13197944494E+03  0.20650010492E+03  0.00000000000E+00 0. -1.
        -12    1    6    6    0    0 -0.21187960076E+01  0.35989158765E+02 -0.80069508856E+02  0.87811360845E+02  0.00000000000E+00 0.  1.
</event>
<event>
12    1  0.1061634E+000  0.1905637E+03  0.7818608E-02  0.1157965E+00
         21   -1    0    0  501  502  0.00000000000E+00  0.00000000000E+00  0.15123403587E+04  0.15123403587E+04  0.00000000000E+00 0. -1.
         21   -1    0    0  502  503 -0.00000000000E+00 -0.00000000000E+00 -0.64482449391E+02  0.64482449391E+02  0.00000000000E+00 0. -1.
         -6    2    1    2    0  503  0.62077544797E+02  0.51942826221E+02  0.99318079408E+02  0.21489209700E+03  0.17251914007E+03 0.  0.
        -24    2    3    3    0    0  0.40532706677E+02 -0.19882059863E+02  0.10228709085E+03  0.13969968156E+03  0.83756524863E+02 0.  0.
          6    2    1    2  501    0 -0.62077544797E+02 -0.51942826221E+02  0.13485398299E+04  0.13619307111E+04  0.17246422885E+03 0.  0.
         24    2    5    5    0    0 -0.43626149660E+02 -0.42032894596E+02  0.13294998726E+04  0.13332380169E+04  0.79269750180E+02 0.  0.
          5    1    5    5  501    0 -0.18451395137E+02 -0.99099316252E+01  0.19039957350E+02  0.28692694248E+02  0.47000000000E+01 0. -1.
        -11    1    6    6    0    0 -0.65622495822E+02 -0.33431297594E+02  0.86136955605E+03  0.86451227621E+03  0.00000000000E+00 0.  1.
         12    1    6    6    0    0  0.21996346162E+02 -0.86015970019E+01  0.46813031653E+03  0.46872574068E+03  0.00000000000E+00 0. -1.
         -5    1    3    3    0  503  0.21544838120E+02  0.71824886084E+02 -0.29690114441E+01  0.75192415439E+02  0.47000000000E+01 0.  1.
         11    1    4    4    0    0  0.41987540068E+02 -0.13551548798E+02  0.75758516108E+01  0.44765963895E+02  0.00000000000E+00 0. -1.
        -12    1    4    4    0    0 -0.14548333911E+01 -0.63305110643E+01  0.94711239242E+02  0.94933717662E+02  0.00000000000E+00 0.  1.
</event>
<event>
12    1  0.1061634E+000  0.2536277E+03  0.7818608E-02  0.1111792E+00
         21   -1    0    0  503  502  0.00000000000E+00  0.00000000000E+00  0.50392246336E+03  0.50392246336E+03  0.00000000000E+00 0. -1.
         21   -1    0    0  501  503 -0.00000000000E+00 -0.00000000000E+00 -0.15809646647E+03  0.15809646647E+03  0.00000000000E+00 0. -1.
          6    2    1    2  501    0  0.10165035755E+03 -0.15547442645E+03  0.32251448670E+03  0.40732214674E+03  0.16550119223E+03 0.  0.
         24    2    3    3    0    0  0.13506844163E+03 -0.14008368410E+03  0.26022049353E+03  0.33482197517E+03  0.80772070196E+02 0.  0.
         -6    2    1    2    0  502 -0.10165035755E+03  0.15547442645E+03  0.23311510191E+02  0.25469678309E+03  0.17269027864E+03 0.  0.
        -24    2    5    5    0    0 -0.80970606231E+02  0.14820359832E+03  0.73579695404E+02  0.19965591190E+03  0.76993285114E+02 0.  0.
          5    1    3    3  501    0 -0.33418084088E+02 -0.15390742350E+02  0.62293993164E+02  0.72500171576E+02  0.47000000000E+01 0. -1.
        -13    1    4    4    0    0  0.13120029220E+03 -0.90977237615E+02  0.21618681221E+03  0.26875102272E+03  0.00000000000E+00 0.  1.
         14    1    4    4    0    0  0.38681494292E+01 -0.49106446490E+02  0.44033681321E+02  0.66070952449E+02  0.00000000000E+00 0. -1.
         -5    1    5    5    0  502 -0.20679751314E+02  0.72708281350E+01 -0.50268185213E+02  0.55040871185E+02  0.47000000000E+01 0.  1.
         11    1    6    6    0    0 -0.27666160898E+02  0.17803154083E+01  0.22400856000E+02  0.35642451252E+02  0.00000000000E+00 0. -1.
        -12    1    6    6    0    0 -0.53304445334E+02  0.14642328291E+03  0.51178839405E+02  0.16401346065E+03  0.00000000000E+00 0.  1.
</event>
<event>
12    1  0.1061634E+000  0.3211057E+03  0.7818608E-02  0.1075193E+00
         21   -1    0    0  501  502  0.00000000000E+00  0.00000000000E+00  0.82590005412E+03  0.82590005412E+03  0.00000000000E+00 0. -1.
         21   -1    0    0  502  503 -0.00000000000E+00 -0.00000000000E+00 -0.12469900759E+03  0.12469900759E+03  0.00000000000E+00 0. -1.
         -6    2    1    2    0  503  0.26650176657E+03  0.45187772750E+02  0.35801652253E+03  0.48092069316E+03  0.17333134832E+03 0.  0.
        -24    2    3    3    0    0  0.79121096160E+02 -0.33838667676E+02  0.13084591272E+03  0.17598583143E+03  0.80281733312E+02 0.  0.
          6    2    1    2  501    0 -0.26650176657E+03 -0.45187772750E+02  0.34318452400E+03  0.46967836856E+03  0.17250224923E+03 0.  0.
         24    2    5    5    0    0 -0.21009383321E+03 -0.96150723748E+02  0.26025560112E+03  0.35708008451E+03  0.79930147067E+02 0.  0.
          5    1    5    5  501    0 -0.56407933368E+02  0.50962950999E+02  0.82928922882E+02  0.11259828405E+03  0.47000000000E+01 0. -1.
        -13    1    6    6    0    0 -0.16250844280E+03 -0.90825609220E+02  0.15803034419E+03  0.24419638604E+03  0.00000000000E+00 0.  1.
         14    1    6    6    0    0 -0.47585390405E+02 -0.53251145280E+01  0.10222525693E+03  0.11288369847E+03  0.00000000000E+00 0. -1.
         -5    1    3    3    0  503  0.18738067041E+03  0.79026440425E+02  0.22717060981E+03  0.30493486172E+03  0.47000000000E+01 0.  1.
         11    1    4    4    0    0 -0.13203686375E+02 -0.17322817954E+02  0.39251155716E+02  0.44889537542E+02  0.00000000000E+00 0. -1.
        -12    1    4    4    0    0  0.92324782535E+02 -0.16515849722E+02  0.91594757000E+02  0.13109629389E+03  0.00000000000E+00 0.  1.
</event>
<event>
12    1  0.1061634E+000  0.2422883E+03  0.7818608E-02  0.1118797E+00
         21   -1    0    0  503  502  0.00000000000E+00  0.00000000000E+00  0.13743667084E+03  0.13743667084E+03  0.00000000000E+00 0.  1.
         21   -1    0    0  501  503 -0.00000000000E+00 -0.00000000000E+00 -0.42495739264E+03  0.42495739264E+03  0.00000000000E+00 0.  1.
          6    2    1    2  501    0  0.16622612587E+03  0.82891397853E+01 -0.11792575866E+03  0.26664741258E+03  0.17173969639E+03 0.  0.
         24    2    3    3    0    0  0.33880802865E+02  0.26512070637E+02 -0.93671814088E+02  0.13078828127E+03  0.80500727152E+02 0.  0.
         -6    2    1    2    0  502 -0.16622612587E+03 -0.82891397853E+01 -0.16959496314E+03  0.29574665091E+03  0.17607894605E+03 0.  0.
        -24    2    5    5    0    0 -0.13096893124E+03  0.29036967457E+02 -0.18175006246E+03  0.24277359649E+03  0.88937773297E+02 0.  0.
          5    1    3    3  501    0  0.13234532301E+03 -0.18222930852E+02 -0.24253944571E+02  0.13585913130E+03  0.47000000000E+01 0. -1.
        -11    1    4    4    0    0  0.21996669188E+02 -0.24728107855E+02 -0.59431724225E+02  0.68025455661E+02  0.00000000000E+00 0.  1.
         12    1    4    4    0    0  0.11884133677E+02  0.51240178493E+02 -0.34240089863E+02  0.62762825614E+02  0.00000000000E+00 0. -1.
         -5    1    5    5    0  502 -0.35257194632E+02 -0.37326107243E+02  0.12155099320E+02  0.52973054421E+02  0.47000000000E+01 0.  1.
         13    1    6    6    0    0 -0.66504999006E+02  0.29192250475E+02 -0.31286126330E+02  0.79081755679E+02  0.00000000000E+00 0. -1.
        -14    1    6    6    0    0 -0.64463932233E+02 -0.15528301753E+00 -0.15046393613E+03  0.16369184081E+03  0.00000000000E+00 0.  1.
</event>
<event>
12    1  0.1061634E+000  0.2029261E+03  0.7818608E-02  0.1147522E+00
         21   -1    0    0  501  502  0.00000000000E+00  0.00000000000E+00  0.23001637200E+03  0.23001637200E+03  0.00000000000E+00 0.  1.
         21   -1    0    0  502  503 -0.00000000000E+00 -0.00000000000E+00 -0.24595502010E+03  0.24595502010E+03  0.00000000000E+00 0.  1.
         -6    2    1    2    0  503 -0.10649367852E+03  0.31831960380E+01  0.11708902643E+03  0.23332890658E+03  0.17141033293E+03 0.  0.
        -24    2    3    3    0    0 -0.13185938106E+03  0.23376939823E+02  0.59386043563E+02  0.16697432584E+03  0.80127059288E+02 0.  0.
          6    2    1    2  501    0  0.10649367852E+03 -0.31831960380E+01 -0.13302767453E+03  0.24264248551E+03  0.17270778003E+03 0.  0.
         24    2    5    5    0    0  0.93110165439E+02  0.19338325866E+02 -0.19477312459E+02  0.12601439242E+03  0.80354138915E+02 0.  0.
          5    1    5    5  501    0  0.13383513080E+02 -0.22521521904E+02 -0.11355036207E+03  0.11662809309E+03  0.47000000000E+01 0. -1.
        -13    1    6    6    0    0  0.54636462703E+02  0.50593977678E+02 -0.63397704407E+01  0.74733435109E+02  0.00000000000E+00 0.  1.
         14    1    6    6    0    0  0.38473702736E+02 -0.31255651812E+02 -0.13137542019E+02  0.51280957311E+02  0.00000000000E+00 0. -1.
         -5    1    3    3    0  503  0.25365702542E+02 -0.20193743785E+02  0.57702982869E+02  0.66354580742E+02  0.47000000000E+01 0.  1.
         13    1    4    4    0    0 -0.32332787519E+02  0.31275944288E+02  0.49123595974E+02  0.66608719559E+02  0.00000000000E+00 0. -1.
        -14    1    4    4    0    0 -0.99526593541E+02 -0.78990044650E+01  0.10262447589E+02  0.10036560628E+03  0.00000000000E+00 0.  1.
</event>
<event>
12    1  0.1061634E+000  0.2201023E+03  0.7818608E-02  0.1134028E+00
         21   -1    0    0  503  502  0.00000000000E+00  0.00000000000E+00  0.30581372595E+03  0.30581372595E+03  0.00000000000E+00 0. -1.
         21   -1    0    0  501  503 -0.00000000000E+00 -0.00000000000E+00 -0.16202646670E+03  0.16202646670E+03  0.00000000000E+00 0. -1.
          6    2    1    2  501    0 -0.12672668267E+03 -0.53093673505E+02  0.33262052326E+02  0.22260141969E+03  0.17194893910E+03 0.  0.
         24    2    3    3    0    0 -0.80273232211E+02  0.25720151552E-02  0.79173031371E+02  0.13829814369E+03  0.80088799688E+02 0.  0.
         -6    2    1    2    0  502  0.12672668267E+03  0.53093673505E+02  0.11052520693E+03  0.24523877296E+03  0.17043369423E+03 0.  0.
        -24    2    5    5    0    0  0.14033880832E+03  0.62315390637E+02  0.13213796332E+03  0.21767917807E+03  0.79659237929E+02 0.  0.
          5    1    3    3  501    0 -0.46453450461E+02 -0.53096245520E+02 -0.45910979046E+02  0.84303276004E+02  0.47000000000E+01 0. -1.
        -13    1    4    4    0    0 -0.50753410435E+01  0.28533796235E+02  0.38445602870E+02  0.48145622795E+02  0.00000000000E+00 0.  1.
         14    1    4    4    0    0 -0.75197891168E+02 -0.28531224220E+02  0.40727428501E+02  0.90152520896E+02  0.00000000000E+00 0. -1.
         -5    1    5    5    0  502 -0.13612125645E+02 -0.92217171320E+01 -0.21612756392E+02  0.27559594887E+02  0.47000000000E+01 0.  1.
         13    1    6    6    0    0 -0.85563125463E+00 -0.84653033977E+00  0.35017803979E+02  0.35038483328E+02  0.00000000000E+00 0. -1.
        -14    1    6    6    0    0  0.14119443957E+03  0.63161920976E+02  0.97120159339E+02  0.18264069475E+03  0.00000000000E+00 0.  1.
</event>
<event>
12    1  0.1061634E+000  0.3257527E+03  0.7818608E-02  0.1073061E+00
         21   -1    0    0  501  502  0.00000000000E+00  0.00000000000E+00  0.87676484522E+03  0.87676484522E+03  0.00000000000E+00 0.  1.
         21   -1    0    0  502  503 -0.00000000000E+00 -0.00000000000E+00 -0.12537658397E+03  0.12537658397E+03  0.00000000000E+00 0.  1.
         -6    2    1    2    0  503  0.25991943236E+03  0.95062415625E+02  0.46988541761E+03  0.57160843664E+03  0.17131527948E+03 0.  0.
        -24    2    3    3    0    0  0.18384767410E+03  0.24372201921E+02  0.20756072114E+03  0.28943764600E+03  0.79364516389E+02 0.  0.
          6    2    1    2  501    0 -0.25991943236E+03 -0.95062415625E+02  0.28150284364E+03  0.43053299254E+03  0.17181336534E+03 0.  0.
         24    2    5    5    0    0 -0.21143616692E+03 -0.82772822014E+02  0.29275302599E+03  0.37905175575E+03  0.80120575190E+02 0.  0.
          5    1    5    5  501    0 -0.48483265439E+02 -0.12289593611E+02 -0.11250182346E+02  0.51481236791E+02  0.47000000000E+01 0. -1.
        -11    1    6    6    0    0 -0.10567837536E+03 -0.30849472583E+01  0.15813698690E+03  0.19022287597E+03  0.00000000000E+00 0.  1.
         12    1    6    6    0    0 -0.10575779156E+03 -0.79687874756E+02  0.13461603909E+03  0.18882887978E+03  0.00000000000E+00 0. -1.
         -5    1    3    3    0  503  0.76071758254E+02  0.70690213705E+02  0.26232469647E+03  0.28217079065E+03  0.47000000000E+01 0.  1.
         13    1    4    4    0    0  0.53178801972E+02 -0.21184491382E+02  0.95631622661E+02  0.11145481105E+03  0.00000000000E+00 0. -1.
        -14    1    4    4    0    0  0.13066887213E+03  0.45556693303E+02  0.11192909848E+03  0.17798283494E+03  0.00000000000E+00 0.  1.
</event>
<event>
12    1  0.1061634E+000  0.4071916E+03  0.7818608E-02  0.1041479E+00
         21   -1    0    0  501  502  0.00000000000E+00  0.00000000000E+00  0.68064399174E+03  0.68064399174E+03  0.00000000000E+00 0.  1.
         21   -1    0    0  502  503 -0.00000000000E+00 -0.00000000000E+00 -0.30233238796E+03  0.30233238796E+03  0.00000000000E+00 0.  1.
         -6    2    1    2    0  503 -0.25622179285E+03 -0.25691192248E+03 -0.29202636121E+02  0.40823738837E+03  0.18480159160E+03 0.  0.
        -24    2    3    3    0    0 -0.80256720775E+02 -0.16224385450E+03 -0.58615978964E+02  0.20621515091E+03  0.79527642523E+02 0.  0.
          6    2    1    2  501    0  0.25622179285E+03  0.25691192248E+03  0.40751423990E+03  0.57473899134E+03  0.18056497278E+03 0.  0.
         24    2    5    5    0    0  0.17929498045E+03  0.11450827742E+03  0.31654920563E+03  0.38901537933E+03  0.76620690180E+02 0.  0.
          5    1    5    5  501    0  0.76926812402E+02  0.14240364507E+03  0.90965034272E+02  0.18572361200E+03  0.47000000000E+01 0. -1.
        -13    1    6    6    0    0  0.13396623411E+03  0.58401418742E+02  0.16028723928E+03  0.21690937432E+03  0.00000000000E+00 0.  1.
         14    1    6    6    0    0  0.45328746346E+02  0.56106858674E+02  0.15626196635E+03  0.17210600502E+03  0.00000000000E+00 0. -1.
         -5    1    3    3    0  503 -0.17596507208E+03 -0.94668067988E+02  0.29413342843E+02  0.20202223745E+03  0.47000000000E+01 0.  1.
         13    1    4    4    0    0 -0.59491262841E+02 -0.11884866031E+03 -0.33569911256E+01  0.13294917751E+03  0.00000000000E+00 0. -1.
        -14    1    4    4    0    0 -0.20765457934E+02 -0.43395194189E+02 -0.55258987838E+02  0.73265973404E+02  0.00000000000E+00 0.  1.
</event>
<event>
12    1  0.1061634E+000  0.2440680E+03  0.7818608E-02  0.1118938E+00
         21   -1    0    0  501  502  0.00000000000E+00  0.00000000000E+00  0.67473874766E+02  0.67473874766E+02  0.00000000000E+00 0.  1.
         21   -1    0    0  502  503 -0.00000000000E+00 -0.00000000000E+00 -0.12360686228E+04  0.12360686228E+04  0.00000000000E+00 0.  1.
         -6    2    1    2    0  503 -0.15266375829E+03 -0.28037620903E+02 -0.22630390448E+03  0.33284028076E+03  0.18835303032E+03 0.  0.
        -24    2    3    3    0    0 -0.17372041530E+03  0.73288446873E+01 -0.22069895934E+03  0.29103507650E+03  0.75900529935E+02 0.  0.
          6    2    1    2  501    0  0.15266375829E+03  0.28037620903E+02 -0.94229084360E+03  0.97070221686E+03  0.17394950012E+03 0.  0.
         24    2    5    5    0    0  0.17034449193E+03  0.60887885025E+01 -0.90623566911E+03  0.92469759542E+03  0.68907443260E+02 0.  0.
          5    1    5    5  501    0 -0.17680733638E+02  0.21948832400E+02 -0.36055174492E+02  0.46004621434E+02  0.47000000000E+01 0. -1.
        -11    1    6    6    0    0  0.33137269432E+02 -0.20672061383E+02 -0.30124516311E+03  0.30376645806E+03  0.00000000000E+00 0.  1.
         12    1    6    6    0    0  0.13720722249E+03  0.26760849885E+02 -0.60499050600E+03  0.62093113736E+03  0.00000000000E+00 0. -1.
         -5    1    3    3    0  503  0.21056657012E+02 -0.35366465590E+02 -0.56049451398E+01  0.41805204256E+02  0.47000000000E+01 0.  1.
         13    1    4    4    0    0 -0.13425710812E+03 -0.17850716020E+02 -0.12412422671E+03  0.18371293586E+03  0.00000000000E+00 0. -1.
        -14    1    4    4    0    0 -0.39463307176E+02  0.25179560708E+02 -0.96574732626E+02  0.10732214064E+03  0.00000000000E+00 0.  1.
</event>
<event>
12    1  0.1061634E+000  0.2111994E+03  0.7818608E-02  0.1140943E+00
         21   -1    0    0  501  502  0.00000000000E+00  0.00000000000E+00  0.48540206426E+03  0.48540206426E+03  0.00000000000E+00 0.  1.
         21   -1    0    0  502  503 -0.00000000000E+00 -0.00000000000E+00 -0.12038731013E+03  0.12038731013E+03  0.00000000000E+00 0.  1.
         -6    2    1    2    0  503  0.20427416519E+02  0.11963068855E+03  0.33115448767E+03  0.39189287473E+03  0.17084481138E+03 0.  0.
        -24    2    3    3    0    0 -0.50032318757E+02  0.78313465573E+02  0.15053701356E+03  0.19360911553E+03  0.78656629445E+02 0.  0.
          6    2    1    2  501    0 -0.20427416519E+02 -0.11963068855E+03  0.33860266470E+02  0.21389649966E+03  0.17284795033E+03 0.  0.
         24    2    5    5    0    0 -0.72836196119E+02 -0.11523889905E+03  0.40097183348E+02  0.16072736269E+03  0.75102501188E+02 0.  0.
          5    1    5    5  501    0  0.52408779600E+02 -0.43917895031E+01 -0.62369168772E+01  0.53169136972E+02  0.47000000000E+01 0. -1.
        -11    1    6    6    0    0 -0.28222428732E+02 -0.18043676866E+02 -0.19029796359E+02  0.38525483876E+02  0.00000000000E+00 0.  1.
         12    1    6    6    0    0 -0.44613767387E+02 -0.97195222184E+02  0.59126979707E+02  0.12220187881E+03  0.00000000000E+00 0. -1.
         -5    1    3    3    0  503  0.70459735276E+02  0.41317222980E+02  0.18061747411E+03  0.19828375920E+03  0.47000000000E+01 0.  1.
         11    1    4    4    0    0 -0.17213253689E+02  0.85532262801E+02  0.11873047892E+03  0.14733971192E+03  0.00000000000E+00 0. -1.
        -12    1    4    4    0    0 -0.32819065068E+02 -0.72187972279E+01  0.31806534635E+02  0.46269403615E+02  0.00000000000E+00 0.  1.
</event>
<event>
12    1  0.1061634E+000  0.1768190E+03  0.7818608E-02  0.1171612E+00
         21   -1    0    0  501  502  0.00000000000E+00  0.00000000000E+00  0.31579694840E+03  0.31579694840E+03  0.00000000000E+00 0.  1.
         21   -1    0    0  502  503 -0.00000000000E+00 -0.00000000000E+00 -0.10377027408E+03  0.10377027408E+03  0.00000000000E+00 0.  1.
         -6    2    1    2    0  503  0.16411893038E+02 -0.37183099080E+02  0.15698760787E+03  0.23438010549E+03  0.16922467827E+03 0.  0.
        -24    2    3    3    0    0 -0.33401831627E+02  0.12792254617E+02  0.13848701744E+03  0.16128219178E+03  0.74524943831E+02 0.  0.
          6    2    1    2  501    0 -0.16411893038E+02  0.37183099080E+02  0.55039066455E+02  0.18518711699E+03  0.17208438736E+03 0.  0.
         24    2    5    5    0    0  0.42762634655E+01  0.89857761398E+02  0.38924749886E+02  0.12615847082E+03  0.79423673385E+02 0.  0.
          5    1    5    5  501    0 -0.20688156503E+02 -0.52674662318E+02  0.16114316570E+02  0.59028646167E+02  0.47000000000E+01 0. -1.
        -13    1    6    6    0    0 -0.17719826590E+02  0.97324490001E+00  0.29076844690E+02  0.34064679025E+02  0.00000000000E+00 0.  1.
         14    1    6    6    0    0  0.21996090055E+02  0.88884516498E+02  0.98479051962E+01  0.92093791797E+02  0.00000000000E+00 0. -1.
         -5    1    3    3    0  503  0.49813724665E+02 -0.49975353697E+02  0.18500590432E+02  0.73097913708E+02  0.47000000000E+01 0.  1.
         13    1    4    4    0    0 -0.32417404668E+02  0.20118135948E+01  0.12454740311E+02  0.34785860282E+02  0.00000000000E+00 0. -1.
        -14    1    4    4    0    0 -0.98442695883E+00  0.10780441022E+02  0.12603227713E+03  0.12649633150E+03  0.00000000000E+00 0.  1.
</event>
<event>
12    1  0.1061634E+000  0.1904076E+03  0.7818608E-02  0.1158784E+00
         21   -1    0    0  503  502  0.00000000000E+00  0.00000000000E+00  0.13063342805E+04  0.13063342805E+04  0.00000000000E+00 0. -1.
         21   -1    0    0  501  503 -0.00000000000E+00 -0.00000000000E+00 -0.29041279946E+02  0.29041279946E+02  0.00000000000E+00 0. -1.
          6    2    1    2  501    0  0.72706375533E+02 -0.36477759470E+02  0.47086879593E+03  0.50677732141E+03  0.16878680795E+03 0.  0.
         24    2    3    3    0    0  0.39265066501E+02  0.41845695757E+02  0.19690727074E+03  0.21984546178E+03  0.79162782250E+02 0.  0.
         -6    2    1    2    0  502 -0.72706375533E+02  0.36477759470E+02  0.80642420462E+03  0.82859823903E+03  0.17215748589E+03 0.  0.
        -24    2    5    5    0    0  0.12528744973E+02 -0.23212394655E+02  0.39906822730E+03  0.40813549095E+03  0.81383930935E+02 0.  0.
          5    1    3    3  501    0  0.33441309033E+02 -0.78323455227E+02  0.27396152519E+03  0.28693185963E+03  0.47000000000E+01 0. -1.
        -13    1    4    4    0    0  0.15467943495E+02  0.66510943226E+01  0.16710237456E+03  0.16794849780E+03  0.00000000000E+00 0.  1.
         14    1    4    4    0    0  0.23797123005E+02  0.35194601435E+02  0.29804896185E+02  0.51896963978E+02  0.00000000000E+00 0. -1.
         -5    1    5    5    0  502 -0.85235120506E+02  0.59690154125E+02  0.40735597733E+03  0.42046274809E+03  0.47000000000E+01 0.  1.
         13    1    6    6    0    0  0.37620102574E+02  0.11987751590E+02  0.13899548246E+03  0.14449471426E+03  0.00000000000E+00 0. -1.
        -14    1    6    6    0    0 -0.25091357601E+02 -0.35200146245E+02  0.26007274484E+03  0.26364077668E+03  0.00000000000E+00 0.  1.
</event>
<event>
12    1  0.1061634E+000  0.2434943E+03  0.7818608E-02  0.1117548E+00
         21   -1    0    0  501  502  0.00000000000E+00  0.00000000000E+00  0.55115434416E+03  0.55115434416E+03  0.00000000000E+00 0. -1.
         21   -1    0    0  502  503 -0.00000000000E+00 -0.00000000000E+00 -0.18438351709E+03  0.18438351709E+03  0.00000000000E+00 0. -1.
         -6    2    1    2    0  503 -0.30586107574E+02 -0.16874867096E+03 -0.54156109331E+02  0.24944405909E+03  0.17285204803E+03 0.  0.
        -24    2    3    3    0    0 -0.62464297600E+02 -0.13730168885E+03  0.10129232318E+02  0.17095949479E+03  0.79818577250E+02 0.  0.
          6    2    1    2  501    0  0.30586107574E+02  0.16874867096E+03  0.42092693639E+03  0.48609380216E+03  0.17232549082E+03 0.  0.
         24    2    5    5    0    0  0.28223610328E+02  0.36136525909E+02  0.87320013110E+02  0.12705726966E+03  0.80102087352E+02 0.  0.
          5    1    5    5  501    0  0.23624972451E+01  0.13261214506E+03  0.33360692328E+03  0.35903653250E+03  0.47000000000E+01 0. -1.
        -11    1    6    6    0    0  0.53797855114E+02  0.26872414302E+02  0.77596573196E+02  0.98171095731E+02  0.00000000000E+00 0.  1.
         12    1    6    6    0    0 -0.25574244786E+02  0.92641116066E+01  0.97234399144E+01  0.28886173925E+02  0.00000000000E+00 0. -1.
         -5    1    3    3    0  503  0.31878190027E+02 -0.31446982114E+02 -0.64285341649E+02  0.78484564306E+02  0.47000000000E+01 0.  1.
         11    1    4    4    0    0 -0.17190912543E+01 -0.23431520948E+02  0.32369882178E+02  0.39997508934E+02  0.00000000000E+00 0. -1.
        -12    1    4    4    0    0 -0.60745206346E+02 -0.11387016790E+03 -0.22240649861E+02  0.13096198585E+03  0.00000000000E+00 0.  1.
</event>
<event>
12    1  0.1061634E+000  0.2892120E+03  0.7818608E-02  0.1091078E+00
         21   -1    0    0  501  502  0.00000000000E+00  0.00000000000E+00  0.33259326896E+03  0.33259326896E+03  0.00000000000E+00 0. -1.
         21   -1    0    0  502  503 -0.00000000000E+00 -0.00000000000E+00 -0.25413010573E+03  0.25413010573E+03  0.00000000000E+00 0. -1.
         -6    2    1    2    0  503  0.23063245906E+03 -0.33054112023E+02 -0.95078967550E+00  0.28680643189E+03  0.16725166630E+03 0.  0.
        -24    2    3    3    0    0  0.21924885066E+03  0.18443767934E+02 -0.59582500434E-01  0.23384887879E+03  0.79215298204E+02 0.  0.
          6    2    1    2  501    0 -0.23063245906E+03  0.33054112023E+02  0.79413952901E+02  0.29991694280E+03  0.17134669875E+03 0.  0.
         24    2    5    5    0    0 -0.18578318952E+03 -0.29528198881E+02  0.27048533939E+02  0.20668481465E+03  0.81238423067E+02 0.  0.
          5    1    5    5  501    0 -0.44849269534E+02  0.62582310904E+02  0.52365418961E+02  0.93232128147E+02  0.47000000000E+01 0. -1.
        -11    1    6    6    0    0 -0.65876916525E+02  0.90425809801E+01  0.43792079633E+02  0.79619612158E+02  0.00000000000E+00 0.  1.
         12    1    6    6    0    0 -0.11990627300E+03 -0.38570779861E+02 -0.16743545693E+02  0.12706520250E+03  0.00000000000E+00 0. -1.
         -5    1    3    3    0  503  0.11383608395E+02 -0.51497879956E+02 -0.89120717507E+00  0.52957553100E+02  0.47000000000E+01 0.  1.
         13    1    4    4    0    0  0.52122787702E+02  0.38936411553E+02  0.61989479021E+01  0.65354847544E+02  0.00000000000E+00 0. -1.
        -14    1    4    4    0    0  0.16712606296E+03 -0.20492643619E+02 -0.62585304026E+01  0.16849403125E+03  0.00000000000E+00 0.  1.
</event>
<event>
12    1  0.1061634E+000  0.2185601E+03  0.7818608E-02  0.1135917E+00
         21   -1    0    0  503  502  0.00000000000E+00  0.00000000000E+00  0.14672080406E+04  0.14672080406E+04  0.00000000000E+00 0. -1.
         21   -1    0    0  501  503 -0.00000000000E+00 -0.00000000000E+00 -0.34045280592E+02  0.34045280592E+02  0.00000000000E+00 0. -1.
          6    2    1    2  501    0  0.12298785388E+03  0.21492613436E+02  0.91652102004E+03  0.94222040615E+03  0.17938943380E+03 0.  0.
         24    2    3    3    0    0  0.77127532628E+02  0.85038393154E+02  0.62059622677E+03  0.63605899700E+03  0.79064444454E+02 0.  0.
         -6    2    1    2    0  502 -0.12298785388E+03 -0.21492613436E+02  0.51664174000E+03  0.55903291508E+03  0.17323731698E+03 0.  0.
        -24    2    5    5    0    0 -0.29855593384E+02 -0.15238478268E+02  0.10049210961E+03  0.13251757300E+03  0.79615798582E+02 0.  0.
          5    1    3    3  501    0  0.45860321247E+02 -0.63545779718E+02  0.29592479327E+03  0.30616140915E+03  0.47000000000E+01 0. -1.
        -11    1    4    4    0    0 -0.94798489229E+01  0.78388530377E+01  0.18076516519E+03  0.18118322246E+03  0.00000000000E+00 0.  1.
         12    1    4    4    0    0  0.86607381551E+02  0.77199540116E+02  0.43983106158E+03  0.45487577454E+03  0.00000000000E+00 0. -1.
         -5    1    5    5    0  502 -0.93132260491E+02 -0.62541351683E+01  0.41614963039E+03  0.42651534207E+03  0.47000000000E+01 0.  1.
         11    1    6    6    0    0  0.70196013564E+01  0.21137495725E+02  0.67562032946E+02  0.71138574800E+02  0.00000000000E+00 0. -1.
        -12    1    6    6    0    0 -0.36875194741E+02 -0.36375973993E+02  0.32930076667E+02  0.61378998203E+02  0.00000000000E+00 0.  1.
</event>
<event>
12    1  0.1061634E+000  0.2358270E+03  0.7818608E-02  0.1122948E+00
         21   -1    0    0  501  502  0.00000000000E+00  0.00000000000E+00  0.16120533796E+03  0.16120533796E+03  0.00000000000E+00 0.  1.
         21   -1    0    0  502  503 -0.00000000000E+00 -0.00000000000E+00 -0.34734985612E+03  0.34734985612E+03  0.00000000000E+00 0.  1.
         -6    2    1    2    0  503 -0.15091283666E+03  0.53617785996E+02 -0.61293106964E+02  0.24171766355E+03  0.17035560649E+03 0.  0.
        -24    2    3    3    0    0 -0.23651204436E+02 -0.19958578225E+02 -0.37021318128E+02  0.92653200503E+02  0.79096859934E+02 0.  0.
          6    2    1    2  501    0  0.15091283666E+03 -0.53617785996E+02 -0.12485141120E+03  0.26683753054E+03  0.17310355738E+03 0.  0.
         24    2    5    5    0    0  0.56382468042E+02 -0.67568354009E+02 -0.96236299309E+01  0.11707057652E+03  0.76605746956E+02 0.  0.
          5    1    5    5  501    0  0.94530368622E+02  0.13950568013E+02 -0.11522778127E+03  0.14976695402E+03  0.47000000000E+01 0. -1.
        -13    1    6    6    0    0  0.10375525265E+01 -0.60215348620E+02  0.10245446670E+01  0.60233001058E+02  0.00000000000E+00 0.  1.
         14    1    6    6    0    0  0.55344915515E+02 -0.73530053893E+01 -0.10648174598E+02  0.56837575458E+02  0.00000000000E+00 0. -1.
         -5    1    3    3    0  503 -0.12726163223E+03  0.73576364221E+02 -0.24271788836E+02  0.14906446304E+03  0.47000000000E+01 0.  1.
         11    1    4    4    0    0 -0.40430981303E+02  0.13778709304E+02 -0.46300486003E+01  0.42964571792E+02  0.00000000000E+00 0. -1.
        -12    1    4    4    0    0  0.16779776867E+02 -0.33737287529E+02 -0.32391269528E+02  0.49688628711E+02  0.00000000000E+00 0.  1.
</event>
<event>
12    1  0.1061634E+000  0.1869127E+03  0.7818608E-02  0.1164025E+00
         21   -1    0    0  503  502  0.00000000000E+00  0.00000000000E+00  0.57591855484E+03  0.57591855484E+03  0.00000000000E+00 0. -1.
         21   -1    0    0  501  503 -0.00000000000E+00 -0.00000000000E+00 -0.91122046639E+02  0.91122046639E+02  0.00000000000E+00 0. -1.
          6    2    1    2  501    0  0.90856668386E+01 -0.31001480699E+02  0.44167304195E+03  0.47521779926E+03  0.17237528709E+03 0.  0.
         24    2    3    3    0    0  0.84409807190E+00  0.26885563291E+02  0.11067471934E+03  0.13906186388E+03  0.79785728489E+02 0.  0.
         -6    2    1    2    0  502 -0.90856668386E+01  0.31001480699E+02  0.43123466248E+02  0.19182280222E+03  0.18409973645E+03 0.  0.
        -24    2    5    5    0    0 -0.69506329455E+02  0.43194813509E+02  0.59470095518E+02  0.12788035838E+03  0.78228971928E+02 0.  0.
          5    1    3    3  501    0  0.82415687667E+01 -0.57887043989E+02  0.33099832261E+03  0.33615593538E+03  0.47000000000E+01 0. -1.
        -11    1    4    4    0    0 -0.19606627772E+01  0.55003789923E+02  0.63129374754E+02  0.83753083891E+02  0.00000000000E+00 0.  1.
         12    1    4    4    0    0  0.28047608491E+01 -0.28118226632E+02  0.47545344587E+02  0.55308779992E+02  0.00000000000E+00 0. -1.
         -5    1    5    5    0  502  0.60420662616E+02 -0.12193332811E+02 -0.16346629270E+02  0.63942443842E+02  0.47000000000E+01 0.  1.
         11    1    6    6    0    0  0.10216422799E+02  0.23885264880E+02  0.32340713642E+02  0.41482561783E+02  0.00000000000E+00 0. -1.
        -12    1    6    6    0    0 -0.79722752253E+02  0.19309548629E+02  0.27129381876E+02  0.86397796593E+02  0.00000000000E+00 0.  1.
</event>
<event>
12    1  0.1061634E+000  0.1900624E+03  0.7818608E-02  0.1159046E+00
         21   -1    0    0  503  502  0.00000000000E+00  0.00000000000E+00  0.78724415992E+03  0.78724415992E+03  0.00000000000E+00 0.  1.
         21   -1    0    0  501  503 -0.00000000000E+00 -0.00000000000E+00 -0.58875679759E+02  0.58875679759E+02  0.00000000000E+00 0.  1.
          6    2    1    2  501    0 -0.73315564336E+02 -0.14727571685E+01  0.16244197210E+03  0.25002221596E+03  0.17534643763E+03 0.  0.
         24    2    3    3    0    0  0.93966596438E+01  0.14563354969E+02  0.14682814109E+03  0.16420642134E+03  0.71448283904E+02 0.  0.
         -6    2    1    2    0  502  0.73315564336E+02  0.14727571685E+01  0.56592650806E+03  0.59609762371E+03  0.17228529677E+03 0.  0.
        -24    2    5    5    0    0  0.76788307687E+02  0.60710709180E+02  0.34873452330E+03  0.37089628458E+03  0.79787541408E+02 0.  0.
          5    1    3    3  501    0 -0.82712223979E+02 -0.16036112137E+02  0.15613831007E+02  0.85815794623E+02  0.47000000000E+01 0. -1.
        -11    1    4    4    0    0 -0.23144336878E+02  0.22218018571E+02  0.34958623613E+02  0.47448983589E+02  0.00000000000E+00 0.  1.
         12    1    4    4    0    0  0.32540996522E+02 -0.76546636018E+01  0.11186951748E+03  0.11675743775E+03  0.00000000000E+00 0. -1.
         -5    1    5    5    0  502 -0.34727433518E+01 -0.59237952012E+02  0.21719198476E+03  0.22520133914E+03  0.47000000000E+01 0.  1.
         11    1    6    6    0    0 -0.57757946595E+01  0.32914173551E+02  0.53520271011E+02  0.63096133269E+02  0.00000000000E+00 0. -1.
        -12    1    6    6    0    0  0.82564102347E+02  0.27796535630E+02  0.29521425229E+03  0.30780015131E+03  0.00000000000E+00 0.  1.
</event>
<event>
12    1  0.1061634E+000  0.1905989E+03  0.7818608E-02  0.1158050E+00
         21   -1    0    0  503  502  0.00000000000E+00  0.00000000000E+00  0.95775196629E+03  0.95775196629E+03  0.00000000000E+00 0.  1.
         21   -1    0    0  501  503 -0.00000000000E+00 -0.00000000000E+00 -0.10944644234E+03  0.10944644234E+03  0.00000000000E+00 0.  1.
          6    2    1    2  501    0  0.57560989450E+02  0.55187696286E+02  0.85561085980E+03  0.87645957391E+03  0.17248910680E+03 0.  0.
         24    2    3    3    0    0  0.57310800003E+02 -0.25314487259E+02  0.36863995584E+03  0.38285708662E+03  0.82211803754E+02 0.  0.
         -6    2    1    2    0  502 -0.57560989450E+02 -0.55187696286E+02 -0.73053358447E+01  0.19073883473E+03  0.17311552736E+03 0.  0.
        -24    2    5    5    0    0 -0.91325629788E+02 -0.36189016683E+02 -0.46708466281E+02  0.13527986384E+03  0.80429752912E+02 0.  0.
          5    1    3    3  501    0  0.25018944714E+00  0.80502183544E+02  0.48697090396E+03  0.49360248728E+03  0.47000000000E+01 0. -1.
        -11    1    4    4    0    0  0.28197164475E+02 -0.23962417426E+02  0.46618551848E+02  0.59519466645E+02  0.00000000000E+00 0.  1.
         12    1    4    4    0    0  0.29113635528E+02 -0.13520698332E+01  0.32202140399E+03  0.32333761998E+03  0.00000000000E+00 0. -1.
         -5    1    5    5    0  502  0.33764640337E+02 -0.18998679603E+02  0.39403130436E+02  0.55458970888E+02  0.47000000000E+01 0.  1.
         13    1    6    6    0    0 -0.40329581743E+02 -0.14746937985E+02  0.21036419189E+02  0.47817133706E+02  0.00000000000E+00 0. -1.
        -14    1    6    6    0    0 -0.50996048044E+02 -0.21442078698E+02 -0.67744885470E+02  0.87462730133E+02  0.00000000000E+00 0.  1.
</event>
<event>
12    1  0.1061634E+000  0.1936133E+03  0.7818608E-02  0.1156030E+00
         21   -1    0    0  501  502  0.00000000000E+00  0.00000000000E+00  0.66175331555E+03  0.66175331555E+03  0.00000000000E+00 0.  1.
         21   -1    0    0  502  503 -0.00000000000E+00 -0.00000000000E+00 -0.56580389458E+02  0.56580389458E+02  0.00000000000E+00 0.  1.
         -6    2    1    2    0  503 -0.84211776966E+02  0.63250386896E+00  0.35227548540E+03  0.40197529668E+03  0.17433903203E+03 0.  0.
        -24    2    3    3    0    0 -0.11250315019E+03  0.27077361236E+02  0.21696200972E+03  0.26115072858E+03  0.87960485912E+02 0.  0.
          6    2    1    2  501    0  0.84211776966E+02 -0.63250386896E+00  0.25289744069E+03  0.31635840832E+03  0.17039220513E+03 0.  0.
         24    2    5    5    0    0  0.10260739043E+03  0.43315325351E+02  0.21553060081E+03  0.25562801222E+03  0.80546550300E+02 0.  0.
          5    1    5    5  501    0 -0.18395613468E+02 -0.43947829220E+02  0.37366839879E+02  0.60730396101E+02  0.47000000000E+01 0. -1.
        -11    1    6    6    0    0  0.67295396297E+02  0.32353445489E+02  0.20346709557E+03  0.21673549496E+03  0.00000000000E+00 0.  1.
         12    1    6    6    0    0  0.35311994137E+02  0.10961879862E+02  0.12063505242E+02  0.38892517259E+02  0.00000000000E+00 0. -1.
         -5    1    3    3    0  503  0.28291373226E+02 -0.26444857367E+02  0.13531347568E+03  0.14082456810E+03  0.47000000000E+01 0.  1.
         13    1    4    4    0    0 -0.95898238705E+01  0.18257089188E+02  0.11202354113E+03  0.11390592520E+03  0.00000000000E+00 0. -1.
        -14    1    4    4    0    0 -0.10291332632E+03  0.88202720481E+01  0.10493846859E+03  0.14724480338E+03  0.00000000000E+00 0.  1.
</event>
<event>
12    1  0.1061634E+000  0.1733748E+03  0.7818608E-02  0.1174488E+00
         21   -1    0    0  501  502  0.00000000000E+00  0.00000000000E+00  0.80645227010E+02  0.80645227010E+02  0.00000000000E+00 0. -1.
         21   -1    0    0  502  503 -0.00000000000E+00 -0.00000000000E+00 -0.46054451432E+03  0.46054451432E+03  0.00000000000E+00 0. -1.
         -6    2    1    2    0  503  0.95060758968E+01  0.13872673546E+02 -0.30856014154E+03  0.35371151012E+03  0.17210361675E+03 0.  0.
        -24    2    3    3    0    0  0.37736926554E+02  0.63217515918E+02 -0.14565958581E+03  0.18111204473E+03  0.78513233683E+02 0.  0.
          6    2    1    2  501    0 -0.95060758968E+01 -0.13872673546E+02 -0.71339145777E+02  0.18747823121E+03  0.17255722792E+03 0.  0.
         24    2    5    5    0    0  0.51006669881E+02 -0.91173722473E+01 -0.81384489768E+02  0.12577406419E+03  0.80689982023E+02 0.  0.
          5    1    5    5  501    0 -0.60512745778E+02 -0.47553012989E+01  0.10045343991E+02  0.61704167022E+02  0.47000000000E+01 0. -1.
        -11    1    6    6    0    0  0.10881685213E+02 -0.42106793404E+02 -0.43240775767E+02  0.61328279063E+02  0.00000000000E+00 0.  1.
         12    1    6    6    0    0  0.40124984668E+02  0.32989421157E+02 -0.38143714001E+02  0.64445785127E+02  0.00000000000E+00 0. -1.
         -5    1    3    3    0  503 -0.28230850657E+02 -0.49344842372E+02 -0.16290055573E+03  0.17259946539E+03  0.47000000000E+01 0.  1.
         13    1    4    4    0    0 -0.14321450126E+02  0.24226458831E+02 -0.86407306387E+01  0.29439556164E+02  0.00000000000E+00 0. -1.
        -14    1    4    4    0    0  0.52058376680E+02  0.38991057088E+02 -0.13701885517E+03  0.15167248857E+03  0.00000000000E+00 0.  1.
</event>
<event>
12    1  0.1061634E+000  0.2573584E+03  0.7818608E-02  0.1109001E+00
         21   -1    0    0  501  502  0.00000000000E+00  0.00000000000E+00  0.73562703367E+02  0.73562703367E+02  0.00000000000E+00 0. -1.
         21   -1    0    0  502  503 -0.00000000000E+00 -0.00000000000E+00 -0.95870289026E+03  0.95870289026E+03  0.00000000000E+00 0. -1.
         -6    2    1    2    0  503 -0.18137161689E+03 -0.54410943479E+02 -0.31029139454E+03  0.40313036955E+03  0.17429036444E+03 0.  0.
        -24    2    3    3    0    0 -0.10789985741E+03  0.37686445972E+02 -0.13042444819E+03  0.18806238733E+03  0.72761785314E+02 0.  0.
          6    2    1    2  501    0  0.18137161689E+03  0.54410943479E+02 -0.57484879235E+03  0.62913522408E+03  0.17176664964E+03 0.  0.
         24    2    5    5    0    0  0.16581163179E+03  0.20346701946E+00 -0.51416196563E+03  0.54615604249E+03  0.80189508094E+02 0.  0.
          5    1    5    5  501    0  0.15559985102E+02  0.54207476460E+02 -0.60686826711E+02  0.82979181586E+02  0.47000000000E+01 0. -1.
        -11    1    6    6    0    0  0.11776895107E+03  0.20312322924E+02 -0.25239869916E+03  0.27926191942E+03  0.00000000000E+00 0.  1.
         12    1    6    6    0    0  0.48042680725E+02 -0.20108855904E+02 -0.26176326647E+03  0.26689412308E+03  0.00000000000E+00 0. -1.
         -5    1    3    3    0  503 -0.73471759483E+02 -0.92097389451E+02 -0.17986694635E+03  0.21506798222E+03  0.47000000000E+01 0.  1.
         11    1    4    4    0    0 -0.36094452330E+02  0.46702233829E+02 -0.36154588474E+02  0.69217500687E+02  0.00000000000E+00 0. -1.
        -12    1    4    4    0    0 -0.71805405080E+02 -0.90157878568E+01 -0.94269859719E+02  0.11884488664E+03  0.00000000000E+00 0.  1.
</event>
<event>
12    1  0.1061634E+000  0.2911450E+03  0.7818608E-02  0.1089815E+00
         21   -1    0    0  503  502  0.00000000000E+00  0.00000000000E+00  0.16199606109E+03  0.16199606109E+03  0.00000000000E+00 0. -1.
         21   -1    0    0  501  503 -0.00000000000E+00 -0.00000000000E+00 -0.55230840305E+03  0.55230840305E+03  0.00000000000E+00 0. -1.
          6    2    1    2  501    0 -0.24982364609E+02 -0.23322090000E+03 -0.27843419753E+03  0.40285362099E+03  0.17247994332E+03 0.  0.
         24    2    3    3    0    0 -0.76941111174E+02 -0.17836655940E+03 -0.16899647364E+03  0.26978440803E+03  0.80555909842E+02 0.  0.
         -6    2    1    2    0  502  0.24982364609E+02  0.23322090000E+03 -0.11187814443E+03  0.31145084315E+03  0.17166479477E+03 0.  0.
        -24    2    5    5    0    0  0.83203057484E+02  0.17277667179E+03 -0.79564324674E+02  0.22139848755E+03  0.76891361276E+02 0.  0.
          5    1    3    3  501    0  0.51958746565E+02 -0.54854340600E+02 -0.10943772389E+03  0.13306921296E+03  0.47000000000E+01 0. -1.
        -11    1    4    4    0    0 -0.12919090447E+02 -0.10857119479E+03 -0.12275389043E+03  0.16438711887E+03  0.00000000000E+00 0.  1.
         12    1    4    4    0    0 -0.64022020726E+02 -0.69795364617E+02 -0.46242583215E+02  0.10539728916E+03  0.00000000000E+00 0. -1.
         -5    1    5    5    0  502 -0.58220692875E+02  0.60444228210E+02 -0.32313819752E+02  0.90052355603E+02  0.47000000000E+01 0.  1.
         11    1    6    6    0    0 -0.13001448707E+02  0.65991627778E+01 -0.62088336857E+01  0.15847278428E+02  0.00000000000E+00 0. -1.
        -12    1    6    6    0    0  0.96204506191E+02  0.16617750901E+03 -0.73355490988E+02  0.20555120912E+03  0.00000000000E+00 0.  1.
</event>
<event>
12    1  0.1061634E+000  0.1828569E+03  0.7818608E-02  0.1165555E+00
         21   -1    0    0  503  502  0.00000000000E+00  0.00000000000E+00  0.39862316036E+02  0.39862316036E+02  0.00000000000E+00 0.  1.
         21   -1    0    0  501  503 -0.00000000000E+00 -0.00000000000E+00 -0.99901536909E+03  0.99901536909E+03  0.00000000000E+00 0.  1.
          6    2    1    2  501    0  0.27051164962E+02 -0.53724706529E+02 -0.69583562720E+03  0.71946080951E+03  0.17268041788E+03 0.  0.
         24    2    3    3    0    0  0.72022487257E+02 -0.21425014528E+01 -0.51989584537E+03  0.53062214679E+03  0.77950905316E+02 0.  0.
         -6    2    1    2    0  502 -0.27051164962E+02  0.53724706529E+02 -0.26331742585E+03  0.31941687561E+03  0.17050795891E+03 0.  0.
        -24    2    5    5    0    0  0.17130964805E+02  0.90605845356E+02 -0.17362714799E+03  0.21274581611E+03  0.81311171358E+02 0.  0.
          5    1    3    3  501    0 -0.44971322295E+02 -0.51582205077E+02 -0.17593978183E+03  0.18883866272E+03  0.47000000000E+01 0. -1.
        -13    1    4    4    0    0 -0.12341947144E+02  0.15017123924E+02 -0.11999532197E+03  0.12155951203E+03  0.00000000000E+00 0.  1.
         14    1    4    4    0    0  0.84364434401E+02 -0.17159625377E+02 -0.39990052340E+03  0.40906263475E+03  0.00000000000E+00 0. -1.
         -5    1    5    5    0  502 -0.44182129766E+02 -0.36881138827E+02 -0.89690277862E+02  0.10667105950E+03  0.47000000000E+01 0.  1.
         11    1    6    6    0    0 -0.15477849587E+02  0.74496313340E+02 -0.71792029402E+02  0.10461051579E+03  0.00000000000E+00 0. -1.
        -12    1    6    6    0    0  0.32608814392E+02  0.16109532016E+02 -0.10183511858E+03  0.10813530032E+03  0.00000000000E+00 0.  1.
</event>
<event>
12    1  0.1061634E+000  0.2307997E+03  0.7818608E-02  0.1126185E+00
         21   -1    0    0  501  502  0.00000000000E+00  0.00000000000E+00  0.14608880796E+03  0.14608880796E+03  0.00000000000E+00 0.  1.
         21   -1    0    0  502  503 -0.00000000000E+00 -0.00000000000E+00 -0.36421184895E+03  0.36421184895E+03  0.00000000000E+00 0.  1.
         -6    2    1    2    0  503  0.75938916655E+02 -0.13273334914E+03 -0.99387740407E+02  0.25128947923E+03  0.17286878952E+03 0.  0.
        -24    2    3    3    0    0  0.35126122643E+02 -0.11730079427E+03 -0.13163023192E+03  0.19683292624E+03  0.80145879924E+02 0.  0.
          6    2    1    2  501    0 -0.75938916655E+02  0.13273334914E+03 -0.11873530058E+03  0.25901117769E+03  0.17205771568E+03 0.  0.
         24    2    5    5    0    0 -0.98365466195E+02  0.15245693502E+03 -0.91810655751E+02  0.21852665641E+03  0.80036373454E+02 0.  0.
          5    1    5    5  501    0  0.22426549540E+02 -0.19723585875E+02 -0.26924644831E+02  0.40484521281E+02  0.47000000000E+01 0. -1.
        -11    1    6    6    0    0 -0.69851154174E+02  0.93518249642E+02 -0.15139014745E+02  0.11770317125E+03  0.00000000000E+00 0.  1.
         12    1    6    6    0    0 -0.28514312021E+02  0.58938685377E+02 -0.76671641006E+02  0.10082348515E+03  0.00000000000E+00 0. -1.
         -5    1    3    3    0  503  0.40812794011E+02 -0.15432554874E+02  0.32242491509E+02  0.54456552991E+02  0.47000000000E+01 0.  1.
         11    1    4    4    0    0  0.57824668669E+02 -0.56777718054E+02 -0.82472274528E+02  0.11562472763E+03  0.00000000000E+00 0. -1.
        -12    1    4    4    0    0 -0.22698546025E+02 -0.60523076217E+02 -0.49157957388E+02  0.81208198607E+02  0.00000000000E+00 0.  1.
</event>
<event>
12    1  0.1061634E+000  0.1848393E+03  0.7818608E-02  0.1163371E+00
         21   -1    0    0  501  502  0.00000000000E+00  0.00000000000E+00  0.67154734665E+03  0.67154734665E+03  0.00000000000E+00 0. -1.
         21   -1    0    0  502  503 -0.00000000000E+00 -0.00000000000E+00 -0.52484795983E+02  0.52484795983E+02  0.00000000000E+00 0. -1.
         -6    2    1    2    0  503 -0.46595449031E+02  0.48214310347E+02  0.24290766521E+03  0.30523711393E+03  0.17224925634E+03 0.  0.
        -24    2    3    3    0    0 -0.59649944334E+02  0.29319733761E+02  0.57777720726E+02  0.11862893829E+03  0.79478282192E+02 0.  0.
          6    2    1    2  501    0  0.46595449031E+02 -0.48214310347E+02  0.37615488546E+03  0.41879502870E+03  0.17146726399E+03 0.  0.
         24    2    5    5    0    0 -0.28677716635E+02 -0.32666797033E+02  0.28661509822E+03  0.30069660306E+03  0.79879293352E+02 0.  0.
          5    1    5    5  501    0  0.75273165666E+02 -0.15547513314E+02  0.89539787235E+02  0.11809842564E+03  0.47000000000E+01 0. -1.
        -13    1    6    6    0    0  0.13303447456E+02 -0.42243583821E+02  0.18700408923E+03  0.19217708364E+03  0.00000000000E+00 0.  1.
         14    1    6    6    0    0 -0.41981164090E+02  0.95767867876E+01  0.99611008992E+02  0.10851951942E+03  0.00000000000E+00 0. -1.
         -5    1    3    3    0  503  0.13054495302E+02  0.18894576586E+02  0.18512994449E+03  0.18660817564E+03  0.47000000000E+01 0.  1.
         11    1    4    4    0    0 -0.43710264389E+02  0.40420926089E+02  0.72821128970E+02  0.94060381157E+02  0.00000000000E+00 0. -1.
        -12    1    4    4    0    0 -0.15939679945E+02 -0.11101192328E+02 -0.15043408245E+02  0.24568557130E+02  0.00000000000E+00 0.  1.
</event>
<event>
12    1  0.1061634E+000  0.2164145E+03  0.7818608E-02  0.1137166E+00
         21   -1    0    0  503  502  0.00000000000E+00  0.00000000000E+00  0.15665830778E+03  0.15665830778E+03  0.00000000000E+00 0.  1.
         21   -1    0    0  501  503 -0.00000000000E+00 -0.00000000000E+00 -0.39218000689E+03  0.39218000689E+03  0.00000000000E+00 0.  1.
          6    2    1    2  501    0 -0.12532659961E+03 -0.19269799058E+02 -0.25513228266E+03  0.33455600881E+03  0.17537719251E+03 0.  0.
         24    2    3    3    0    0 -0.67950137062E+02 -0.66157527389E+02 -0.93062757995E+02  0.15628896657E+03  0.82289273847E+02 0.  0.
         -6    2    1    2    0  502  0.12532659961E+03  0.19269799058E+02  0.19610583551E+02  0.21428230586E+03  0.17162240498E+03 0.  0.
        -24    2    5    5    0    0  0.96278079199E+02  0.78152650488E+02  0.10019392880E+02  0.14776097342E+03  0.79722090545E+02 0.  0.
          5    1    3    3  501    0 -0.57376462545E+02  0.46887728331E+02 -0.16206952467E+03  0.17826704224E+03  0.47000000000E+01 0. -1.
        -13    1    4    4    0    0  0.17323946662E+02 -0.44837254922E+01 -0.38041240532E+01  0.18294651733E+02  0.00000000000E+00 0.  1.
         14    1    4    4    0    0 -0.85274083724E+02 -0.61673801897E+02 -0.89258633942E+02  0.13799431484E+03  0.00000000000E+00 0. -1.
         -5    1    5    5    0  502  0.29048520408E+02 -0.58882851430E+02  0.95911906714E+01  0.66521332435E+02  0.47000000000E+01 0.  1.
         13    1    6    6    0    0  0.55539554991E+02  0.82614193236E+02 -0.13579985435E+02  0.10046971234E+03  0.00000000000E+00 0. -1.
        -14    1    6    6    0    0  0.40738524209E+02 -0.44615427481E+01  0.23599378315E+02  0.47291261087E+02  0.00000000000E+00 0.  1.
</event>
<event>
12    1  0.1061634E+000  0.1743558E+03  0.7818608E-02  0.1174232E+00
         21   -1    0    0  503  502  0.00000000000E+00  0.00000000000E+00  0.34430100251E+02  0.34430100251E+02  0.00000000000E+00 0. -1.
         21   -1    0    0  501  503 -0.00000000000E+00 -0.00000000000E+00 -0.86627990977E+03  0.86627990977E+03  0.00000000000E+00 0. -1.
          6    2    1    2  501    0  0.18969707720E+02  0.19812349123E+02 -0.41841938169E+03  0.45201784557E+03  0.16879862189E+03 0.  0.
         24    2    3    3    0    0  0.75969674250E+02  0.66528647700E+01 -0.30129755357E+03  0.32101486531E+03  0.80340997957E+02 0.  0.
         -6    2    1    2    0  502 -0.18969707720E+02 -0.19812349123E+02 -0.41343042783E+03  0.44869216445E+03  0.17218467062E+03 0.  0.
        -24    2    5    5    0    0 -0.36706734165E+01 -0.60813076897E+02 -0.38090501500E+03  0.39396454246E+03  0.80048273567E+02 0.  0.
          5    1    3    3  501    0 -0.56999966530E+02  0.13159484353E+02 -0.11712182813E+03  0.13100298026E+03  0.47000000000E+01 0. -1.
        -11    1    4    4    0    0 -0.56101511965E-01  0.26025860882E+02 -0.36426187922E+02  0.44768468240E+02  0.00000000000E+00 0.  1.
         12    1    4    4    0    0  0.76025775762E+02 -0.19372996112E+02 -0.26487136564E+03  0.27624639707E+03  0.00000000000E+00 0. -1.
         -5    1    5    5    0  502 -0.15299034303E+02  0.41000727774E+02 -0.32525412828E+02  0.54727621986E+02  0.47000000000E+01 0.  1.
         13    1    6    6    0    0 -0.17482077412E+01 -0.48327806946E+02 -0.85029437869E+02  0.97819417596E+02  0.00000000000E+00 0. -1.
        -14    1    6    6    0    0 -0.19224656753E+01 -0.12485269951E+02 -0.29587557713E+03  0.29614512487E+03  0.00000000000E+00 0.  1.
</event>
<event>
12    1  0.1061634E+000  0.2072236E+03  0.7818608E-02  0.1144026E+00
         21   -1    0    0  501  502  0.00000000000E+00  0.00000000000E+00  0.52551820041E+03  0.52551820041E+03  0.00000000000E+00 0. -1.
         21   -1    0    0  502  503 -0.00000000000E+00 -0.00000000000E+00 -0.98474352422E+02  0.98474352422E+02  0.00000000000E+00 0. -1.
         -6    2    1    2    0  503  0.11426696265E+03  0.58149495721E+01  0.83513173464E+02  0.22341904175E+03  0.17277403069E+03 0.  0.
        -24    2    3    3    0    0 -0.23421311043E+00  0.41611344773E+02  0.35056677200E+02  0.93950809387E+02  0.76591286048E+02 0.  0.
          6    2    1    2  501    0 -0.11426696265E+03 -0.58149495721E+01  0.34353067452E+03  0.40057351108E+03  0.17133318724E+03 0.  0.
         24    2    5    5    0    0 -0.75141557163E+02 -0.69095970925E+02  0.20177496868E+03  0.24041092133E+03  0.81631895091E+02 0.  0.
          5    1    5    5  501    0 -0.39125405490E+02  0.63281021352E+02  0.14175570584E+03  0.16016258975E+03  0.47000000000E+01 0. -1.
        -13    1    6    6    0    0 -0.63701818880E+02 -0.10987394754E+02  0.14319526765E+03  0.15710992728E+03  0.00000000000E+00 0.  1.
         14    1    6    6    0    0 -0.11439738283E+02 -0.58108576170E+02  0.58579701031E+02  0.83300994048E+02  0.00000000000E+00 0. -1.
         -5    1    3    3    0  503  0.11450117576E+03 -0.35796395201E+02  0.48456496264E+02  0.12946823236E+03  0.47000000000E+01 0.  1.
         13    1    4    4    0    0  0.35196722626E+02  0.21816904444E+02  0.17475855914E+01  0.41446841357E+02  0.00000000000E+00 0. -1.
        -14    1    4    4    0    0 -0.35430935736E+02  0.19794440328E+02  0.33309091609E+02  0.52503968029E+02  0.00000000000E+00 0.  1.
</event>
<event>
12    1  0.1061634E+000  0.2096700E+03  0.7818608E-02  0.1141847E+00
         21   -1    0    0  503  502  0.00000000000E+00  0.00000000000E+00  0.76915258498E+02  0.76915258498E+02  0.00000000000E+00 0.  1.
         21   -1    0    0  501  503 -0.00000000000E+00 -0.00000000000E+00 -0.57887736148E+03  0.57887736148E+03  0.00000000000E+00 0.  1.
          6    2    1    2  501    0  0.21438651775E+02  0.11753371185E+03 -0.21338201577E+03  0.29908546352E+03  0.17218141777E+03 0.  0.
         24    2    3    3    0    0 -0.40242583815E+02  0.11613433076E+03 -0.13539072164E+03  0.19953012690E+03  0.79843444929E+02 0.  0.
         -6    2    1    2    0  502 -0.21438651775E+02 -0.11753371185E+03 -0.28858008722E+03  0.35670715646E+03  0.17230130447E+03 0.  0.
        -24    2    5    5    0    0 -0.22604862576E+02 -0.30494003793E+01 -0.18858358265E+03  0.20462359868E+03  0.76070827775E+02 0.  0.
          5    1    3    3  501    0  0.61681235590E+02  0.13993810830E+01 -0.77991294123E+02  0.99555336624E+02  0.47000000000E+01 0. -1.
        -13    1    4    4    0    0  0.65430013597E+01  0.83639443470E+02 -0.10675113915E+03  0.13577250487E+03  0.00000000000E+00 0.  1.
         14    1    4    4    0    0 -0.46785585175E+02  0.32494887294E+02 -0.28639582499E+02  0.63757622024E+02  0.00000000000E+00 0. -1.
         -5    1    5    5    0  502  0.11662108017E+01 -0.11448431147E+03 -0.99996504567E+02  0.15208355778E+03  0.47000000000E+01 0.  1.
         11    1    6    6    0    0 -0.43596779168E+02  0.64496575045E+01 -0.62642534308E+02  0.76592195035E+02  0.00000000000E+00 0. -1.
        -12    1    6    6    0    0  0.20991916591E+02 -0.94990578838E+01 -0.12594104834E+03  0.12803140365E+03  0.00000000000E+00 0.  1.
</event>
<event>
12    1  0.1061634E+000  0.2453665E+03  0.7818608E-02  0.1116452E+00
         21   -1    0    0  503  502  0.00000000000E+00  0.00000000000E+00  0.74264084077E+03  0.74264084077E+03  0.00000000000E+00 0.  1.
         21   -1    0    0  501  503 -0.00000000000E+00 -0.00000000000E+00 -0.93913262303E+02  0.93913262303E+02  0.00000000000E+00 0.  1.
          6    2    1    2  501    0 -0.13161287997E+03  0.11549238306E+03  0.16679196720E+03  0.29575224443E+03  0.17026270597E+03 0.  0.
         24    2    3    3    0    0 -0.56657716808E+02 -0.67101755276E+01  0.43676040974E+02  0.10672483081E+03  0.78914318258E+02 0.  0.
         -6    2    1    2    0  502  0.13161287997E+03 -0.11549238306E+03  0.48193561126E+03  0.54080185864E+03  0.17188448502E+03 0.  0.
        -24    2    5    5    0    0  0.21995642217E+02  0.49054156922E+01  0.15153174655E+03  0.17242654382E+03  0.79127564227E+02 0.  0.
          5    1    3    3  501    0 -0.74955163158E+02  0.12220255859E+03  0.12311592623E+03  0.18902741362E+03  0.47000000000E+01 0. -1.
        -13    1    4    4    0    0  0.19864136445E+02 -0.36833963314E+01  0.44726761501E+01  0.20691934592E+02  0.00000000000E+00 0.  1.
         14    1    4    4    0    0 -0.76521853253E+02 -0.30267791962E+01  0.39203364824E+02  0.86032896215E+02  0.00000000000E+00 0. -1.
         -5    1    5    5    0  502  0.10961723775E+03 -0.12039779875E+03  0.33040386471E+03  0.36837531483E+03  0.47000000000E+01 0.  1.
         11    1    6    6    0    0  0.42772583054E+02  0.27772046250E+02  0.86162870178E+02  0.10012402614E+03  0.00000000000E+00 0. -1.
        -12    1    6    6    0    0 -0.20776940837E+02 -0.22866630558E+02  0.65368876374E+02  0.72302517674E+02  0.00000000000E+00 0.  1.
</event>
<event>
12    1  0.1061634E+000  0.1963208E+03  0.7818608E-02  0.1153434E+00
         21   -1    0    0  501  502  0.00000000000E+00  0.00000000000E+00  0.17470731174E+03  0.17470731174E+03  0.00000000000E+00 0.  1.
         21   -1    0    0  502  503 -0.00000000000E+00 -0.00000000000E+00 -0.49758118271E+03  0.49758118271E+03  0.00000000000E+00 0.  1.
         -6    2    1    2    0  503 -0.82521700665E+02 -0.33956021296E+02 -0.41305204586E+03  0.45624696622E+03  0.17200714850E+03 0.  0.
        -24    2    3    3    0    0 -0.26022232789E+02 -0.69706371001E+02 -0.15131153124E+03  0.18606098515E+03  0.78659875099E+02 0.  0.
          6    2    1    2  501    0  0.82521700665E+02  0.33956021296E+02  0.90178174887E+02  0.21604152823E+03  0.17486851126E+03 0.  0.
         24    2    5    5    0    0  0.99309652601E+02 -0.28550974592E+02  0.49087330605E+02  0.13923327770E+03  0.79364818042E+02 0.  0.
          5    1    5    5  501    0 -0.16787951936E+02  0.62506995889E+02  0.41090844282E+02  0.76808250528E+02  0.47000000000E+01 0. -1.
        -11    1    6    6    0    0 -0.37419344740E+01  0.14367162976E+02  0.18042081279E+02  0.23365233628E+02  0.00000000000E+00 0.  1.
         12    1    6    6    0    0  0.10305158707E+03 -0.42918137569E+02  0.31045249326E+02  0.11586804407E+03  0.00000000000E+00 0. -1.
         -5    1    3    3    0  503 -0.56499467876E+02  0.35750349705E+02 -0.26174051462E+03  0.27018598107E+03  0.47000000000E+01 0.  1.
         13    1    4    4    0    0 -0.54312483578E+02 -0.45542508932E+02 -0.93908919356E+02  0.11765564639E+03  0.00000000000E+00 0. -1.
        -14    1    4    4    0    0  0.28290250790E+02 -0.24163862069E+02 -0.57402611882E+02  0.68405338759E+02  0.00000000000E+00 0.  1.
</event>
<event>
12    1  0.1061634E+000  0.1787021E+03  0.7818608E-02  0.1169354E+00
         21   -1    0    0  501  502  0.00000000000E+00  0.00000000000E+00  0.44332545842E+02  0.44332545842E+02  0.00000000000E+00 0.  1.
         21   -1    0    0  502  503 -0.00000000000E+00 -0.00000000000E+00 -0.80508470271E+03  0.80508470271E+03  0.00000000000E+00 0.  1.
         -6    2    1    2    0  503 -0.16310271267E+02 -0.44635641377E+02 -0.23765863671E+03  0.29664128396E+03  0.17104402450E+03 0.  0.
        -24    2    3    3    0    0 -0.69620856244E+02 -0.31935634380E+01 -0.11600935530E+03  0.15742884930E+03  0.80426423554E+02 0.  0.
          6    2    1    2  501    0  0.16310271267E+02  0.44635641377E+02 -0.52309352016E+03  0.55277596459E+03  0.17226743967E+03 0.  0.
         24    2    5    5    0    0  0.76052359080E+01 -0.32127476594E+02 -0.15974041241E+03  0.18127101868E+03  0.79070655072E+02 0.  0.
          5    1    5    5  501    0  0.87050353592E+01  0.76763117971E+02 -0.36335310775E+03  0.37150494591E+03  0.47000000000E+01 0. -1.
        -13    1    6    6    0    0  0.25738898895E+02 -0.49995579840E+02 -0.13275010611E+03  0.14416878855E+03  0.00000000000E+00 0.  1.
         14    1    6    6    0    0 -0.18133662987E+02  0.17868103246E+02 -0.26990306295E+02  0.37102230133E+02  0.00000000000E+00 0. -1.
         -5    1    3    3    0  503  0.53310584977E+02 -0.41442077939E+02 -0.12164928142E+03  0.13921243466E+03  0.47000000000E+01 0.  1.
         11    1    4    4    0    0  0.10885207883E+00 -0.22191144517E+02 -0.65765068700E+02  0.69408234417E+02  0.00000000000E+00 0. -1.
        -12    1    4    4    0    0 -0.69729708323E+02  0.18997581079E+02 -0.50244286596E+02  0.88020614887E+02  0.00000000000E+00 0.  1.
</event>
<event>
12    1  0.1061634E+000  0.1759316E+03  0.7818608E-02  0.1171822E+00
         21   -1    0    0  503  502  0.00000000000E+00  0.00000000000E+00  0.28759199289E+03  0.28759199289E+03  0.00000000000E+00 0.  1.
         21   -1    0    0  501  503 -0.00000000000E+00 -0.00000000000E+00 -0.12805870174E+03  0.12805870174E+03  0.00000000000E+00 0.  1.
          6    2    1    2  501    0 -0.25676569762E+02  0.25908163601E+02  0.16291491658E+03  0.23977740892E+03  0.17210873484E+03 0.  0.
         24    2    3    3    0    0 -0.35693968649E+02  0.46209196581E+02  0.31649263783E+02  0.10649109370E+03  0.83242584611E+02 0.  0.
         -6    2    1    2    0  502  0.25676569762E+02 -0.25908163601E+02 -0.33816254254E+01  0.17587328571E+03  0.17201586573E+03 0.  0.
        -24    2    5    5    0    0  0.67603706400E+02 -0.25096758830E+02  0.39044478169E+02  0.11603510868E+03  0.82094864324E+02 0.  0.
          5    1    3    3  501    0  0.10017398887E+02 -0.20301032980E+02  0.13126565279E+03  0.13328631522E+03  0.47000000000E+01 0. -1.
        -11    1    4    4    0    0 -0.11321550977E+02 -0.13426032983E+02  0.37893826982E+02  0.41765751538E+02  0.00000000000E+00 0.  1.
         12    1    4    4    0    0 -0.24372417672E+02  0.59635229564E+02 -0.62445631992E+01  0.64725342161E+02  0.00000000000E+00 0. -1.
         -5    1    5    5    0  502 -0.41927136638E+02 -0.81140477158E+00 -0.42426103595E+02  0.59838177033E+02  0.47000000000E+01 0.  1.
         11    1    6    6    0    0  0.39764217927E+02 -0.30289522729E+02  0.61957015335E+02  0.79607285870E+02  0.00000000000E+00 0. -1.
        -12    1    6    6    0    0  0.27839488474E+02  0.51927638991E+01 -0.22912537165E+02  0.36427822811E+02  0.00000000000E+00 0.  1.
</event>
<event>
12    1  0.1061634E+000  0.2237283E+03  0.7818608E-02  0.1131318E+00
         21   -1    0    0  503  502  0.00000000000E+00  0.00000000000E+00  0.11310356090E+03  0.11310356090E+03  0.00000000000E+00 0. -1.
         21   -1    0    0  501  503 -0.00000000000E+00 -0.00000000000E+00 -0.47273004847E+03  0.47273004847E+03  0.00000000000E+00 0. -1.
          6    2    1    2  501    0 -0.13333385728E+03  0.52877239056E+02 -0.10301727195E+03  0.24538882952E+03  0.17037957455E+03 0.  0.
         24    2    3    3    0    0 -0.41504917277E+02  0.79640378003E+01  0.13860004410E+02  0.90043608803E+02  0.78292194424E+02 0.  0.
         -6    2    1    2    0  502  0.13333385728E+03 -0.52877239056E+02 -0.25660921562E+03  0.34044477986E+03  0.17169868573E+03 0.  0.
        -24    2    5    5    0    0  0.55971123168E+02  0.32021673773E+02 -0.16154093530E+03  0.19127076753E+03  0.79566817928E+02 0.  0.
          5    1    3    3  501    0 -0.91828940005E+02  0.44913201255E+02 -0.11687727636E+03  0.15534522072E+03  0.47000000000E+01 0. -1.
        -13    1    4    4    0    0  0.83351095010E+01  0.11487523223E+02 -0.23639154427E+02  0.27572574457E+02  0.00000000000E+00 0.  1.
         14    1    4    4    0    0 -0.49840026778E+02 -0.35234854223E+01  0.37499158837E+02  0.62471034346E+02  0.00000000000E+00 0. -1.
         -5    1    5    5    0  502  0.77362734114E+02 -0.84898912829E+02 -0.95068280323E+02  0.14917401232E+03  0.47000000000E+01 0.  1.
         11    1    6    6    0    0  0.32877996291E+02 -0.21199764974E+02 -0.36846211196E+02  0.53740449892E+02  0.00000000000E+00 0. -1.
        -12    1    6    6    0    0  0.23093126877E+02  0.53221438747E+02 -0.12469472410E+03  0.13753031764E+03  0.00000000000E+00 0.  1.
</event>
<event>
12    1  0.1061634E+000  0.2216323E+03  0.7818608E-02  0.1132954E+00
         21   -1    0    0  501  502  0.00000000000E+00  0.00000000000E+00  0.58460943891E+03  0.58460943891E+03  0.00000000000E+00 0. -1.
         21   -1    0    0  502  503 -0.00000000000E+00 -0.00000000000E+00 -0.11814649144E+03  0.11814649144E+03  0.00000000000E+00 0. -1.
         -6    2    1    2    0  503  0.10637668664E+03 -0.86983722606E+02  0.42239186833E+02  0.22412593049E+03  0.17194800480E+03 0.  0.
        -24    2    3    3    0    0  0.10532285540E+03 -0.65852617022E+01  0.22001832063E+02  0.14107977704E+03  0.91011830735E+02 0.  0.
          6    2    1    2  501    0 -0.10637668664E+03  0.86983722606E+02  0.42422376064E+03  0.47862999985E+03  0.17389281241E+03 0.  0.
         24    2    5    5    0    0 -0.87483250899E+02 -0.77828285160E+01  0.28592281756E+03  0.30984936713E+03  0.80875713918E+02 0.  0.
          5    1    5    5  501    0 -0.18893435743E+02  0.94766551122E+02  0.13830094308E+03  0.16878063272E+03  0.47000000000E+01 0. -1.
        -13    1    6    6    0    0 -0.61685753853E+02  0.33758546749E+02  0.17680655362E+03  0.19027697998E+03  0.00000000000E+00 0.  1.
         14    1    6    6    0    0 -0.25797497046E+02 -0.41541375265E+02  0.10911626394E+03  0.11957238715E+03  0.00000000000E+00 0. -1.
         -5    1    3    3    0  503  0.10538312464E+01 -0.80398460904E+02  0.20237354769E+02  0.83046153458E+02  0.47000000000E+01 0.  1.
         11    1    4    4    0    0  0.61034432875E+02 -0.96833656514E+01  0.57366059309E+02  0.84319833535E+02  0.00000000000E+00 0. -1.
        -12    1    4    4    0    0  0.44288422520E+02  0.30981039491E+01 -0.35364227246E+02  0.56759943500E+02  0.00000000000E+00 0.  1.
</event>
<event>
12    1  0.1061634E+000  0.3097233E+03  0.7818608E-02  0.1080546E+00
         21   -1    0    0  503  502  0.00000000000E+00  0.00000000000E+00  0.64454203383E+02  0.64454203383E+02  0.00000000000E+00 0.  1.
         21   -1    0    0  501  503 -0.00000000000E+00 -0.00000000000E+00 -0.14916138600E+04  0.14916138600E+04  0.00000000000E+00 0.  1.
          6    2    1    2  501    0  0.25775017972E+03  0.55503971437E+01 -0.66487771587E+03  0.73347862068E+03  0.17164657842E+03 0.  0.
         24    2    3    3    0    0  0.88848247341E+02  0.46931397709E+02 -0.19266157299E+03  0.23023869225E+03  0.76123626794E+02 0.  0.
         -6    2    1    2    0  502 -0.25775017972E+03 -0.55503971437E+01 -0.76228194071E+03  0.82258944267E+03  0.17062728972E+03 0.  0.
        -24    2    5    5    0    0 -0.18937127203E+03  0.46070133440E+02 -0.63395613638E+03  0.66821989822E+03  0.81446385197E+02 0.  0.
          5    1    3    3  501    0  0.16890193238E+03 -0.41381000566E+02 -0.47221614288E+03  0.50323992843E+03  0.47000000000E+01 0. -1.
        -11    1    4    4    0    0  0.39905627429E+02 -0.32424745140E+01 -0.21862966965E+02  0.45617563131E+02  0.00000000000E+00 0.  1.
         12    1    4    4    0    0  0.48942619911E+02  0.50173872223E+02 -0.17079860603E+03  0.18462112912E+03  0.00000000000E+00 0. -1.
         -5    1    5    5    0  502 -0.68378907689E+02 -0.51620530584E+02 -0.12832580433E+03  0.15436954445E+03  0.47000000000E+01 0.  1.
         11    1    6    6    0    0 -0.85452785318E+02  0.19897870854E+02 -0.41833385314E+03  0.42743574543E+03  0.00000000000E+00 0. -1.
        -12    1    6    6    0    0 -0.10391848671E+03  0.26172262586E+02 -0.21562228323E+03  0.24078415279E+03  0.00000000000E+00 0.  1.
</event>
<event>
12    1  0.1061634E+000  0.2654570E+03  0.7818608E-02  0.1103950E+00
         21   -1    0    0  503  502  0.00000000000E+00  0.00000000000E+00  0.33469226728E+03  0.33469226728E+03  0.00000000000E+00 0.  1.
         21   -1    0    0  501  503 -0.00000000000E+00 -0.00000000000E+00 -0.21102247227E+03  0.21102247227E+03  0.00000000000E+00 0.  1.
          6    2    1    2  501    0 -0.19830141908E+03  0.35354467125E+02  0.46029987768E+02  0.26913678175E+03  0.17246001381E+03 0.  0.
         24    2    3    3    0    0 -0.38705961175E+02  0.53440242461E+02  0.27635905276E+02  0.10740169674E+03  0.80108490546E+02 0.  0.
         -6    2    1    2    0  502  0.19830141908E+03 -0.35354467125E+02  0.77639807243E+02  0.27657795779E+03  0.17289891819E+03 0.  0.
        -24    2    5    5    0    0  0.20891398407E+03  0.25350451509E+01  0.52151065858E+02  0.22946100104E+03  0.79253631676E+02 0.  0.
          5    1    3    3  501    0 -0.15959545791E+03 -0.18085775335E+02  0.18394082491E+02  0.16173508501E+03  0.47000000000E+01 0. -1.
        -11    1    4    4    0    0  0.25013655208E+02  0.12469706237E+02  0.93413068360E+01  0.29469247257E+02  0.00000000000E+00 0.  1.
         12    1    4    4    0    0 -0.63719616382E+02  0.40970536224E+02  0.18294598440E+02  0.77932449484E+02  0.00000000000E+00 0. -1.
         -5    1    5    5    0  502 -0.10612564988E+02 -0.37889512276E+02  0.25488741385E+02  0.47116956752E+02  0.47000000000E+01 0.  1.
         11    1    6    6    0    0  0.20102721750E+02  0.79024998974E+01 -0.17848272264E+02  0.28020166830E+02  0.00000000000E+00 0. -1.
        -12    1    6    6    0    0  0.18881126232E+03 -0.53674547466E+01  0.69999338122E+02  0.20144083421E+03  0.00000000000E+00 0.  1.
</event>
<event>
12    1  0.1061634E+000  0.2210372E+03  0.7818608E-02  0.1134751E+00
         21   -1    0    0  501  502  0.00000000000E+00  0.00000000000E+00  0.41826193250E+03  0.41826193250E+03  0.00000000000E+00 0. -1.
         21   -1    0    0  502  503 -0.00000000000E+00 -0.00000000000E+00 -0.18150182273E+03  0.18150182273E+03  0.00000000000E+00 0. -1.
         -6    2    1    2    0  503  0.12483159746E+03  0.68530201850E+00  0.30501829940E+03  0.37668768339E+03  0.18241176081E+03 0.  0.
        -24    2    3    3    0    0  0.92884552257E+02 -0.20734046971E+02  0.82167325143E+02  0.15049296874E+03  0.82699598343E+02 0.  0.
          6    2    1    2  501    0 -0.12483159746E+03 -0.68530201850E+00 -0.68258189629E+02  0.22307607184E+03  0.17181488879E+03 0.  0.
         24    2    5    5    0    0 -0.12399381835E+03  0.36519041606E+02 -0.55194386058E+01  0.14997951967E+03  0.75863592904E+02 0.  0.
          5    1    5    5  501    0 -0.83777910704E+00 -0.37204343625E+02 -0.62738751023E+02  0.73096552164E+02  0.47000000000E+01 0. -1.
        -11    1    6    6    0    0 -0.66431337485E+02  0.34113925042E+02 -0.38053955436E+02  0.83815189591E+02  0.00000000000E+00 0.  1.
         12    1    6    6    0    0 -0.57562480869E+02  0.24051165640E+01  0.32534516831E+02  0.66164330080E+02  0.00000000000E+00 0. -1.
         -5    1    3    3    0  503  0.31947045204E+02  0.21419348990E+02  0.22285097426E+03  0.22619471465E+03  0.47000000000E+01 0.  1.
         11    1    4    4    0    0  0.14692296163E+02 -0.30073051331E+02 -0.40628787892E+01  0.33715856314E+02  0.00000000000E+00 0. -1.
        -12    1    4    4    0    0  0.78192256094E+02  0.93390043600E+01  0.86230203932E+02  0.11677711242E+03  0.00000000000E+00 0.  1.
</event>
<event>
12    1  0.1061634E+000  0.3038918E+03  0.7818608E-02  0.1083336E+00
         21   -1    0    0  503  502  0.00000000000E+00  0.00000000000E+00  0.73966603085E+03  0.73966603085E+03  0.00000000000E+00 0.  1.
         21   -1    0    0  501  503 -0.00000000000E+00 -0.00000000000E+00 -0.13222726595E+03  0.13222726595E+03  0.00000000000E+00 0. -1.
          6    2    1    2  501    0 -0.39490592952E+02 -0.24708875955E+03  0.20029059488E+03  0.36395950274E+03  0.17244661554E+03 0.  0.
         24    2    3    3    0    0 -0.64405330412E+02 -0.25307725105E+03  0.19880228232E+03  0.33786522660E+03  0.80214850897E+02 0.  0.
         -6    2    1    2    0  502  0.39490592952E+02  0.24708875955E+03  0.40714817002E+03  0.50793379405E+03  0.17208935110E+03 0.  0.
        -24    2    5    5    0    0  0.39230689103E+02  0.78262340904E+02  0.25280146520E+03  0.27913820303E+03  0.79658738449E+02 0.  0.
          5    1    3    3  501    0  0.24914737460E+02  0.59884914986E+01  0.14883125611E+01  0.26094276143E+02  0.47000000000E+01 0. -1.
        -11    1    4    4    0    0 -0.30667664747E+02 -0.54314272170E+02  0.13034115014E+02  0.63721534638E+02  0.00000000000E+00 0.  1.
         12    1    4    4    0    0 -0.33737665665E+02 -0.19876297888E+03  0.18576816731E+03  0.27414369196E+03  0.00000000000E+00 0. -1.
         -5    1    5    5    0  502  0.25990384883E+00  0.16882641865E+03  0.15434670482E+03  0.22879559102E+03  0.47000000000E+01 0.  1.
         11    1    6    6    0    0  0.42277677243E+02  0.73451427613E+02  0.12390784847E+03  0.15011885000E+03  0.00000000000E+00 0. -1.
        -12    1    6    6    0    0 -0.30469881398E+01  0.48109132913E+01  0.12889361673E+03  0.12901935303E+03  0.00000000000E+00 0.  1.
</event>
<event>
12    1  0.1061634E+000  0.4548092E+03  0.7818608E-02  0.1026305E+00
         21   -1    0    0  501  502  0.00000000000E+00  0.00000000000E+00  0.48101874974E+03  0.48101874974E+03  0.00000000000E+00 0.  1.
         21   -1    0    0  502  503 -0.00000000000E+00 -0.00000000000E+00 -0.52441283054E+03  0.52441283054E+03  0.00000000000E+00 0.  1.
         -6    2    1    2    0  503  0.29212076574E+03 -0.30282900930E+03  0.19168796572E+03  0.49355414363E+03  0.17265997175E+03 0.  0.
        -24    2    3    3    0    0  0.16217489838E+03 -0.25408330369E+03  0.10166687326E+03  0.32806106418E+03  0.80180333222E+02 0.  0.
          6    2    1    2  501    0 -0.29212076574E+03  0.30282900930E+03 -0.23508204652E+03  0.51187743665E+03  0.17238036692E+03 0.  0.
         24    2    5    5    0    0 -0.93582090760E+02  0.75373812073E+02 -0.74165504159E+02  0.16972294550E+03  0.94162290557E+02 0.  0.
          5    1    5    5  501    0 -0.19853867498E+03  0.22745519723E+03 -0.16091654236E+03  0.34215449115E+03  0.47000000000E+01 0. -1.
        -13    1    6    6    0    0 -0.97082796416E+02  0.32773131462E+02 -0.26779968754E+02  0.10590710190E+03  0.00000000000E+00 0.  1.
         14    1    6    6    0    0  0.35007056558E+01  0.42600680611E+02 -0.47385535404E+02  0.63815843598E+02  0.00000000000E+00 0. -1.
         -5    1    3    3    0  503  0.12994586736E+03 -0.48745705617E+02  0.90021092455E+02  0.16549307945E+03  0.47000000000E+01 0.  1.
         11    1    4    4    0    0  0.16071088585E+02  0.13213290168E+01 -0.16469054284E+01  0.16209197888E+02  0.00000000000E+00 0. -1.
        -12    1    4    4    0    0  0.14610380980E+03 -0.25540463270E+03  0.10331377869E+03  0.31185186629E+03  0.00000000000E+00 0.  1.
</event>
<event>
12    1  0.1061634E+000  0.1842241E+03  0.7818608E-02  0.1163816E+00
         21   -1    0    0  501  502  0.00000000000E+00  0.00000000000E+00  0.62916379904E+03  0.62916379904E+03  0.00000000000E+00 0.  1.
         21   -1    0    0  502  503 -0.00000000000E+00 -0.00000000000E+00 -0.55934299457E+02  0.55934299457E+02  0.00000000000E+00 0.  1.
         -6    2    1    2    0  503 -0.88147316456E+00  0.67378513696E+02  0.22129689171E+03  0.28794241268E+03  0.17145809295E+03 0.  0.
        -24    2    3    3    0    0 -0.90599225448E+01  0.59061074266E+02  0.39415451037E+02  0.10562671041E+03  0.77673235297E+02 0.  0.
          6    2    1    2  501    0  0.88147316456E+00 -0.67378513696E+02  0.35193260787E+03  0.39715568582E+03  0.17127590954E+03 0.  0.
         24    2    5    5    0    0  0.91762041335E+01 -0.23879664884E+02  0.34090291882E+03  0.35127871501E+03  0.80792910833E+02 0.  0.
          5    1    5    5  501    0 -0.82947309690E+01 -0.43498848812E+02  0.11029689050E+02  0.45876970806E+02  0.47000000000E+01 0. -1.
        -13    1    6    6    0    0  0.39397934168E+02  0.18488549899E+01  0.23285179020E+03  0.23616852390E+03  0.00000000000E+00 0.  1.
         14    1    6    6    0    0 -0.30221730034E+02 -0.25728519874E+02  0.10805112862E+03  0.11511019111E+03  0.00000000000E+00 0. -1.
         -5    1    3    3    0  503  0.81784493802E+01  0.83174394301E+01  0.18188144067E+03  0.18231570227E+03  0.47000000000E+01 0.  1.
         13    1    4    4    0    0  0.72697312743E+01 -0.15477693290E+01  0.42146815418E+02  0.42797180194E+02  0.00000000000E+00 0. -1.
        -14    1    4    4    0    0 -0.16329653819E+02  0.60608843595E+02 -0.27313643806E+01  0.62829530216E+02  0.00000000000E+00 0.  1.
</event>
<event>
12    1  0.1061634E+000  0.1949608E+03  0.7818608E-02  0.1154323E+00
         21   -1    0    0  501  502  0.00000000000E+00  0.00000000000E+00  0.11991518493E+03  0.11991518493E+03  0.00000000000E+00 0. -1.
         21   -1    0    0  502  503 -0.00000000000E+00 -0.00000000000E+00 -0.11311185834E+04  0.11311185834E+04  0.00000000000E+00 0. -1.
         -6    2    1    2    0  503 -0.35361663346E+02 -0.81475750000E+02  0.26145217757E+02  0.19552353746E+03  0.17221247405E+03 0.  0.
        -24    2    3    3    0    0  0.76720367388E+01 -0.23601485119E+02 -0.42546436442E+02  0.95814143548E+02  0.82184308735E+02 0.  0.
          6    2    1    2  501    0  0.35361663346E+02  0.81475750000E+02 -0.10373486163E+04  0.10555102309E+04  0.17355388445E+03 0.  0.
         24    2    5    5    0    0  0.73869771126E+01  0.10976933680E+03 -0.55382555927E+03  0.57033011305E+03  0.80310727859E+02 0.  0.
          5    1    5    5  501    0  0.27974686233E+02 -0.28293586805E+02 -0.48352305698E+03  0.48518011785E+03  0.47000000000E+01 0. -1.
        -11    1    6    6    0    0  0.12041498138E+02  0.12225461883E+03 -0.50366024829E+03  0.51842534198E+03  0.00000000000E+00 0.  1.
         12    1    6    6    0    0 -0.46545210251E+01 -0.12485282022E+02 -0.50165310984E+02  0.51904771065E+02  0.00000000000E+00 0. -1.
         -5    1    3    3    0  503 -0.43033700085E+02 -0.57874264880E+02  0.68691654199E+02  0.99709393916E+02  0.47000000000E+01 0.  1.
         13    1    4    4    0    0 -0.19934412931E+02  0.23754494742E+02 -0.14292362609E+02  0.34145694725E+02  0.00000000000E+00 0. -1.
        -14    1    4    4    0    0  0.27606449670E+02 -0.47355979861E+02 -0.28254073833E+02  0.61668448822E+02  0.00000000000E+00 0.  1.
</event>
<event>
12    1  0.1061634E+000  0.3032458E+03  0.7818608E-02  0.1083650E+00
         21   -1    0    0  503  502  0.00000000000E+00  0.00000000000E+00  0.39080279916E+03  0.39080279916E+03  0.00000000000E+00 0. -1.
         21   -1    0    0  501  503 -0.00000000000E+00 -0.00000000000E+00 -0.30225105819E+03  0.30225105819E+03  0.00000000000E+00 0. -1.
          6    2    1    2  501    0 -0.13705718033E+03  0.20817458516E+03  0.20750786101E+03  0.36731070604E+03  0.17244220424E+03 0.  0.
         24    2    3    3    0    0 -0.60779256317E+02  0.16825029409E+03  0.20408120928E+03  0.28101990321E+03  0.72943584809E+02 0.  0.
         -6    2    1    2    0  502  0.13705718033E+03 -0.20817458516E+03 -0.11895612003E+03  0.32574315131E+03  0.17273307021E+03 0.  0.
        -24    2    5    5    0    0  0.42910535516E+02 -0.20807002707E+02 -0.28015912981E+02  0.97133411919E+02  0.79848374504E+02 0.  0.
          5    1    3    3  501    0 -0.76277924017E+02  0.39924291077E+02  0.34266517296E+01  0.86290802826E+02  0.47000000000E+01 0. -1.
        -13    1    4    4    0    0 -0.29047179210E+02  0.73174055336E+02  0.14412077387E+03  0.16422234456E+03  0.00000000000E+00 0.  1.
         14    1    4    4    0    0 -0.31732077107E+02  0.95076238749E+02  0.59960435412E+02  0.11679755865E+03  0.00000000000E+00 0. -1.
         -5    1    5    5    0  502  0.94146644818E+02 -0.18736758245E+03 -0.90940207054E+02  0.22860973939E+03  0.47000000000E+01 0.  1.
         11    1    6    6    0    0  0.27066813887E+02  0.46096266536E+01  0.24421095065E+02  0.36745761062E+02  0.00000000000E+00 0. -1.
        -12    1    6    6    0    0  0.15843721630E+02 -0.25416629361E+02 -0.52437008046E+02  0.60387650857E+02  0.00000000000E+00 0.  1.
</event>
<event>
12    1  0.1061634E+000  0.2317114E+03  0.7818608E-02  0.1127465E+00
         21   -1    0    0  503  502  0.00000000000E+00  0.00000000000E+00  0.49994273765E+02  0.49994273765E+02  0.00000000000E+00 0. -1.
         21   -1    0    0  501  503 -0.00000000000E+00 -0.00000000000E+00 -0.10400823437E+04  0.10400823437E+04  0.00000000000E+00 0. -1.
          6    2    1    2  501    0  0.13069202962E+03  0.44743638575E+02 -0.41135928391E+03  0.46668492605E+03  0.17174387890E+03 0.  0.
         24    2    3    3    0    0  0.15103002869E+03  0.62992472702E+02 -0.39435857080E+03  0.43416157445E+03  0.78736707974E+02 0.  0.
         -6    2    1    2    0  502 -0.13069202962E+03 -0.44743638575E+02 -0.57872878603E+03  0.62339169142E+03  0.18603169987E+03 0.  0.
        -24    2    5    5    0    0 -0.47604285312E+02 -0.35324572275E+02 -0.11618472424E+03  0.15332638621E+03  0.80598369561E+02 0.  0.
          5    1    3    3  501    0 -0.20337999065E+02 -0.18248834127E+02 -0.17000713112E+02  0.32523351600E+02  0.47000000000E+01 0. -1.
        -13    1    4    4    0    0  0.83590604799E+02  0.70251883136E+02 -0.19380048471E+03  0.22244402480E+03  0.00000000000E+00 0.  1.
         14    1    4    4    0    0  0.67439423888E+02 -0.72594104334E+01 -0.20055808609E+03  0.21171754965E+03  0.00000000000E+00 0. -1.
         -5    1    5    5    0  502 -0.83087744310E+02 -0.94190662998E+01 -0.46254406179E+03  0.47006530521E+03  0.47000000000E+01 0.  1.
         11    1    6    6    0    0 -0.62449737219E+02 -0.49370003547E+02 -0.91764654218E+02  0.12148299755E+03  0.00000000000E+00 0. -1.
        -12    1    6    6    0    0  0.14845451907E+02  0.14045431272E+02 -0.24420070020E+02  0.31843388666E+02  0.00000000000E+00 0.  1.
</event>
<event>
12    1  0.1061634E+000  0.2739019E+03  0.7818608E-02  0.1099302E+00
         21   -1    0    0  501  502  0.00000000000E+00  0.00000000000E+00  0.25828934627E+03  0.25828934627E+03  0.00000000000E+00 0.  1.
         21   -1    0    0  502  503 -0.00000000000E+00 -0.00000000000E+00 -0.30031540274E+03  0.30031540274E+03  0.00000000000E+00 0. -1.
         -6    2    1    2    0  503  0.14709308430E+03 -0.15460997019E+03  0.33996505747E+02  0.27434843150E+03  0.16902863998E+03 0.  0.
        -24    2    3    3    0    0  0.31493583049E+02 -0.11894913122E+02  0.26174995028E+02  0.90462330252E+02  0.79780750175E+02 0.  0.
          6    2    1    2  501    0 -0.14709308430E+03  0.15460997019E+03 -0.76022562213E+02  0.28425631751E+03  0.17170208429E+03 0.  0.
         24    2    5    5    0    0 -0.45989065352E+02  0.13973542748E+03 -0.74535742028E+02  0.18194514851E+03  0.76860109297E+02 0.  0.
          5    1    5    5  501    0 -0.10110401894E+03  0.14874542708E+02 -0.14868201852E+01  0.10231116900E+03  0.47000000000E+01 0. -1.
        -13    1    6    6    0    0 -0.52663244211E+02  0.43643632025E+02 -0.42059431926E+02  0.80294331812E+02  0.00000000000E+00 0.  1.
         14    1    6    6    0    0  0.66741788588E+01  0.96091795459E+02 -0.32476310102E+02  0.10165081670E+03  0.00000000000E+00 0. -1.
         -5    1    3    3    0  503  0.11559950125E+03 -0.14271505707E+03  0.78215107189E+01  0.18388610125E+03  0.47000000000E+01 0.  1.
         13    1    4    4    0    0  0.49515675106E+02 -0.21018170513E+02  0.39082645168E+02  0.66490741658E+02  0.00000000000E+00 0. -1.
        -14    1    4    4    0    0 -0.18022092058E+02  0.91232573909E+01 -0.12907650140E+02  0.23971588593E+02  0.00000000000E+00 0.  1.
</event>
<event>
12    1  0.1061634E+000  0.2932969E+03  0.7818608E-02  0.1088723E+00
         21   -1    0    0  503  502  0.00000000000E+00  0.00000000000E+00  0.13938491427E+04  0.13938491427E+04  0.00000000000E+00 0. -1.
         21   -1    0    0  501  503 -0.00000000000E+00 -0.00000000000E+00 -0.62284911136E+02  0.62284911136E+02  0.00000000000E+00 0. -1.
          6    2    1    2  501    0 -0.23417969652E+03 -0.66203333239E+00  0.74241728198E+03  0.79801764579E+03  0.17552257367E+03 0.  0.
         24    2    3    3    0    0 -0.45173359609E+02 -0.16518857419E+02  0.33786023152E+03  0.35118061584E+03  0.82853991031E+02 0.  0.
         -6    2    1    2    0  502  0.23417969652E+03  0.66203333239E+00  0.58914694957E+03  0.65811640803E+03  0.17658570094E+03 0.  0.
        -24    2    5    5    0    0  0.15360101889E+03 -0.66421664190E+02  0.31335110886E+03  0.36302560588E+03  0.74790123808E+02 0.  0.
          5    1    3    3  501    0 -0.18900633691E+03  0.15856824087E+02  0.40455705046E+03  0.44683702996E+03  0.47000000000E+01 0. -1.
        -11    1    4    4    0    0 -0.54747440045E+02 -0.40565251479E+02  0.21179308285E+03  0.22248400338E+03  0.00000000000E+00 0.  1.
         12    1    4    4    0    0  0.95740804364E+01  0.24046394060E+02  0.12606714867E+03  0.12869661245E+03  0.00000000000E+00 0. -1.
         -5    1    5    5    0  502  0.80578677625E+02  0.67083697522E+02  0.27579584071E+03  0.29509080215E+03  0.47000000000E+01 0.  1.
         13    1    6    6    0    0  0.12858696490E+02 -0.11562634252E+02  0.25756282473E+01  0.17483547899E+02  0.00000000000E+00 0. -1.
        -14    1    6    6    0    0  0.14074232240E+03 -0.54859029938E+02  0.31077548061E+03  0.34554205798E+03  0.00000000000E+00 0.  1.
</event>
<event>
12    1  0.1061634E+000  0.2034179E+03  0.7818608E-02  0.1146931E+00
         21   -1    0    0  503  502  0.00000000000E+00  0.00000000000E+00  0.43721130104E+03  0.43721130104E+03  0.00000000000E+00 0. -1.
         21   -1    0    0  501  503 -0.00000000000E+00 -0.00000000000E+00 -0.30748123506E+03  0.30748123506E+03  0.00000000000E+00 0. -1.
          6    2    1    2  501    0  0.98400511330E+02  0.45722556151E+02  0.37473415550E+03  0.42638541687E+03  0.17206284796E+03 0.  0.
         24    2    3    3    0    0  0.85515344378E+02  0.94491161247E+02  0.26499328750E+03  0.30551543516E+03  0.82926383133E+02 0.  0.
         -6    2    1    2    0  502 -0.98400511330E+02 -0.45722556151E+02 -0.24500408952E+03  0.31830711922E+03  0.17181154064E+03 0.  0.
        -24    2    5    5    0    0 -0.42337010038E+02 -0.87953618558E+02 -0.11158742776E+03  0.16748048217E+03  0.77908256548E+02 0.  0.
          5    1    3    3  501    0  0.12885166953E+02 -0.48768605096E+02  0.10974086800E+03  0.12086998172E+03  0.47000000000E+01 0. -1.
        -11    1    4    4    0    0  0.38754891348E+02  0.43113427862E+02  0.41022911728E+02  0.71018226900E+02  0.00000000000E+00 0.  1.
         12    1    4    4    0    0  0.46760453030E+02  0.51377733385E+02  0.22397037577E+03  0.23449720826E+03  0.00000000000E+00 0. -1.
         -5    1    5    5    0  502 -0.56063501293E+02  0.42231062407E+02 -0.13341666176E+03  0.15082663705E+03  0.47000000000E+01 0.  1.
         13    1    6    6    0    0 -0.20929980111E+02  0.10096456727E+02 -0.31154952656E+02  0.38866869965E+02  0.00000000000E+00 0. -1.
        -14    1    6    6    0    0 -0.21407029927E+02 -0.98050075285E+02 -0.80432475100E+02  0.12861361220E+03  0.00000000000E+00 0.  1.
</event>
<event>
12    1  0.1061634E+000  0.2690328E+03  0.7818608E-02  0.1101897E+00
         21   -1    0    0  501  502  0.00000000000E+00  0.00000000000E+00  0.88474799531E+02  0.88474799531E+02  0.00000000000E+00 0. -1.
         21   -1    0    0  502  503 -0.00000000000E+00 -0.00000000000E+00 -0.81847795514E+03  0.81847795514E+03  0.00000000000E+00 0. -1.
         -6    2    1    2    0  503  0.20335565007E+03 -0.35538338997E+02 -0.38618504094E+03  0.47065652028E+03  0.17251718836E+03 0.  0.
        -24    2    3    3    0    0  0.49940527367E+02 -0.17434763957E+02 -0.23762877185E+03  0.25628535993E+03  0.80104464513E+02 0.  0.
          6    2    1    2  501    0 -0.20335565007E+03  0.35538338997E+02 -0.34381811467E+03  0.43629623440E+03  0.17183426380E+03 0.  0.
         24    2    5    5    0    0 -0.20567743698E+03  0.91501269708E+01 -0.34516284504E+03  0.40935877483E+03  0.77783571682E+02 0.  0.
          5    1    5    5  501    0  0.23217869036E+01  0.26388212026E+02  0.13447303704E+01  0.26937459571E+02  0.47000000000E+01 0. -1.
        -13    1    6    6    0    0 -0.11042410279E+03 -0.32394056357E+02 -0.16098625356E+03  0.19788742053E+03  0.00000000000E+00 0.  1.
         14    1    6    6    0    0 -0.95253334182E+02  0.41544183328E+02 -0.18417659148E+03  0.21147135430E+03  0.00000000000E+00 0. -1.
         -5    1    3    3    0  503  0.15341512271E+03 -0.18103575040E+02 -0.14855626909E+03  0.21437116035E+03  0.47000000000E+01 0.  1.
         11    1    4    4    0    0  0.20200712956E+02 -0.37498022612E+02 -0.51978604301E+02  0.67200787263E+02  0.00000000000E+00 0. -1.
        -12    1    4    4    0    0  0.29739814411E+02  0.20063258655E+02 -0.18565016755E+03  0.18908457266E+03  0.00000000000E+00 0.  1.
</event>
<event>
12    1  0.1061634E+000  0.3536310E+03  0.7818608E-02  0.1061158E+00
         21   -1    0    0  501  502  0.00000000000E+00  0.00000000000E+00  0.73829969215E+03  0.73829969215E+03  0.00000000000E+00 0.  1.
         21   -1    0    0  502  503 -0.00000000000E+00 -0.00000000000E+00 -0.20995889385E+03  0.20995889385E+03  0.00000000000E+00 0. -1.
         -6    2    1    2    0  503  0.27785978975E+03  0.13527421475E+03  0.55518821047E+02  0.35796258299E+03  0.17190024838E+03 0.  0.
        -24    2    3    3    0    0  0.12315713641E+03  0.10882808975E+03  0.79215317625E+02  0.19916736131E+03  0.79883276701E+02 0.  0.
          6    2    1    2  501    0 -0.27785978975E+03 -0.13527421475E+03  0.47282197725E+03  0.59029600301E+03  0.17141637339E+03 0.  0.
         24    2    5    5    0    0 -0.22688557003E+03 -0.40043889246E+02  0.32294048180E+03  0.40548870161E+03  0.83964024432E+02 0.  0.
          5    1    5    5  501    0 -0.50974219721E+02 -0.95230325502E+02  0.14988149545E+03  0.18480730140E+03  0.47000000000E+01 0. -1.
        -11    1    6    6    0    0  0.29674593805E+01  0.32831426586E+00  0.33739054856E+02  0.33870893522E+02  0.00000000000E+00 0.  1.
         12    1    6    6    0    0 -0.22985302941E+03 -0.40372203512E+02  0.28920142694E+03  0.37161780809E+03  0.00000000000E+00 0. -1.
         -5    1    3    3    0  503  0.15470265334E+03  0.26446124998E+02 -0.23696496578E+02  0.15879522168E+03  0.47000000000E+01 0.  1.
         11    1    4    4    0    0  0.10794653104E+03  0.78426518676E+02  0.25873227650E+02  0.13591392976E+03  0.00000000000E+00 0. -1.
        -12    1    4    4    0    0  0.15210605378E+02  0.30401571075E+02  0.53342089975E+02  0.63253431548E+02  0.00000000000E+00 0.  1.
</event>
<event>
12    1  0.1061634E+000  0.2681682E+03  0.7818608E-02  0.1102437E+00
         21   -1    0    0  501  502  0.00000000000E+00  0.00000000000E+00  0.48477034681E+03  0.48477034681E+03  0.00000000000E+00 0.  1.
         21   -1    0    0  502  503 -0.00000000000E+00 -0.00000000000E+00 -0.16366831812E+03  0.16366831812E+03  0.00000000000E+00 0.  1.
         -6    2    1    2    0  503 -0.19687347383E+03  0.60283079346E+02  0.59877136947E+02  0.27406899670E+03  0.17069074102E+03 0.  0.
        -24    2    3    3    0    0 -0.65376938466E+02 -0.82835689148E+01  0.70353287539E+02  0.12532571518E+03  0.80088627288E+02 0.  0.
          6    2    1    2  501    0  0.19687347383E+03 -0.60283079346E+02  0.26122489175E+03  0.37436966822E+03  0.17181673395E+03 0.  0.
         24    2    5    5    0    0  0.21742860544E+02 -0.74912436861E+01  0.57960963924E+02  0.10088105059E+03  0.79300960348E+02 0.  0.
          5    1    5    5  501    0  0.17513061329E+03 -0.52791835660E+02  0.20326392782E+03  0.27348861764E+03  0.47000000000E+01 0. -1.
        -11    1    6    6    0    0  0.24022664867E+02 -0.39344703335E+02  0.49920186422E+02  0.67949386460E+02  0.00000000000E+00 0.  1.
         12    1    6    6    0    0 -0.22798043232E+01  0.31853459649E+02  0.80407775020E+01  0.32931664128E+02  0.00000000000E+00 0. -1.
         -5    1    3    3    0  503 -0.13149653537E+03  0.68566648261E+02 -0.10476150592E+02  0.14874328152E+03  0.47000000000E+01 0.  1.
         11    1    4    4    0    0 -0.55706651457E+02  0.29870049610E+02  0.34135238253E+02  0.71837771199E+02  0.00000000000E+00 0. -1.
        -12    1    4    4    0    0 -0.96702870090E+01 -0.38153618524E+02  0.36218049285E+02  0.53487943982E+02  0.00000000000E+00 0.  1.
</event>
<event>
12    1  0.1061634E+000  0.1875646E+03  0.7818608E-02  0.1161485E+00
         21   -1    0    0  501  502  0.00000000000E+00  0.00000000000E+00  0.21436363318E+03  0.21436363318E+03  0.00000000000E+00 0. -1.
         21   -1    0    0  502  503 -0.00000000000E+00 -0.00000000000E+00 -0.16997101349E+03  0.16997101349E+03  0.00000000000E+00 0. -1.
         -6    2    1    2    0  503  0.98542837441E+00 -0.66883021442E+02 -0.21960743972E+02  0.18537926002E+03  0.17149019256E+03 0.  0.
        -24    2    3    3    0    0 -0.49881487181E+01  0.31246122303E+02 -0.30375328944E+01  0.85153562756E+02  0.78998106669E+02 0.  0.
          6    2    1    2  501    0 -0.98542837441E+00  0.66883021442E+02  0.66353363667E+02  0.19895538665E+03  0.17523175334E+03 0.  0.
         24    2    5    5    0    0 -0.35894110208E+02  0.11356028319E+02  0.93089318363E+02  0.12797113271E+03  0.79332484445E+02 0.  0.
          5    1    5    5  501    0  0.34908681834E+02  0.55526993123E+02 -0.26735954697E+02  0.70984253932E+02  0.47000000000E+01 0. -1.
        -11    1    6    6    0    0  0.18205647017E+02 -0.28665578495E+01  0.60472047915E+02  0.63218124903E+02  0.00000000000E+00 0.  1.
         12    1    6    6    0    0 -0.54099757226E+02  0.14222586169E+02  0.32617270448E+02  0.64753007812E+02  0.00000000000E+00 0. -1.
         -5    1    3    3    0  503  0.59735770925E+01 -0.98129143745E+02 -0.18923211077E+02  0.10022569727E+03  0.47000000000E+01 0.  1.
         13    1    4    4    0    0 -0.33645395089E+02 -0.65979663263E+01  0.10381037552E+02  0.35823340310E+02  0.00000000000E+00 0. -1.
        -14    1    4    4    0    0  0.28657246371E+02  0.37844088629E+02 -0.13418570446E+02  0.49330222446E+02  0.00000000000E+00 0.  1.
</event>
<event>
12    1  0.1061634E+000  0.1831468E+03  0.7818608E-02  0.1166618E+00
         21   -1    0    0  503  502  0.00000000000E+00  0.00000000000E+00  0.90602283598E+02  0.90602283598E+02  0.00000000000E+00 0.  1.
         21   -1    0    0  501  503 -0.00000000000E+00 -0.00000000000E+00 -0.42106703028E+03  0.42106703028E+03  0.00000000000E+00 0.  1.
          6    2    1    2  501    0 -0.33404705719E+02 -0.13392882446E+02 -0.61073403749E+02  0.18591716590E+03  0.17187201129E+03 0.  0.
         24    2    3    3    0    0  0.56598049718E+01  0.76796976584E+01 -0.97845807543E+02  0.12808647069E+03  0.82105607430E+02 0.  0.
         -6    2    1    2    0  502  0.33404705719E+02  0.13392882446E+02 -0.26939134294E+03  0.32575214798E+03  0.17957595218E+03 0.  0.
        -24    2    5    5    0    0  0.32897255313E+02  0.72463047512E+02 -0.12230309933E+03  0.16717540531E+03  0.81587041712E+02 0.  0.
          5    1    3    3  501    0 -0.39064510691E+02 -0.21072580104E+02  0.36772403794E+02  0.57830695211E+02  0.47000000000E+01 0. -1.
        -11    1    4    4    0    0  0.82860652663E+00 -0.31569733018E+02 -0.12390071491E+02  0.33924158106E+02  0.00000000000E+00 0.  1.
         12    1    4    4    0    0  0.48311984452E+01  0.39249430677E+02 -0.85455736052E+02  0.94162312583E+02  0.00000000000E+00 0. -1.
         -5    1    5    5    0  502  0.50745040611E+00 -0.59070165066E+02 -0.14708824361E+03  0.15857674267E+03  0.47000000000E+01 0.  1.
         13    1    6    6    0    0 -0.26174277990E+02  0.13099902847E+02 -0.22676951313E+02  0.37026266403E+02  0.00000000000E+00 0. -1.
        -14    1    6    6    0    0  0.59071533303E+02  0.59363144665E+02 -0.99626148014E+02  0.13014913891E+03  0.00000000000E+00 0.  1.
</event>
<event>
12    1  0.1061634E+000  0.4578148E+03  0.7818608E-02  0.1025442E+00
         21   -1    0    0  501  502  0.00000000000E+00  0.00000000000E+00  0.17778841826E+03  0.17778841826E+03  0.00000000000E+00 0.  1.
         21   -1    0    0  502  503 -0.00000000000E+00 -0.00000000000E+00 -0.15306522607E+04  0.15306522607E+04  0.00000000000E+00 0. -1.
         -6    2    1    2    0  503  0.42416335293E+03 -0.51203122230E+01 -0.10862509113E+04  0.11786512532E+04  0.17128037538E+03 0.  0.
        -24    2    3    3    0    0  0.24098176834E+03 -0.68643123528E+01 -0.45331972752E+03  0.51972598599E+03  0.80603931050E+02 0.  0.
          6    2    1    2  501    0 -0.42416335293E+03  0.51203122230E+01 -0.26661293119E+03  0.52978942573E+03  0.17220224441E+03 0.  0.
         24    2    5    5    0    0 -0.11292589546E+03 -0.31866729837E+02 -0.10866170259E+03  0.17878019961E+03  0.79920259174E+02 0.  0.
          5    1    5    5  501    0 -0.31123745746E+03  0.36987042060E+02 -0.15795122860E+03  0.35100922612E+03  0.47000000000E+01 0. -1.
        -13    1    6    6    0    0 -0.21848500459E+01 -0.18140139019E+02  0.55589323374E+01  0.19098165935E+02  0.00000000000E+00 0.  1.
         14    1    6    6    0    0 -0.11074104542E+03 -0.13726590818E+02 -0.11422063493E+03  0.15968203368E+03  0.00000000000E+00 0. -1.
         -5    1    3    3    0  503  0.18318158459E+03  0.17440001298E+01 -0.63293118374E+03  0.65892526725E+03  0.47000000000E+01 0.  1.
         11    1    4    4    0    0  0.20411668633E+03  0.71256503621E+01 -0.42387402360E+03  0.47051417026E+03  0.00000000000E+00 0. -1.
        -12    1    4    4    0    0  0.36865082009E+02 -0.13989962715E+02 -0.29445703916E+02  0.49211815729E+02  0.00000000000E+00 0.  1.
</event>
<event>
12    1  0.1061634E+000  0.5381895E+03  0.7818608E-02  0.1004462E+00
         21   -1    0    0  501  502  0.00000000000E+00  0.00000000000E+00  0.10633300397E+04  0.10633300397E+04  0.00000000000E+00 0.  1.
         21   -1    0    0  502  503 -0.00000000000E+00 -0.00000000000E+00 -0.27099616203E+03  0.27099616203E+03  0.00000000000E+00 0.  1.
         -6    2    1    2    0  503  0.25473411538E+03  0.43722090398E+03  0.41829234979E+03  0.68162777208E+03  0.18329304778E+03 0.  0.
        -24    2    3    3    0    0  0.26761035157E+03  0.41064134146E+03  0.35210046378E+03  0.60899357645E+03  0.81589386413E+02 0.  0.
          6    2    1    2  501    0 -0.25473411538E+03 -0.43722090398E+03  0.37404152791E+03  0.65269842968E+03  0.17336835665E+03 0.  0.
         24    2    5    5    0    0 -0.22725951449E+03 -0.33435694185E+03  0.22474191715E+03  0.46926366696E+03  0.79107574358E+02 0.  0.
          5    1    5    5  501    0 -0.27474600891E+02 -0.10286396214E+03  0.14929961076E+03  0.18343476272E+03  0.47000000000E+01 0. -1.
        -13    1    6    6    0    0 -0.12114553760E+03 -0.16485756215E+03  0.69372833540E+02  0.21602510759E+03  0.00000000000E+00 0.  1.
         14    1    6    6    0    0 -0.10611397689E+03 -0.16949937970E+03  0.15536908361E+03  0.25323855937E+03  0.00000000000E+00 0. -1.
         -5    1    3    3    0  503 -0.12876236193E+02  0.26579562521E+02  0.66191886004E+02  0.72634195632E+02  0.47000000000E+01 0.  1.
         11    1    4    4    0    0  0.39806491735E+02  0.45753126107E+02  0.78487517794E+02  0.99187679590E+02  0.00000000000E+00 0. -1.
        -12    1    4    4    0    0  0.22780385983E+03  0.36488821536E+03  0.27361294599E+03  0.50980589686E+03  0.00000000000E+00 0.  1.
</event>
<event>
12    1  0.1061634E+000  0.2315627E+03  0.7818608E-02  0.1125638E+00
         21   -1    0    0  501  502  0.00000000000E+00  0.00000000000E+00  0.26129452039E+03  0.26129452039E+03  0.00000000000E+00 0.  1.
         21   -1    0    0  502  503 -0.00000000000E+00 -0.00000000000E+00 -0.20483178733E+03  0.20483178733E+03  0.00000000000E+00 0.  1.
         -6    2    1    2    0  503 -0.15183003721E+03  0.29320428960E+02  0.33096698300E+02  0.23338773938E+03  0.17164614094E+03 0.  0.
        -24    2    3    3    0    0 -0.35140956549E+02 -0.21248129899E+02 -0.24599237028E+02  0.93657887004E+02  0.80500357045E+02 0.  0.
          6    2    1    2  501    0  0.15183003721E+03 -0.29320428960E+02  0.23366034758E+02  0.23273856834E+03  0.17236363264E+03 0.  0.
         24    2    5    5    0    0  0.78747594086E+02 -0.55492149124E+02 -0.40744363515E+02  0.13195049565E+03  0.80437975827E+02 0.  0.
          5    1    5    5  501    0  0.73082443129E+02  0.26171720164E+02  0.64110398273E+02  0.10078807269E+03  0.47000000000E+01 0. -1.
        -11    1    6    6    0    0  0.91726360409E+02 -0.35439304033E+02 -0.44206999690E+02  0.10781432319E+03  0.00000000000E+00 0.  1.
         12    1    6    6    0    0 -0.12978766323E+02 -0.20052845091E+02  0.34626361743E+01  0.24136172456E+02  0.00000000000E+00 0. -1.
         -5    1    3    3    0  503 -0.11668908067E+03  0.50568558859E+02  0.57695935329E+02  0.13972985238E+03  0.47000000000E+01 0.  1.
         13    1    4    4    0    0  0.15533221872E+02 -0.69974116343E+01 -0.35973003043E+02  0.39803287543E+02  0.00000000000E+00 0. -1.
        -14    1    4    4    0    0 -0.50674178421E+02 -0.14250718264E+02  0.11373766015E+02  0.53854599461E+02  0.00000000000E+00 0.  1.
</event>
<event>
12    1  0.1061634E+000  0.2790541E+03  0.7818608E-02  0.1096366E+00
         21   -1    0    0  503  502  0.00000000000E+00  0.00000000000E+00  0.68344742898E+03  0.68344742898E+03  0.00000000000E+00 0. -1.
         21   -1    0    0  501  503 -0.00000000000E+00 -0.00000000000E+00 -0.11551194643E+03  0.11551194643E+03  0.00000000000E+00 0. -1.
          6    2    1    2  501    0  0.17107218588E+03  0.13544937399E+03  0.33771635606E+03  0.43809076086E+03  0.17395100433E+03 0.  0.
         24    2    3    3    0    0  0.18159988238E+02  0.19958778068E+02  0.14050464088E+03  0.16307300046E+03  0.78250312295E+02 0.  0.
         -6    2    1    2    0  502 -0.17107218588E+03 -0.13544937399E+03  0.23021912649E+03  0.36086861456E+03  0.17208452887E+03 0.  0.
        -24    2    5    5    0    0 -0.32578122854E+02 -0.60181847345E+02  0.15294895416E+03  0.18525945878E+03  0.79022121277E+02 0.  0.
          5    1    3    3  501    0  0.15291219764E+03  0.11549059592E+03  0.19721171518E+03  0.27501776040E+03  0.47000000000E+01 0. -1.
        -11    1    4    4    0    0  0.22636349059E+02  0.45714776152E+02  0.61765437363E+02  0.80107517188E+02  0.00000000000E+00 0.  1.
         12    1    4    4    0    0 -0.44763608209E+01 -0.25755998084E+02  0.78739203517E+02  0.82965483269E+02  0.00000000000E+00 0. -1.
         -5    1    5    5    0  502 -0.13849406302E+03 -0.75267526647E+02  0.77270172333E+02  0.17560915578E+03  0.47000000000E+01 0.  1.
         11    1    6    6    0    0 -0.53456982210E+02 -0.63330020826E+02  0.11379751244E+03  0.14077717970E+03  0.00000000000E+00 0. -1.
        -12    1    6    6    0    0  0.20878859355E+02  0.31481734816E+01  0.39151441716E+02  0.44482279086E+02  0.00000000000E+00 0.  1.
</event>
<event>
12    1  0.1061634E+000  0.2958029E+03  0.7818608E-02  0.1087408E+00
         21   -1    0    0  503  502  0.00000000000E+00  0.00000000000E+00  0.69527869653E+02  0.69527869653E+02  0.00000000000E+00 0.  1.
         21   -1    0    0  501  503 -0.00000000000E+00 -0.00000000000E+00 -0.12587553599E+04  0.12587553599E+04  0.00000000000E+00 0.  1.
          6    2    1    2  501    0 -0.19529850982E+03  0.14097981777E+03 -0.62115372298E+03  0.68799076123E+03  0.17170475533E+03 0.  0.
         24    2    3    3    0    0 -0.14361539026E+03  0.40802336387E+02 -0.46830667617E+03  0.49801449338E+03  0.80106689508E+02 0.  0.
         -6    2    1    2    0  502  0.19529850982E+03 -0.14097981777E+03 -0.56807376730E+03  0.64029246836E+03  0.17102579627E+03 0.  0.
        -24    2    5    5    0    0  0.18497595513E+03 -0.67643811839E+02 -0.48235027335E+03  0.52691111047E+03  0.78624060488E+02 0.  0.
          5    1    3    3  501    0 -0.51683119560E+02  0.10017748138E+03 -0.15284704682E+03  0.18997626784E+03  0.47000000000E+01 0. -1.
        -11    1    4    4    0    0 -0.66063520172E+01 -0.96135578966E+01 -0.11701391220E+03  0.11759387753E+03  0.00000000000E+00 0.  1.
         12    1    4    4    0    0 -0.13700903825E+03  0.50415894284E+02 -0.35129276396E+03  0.38042061586E+03  0.00000000000E+00 0. -1.
         -5    1    5    5    0  502  0.10322554698E+02 -0.73336005929E+02 -0.85723493952E+02  0.11338135789E+03  0.47000000000E+01 0.  1.
         11    1    6    6    0    0  0.17431857106E+03 -0.56121441853E+02 -0.36345333228E+03  0.40698268415E+03  0.00000000000E+00 0. -1.
        -12    1    6    6    0    0  0.10657384064E+02 -0.11522369986E+02 -0.11889694107E+03  0.11992842633E+03  0.00000000000E+00 0.  1.
</event>
<event>
12    1  0.1061634E+000  0.2089803E+03  0.7818608E-02  0.1142952E+00
         21   -1    0    0  503  502  0.00000000000E+00  0.00000000000E+00  0.66344942524E+02  0.66344942524E+02  0.00000000000E+00 0. -1.
         21   -1    0    0  501  503 -0.00000000000E+00 -0.00000000000E+00 -0.67552306777E+03  0.67552306777E+03  0.00000000000E+00 0. -1.
          6    2    1    2  501    0 -0.64153926503E+02 -0.99758306847E+02 -0.22943029096E+03  0.30841537691E+03  0.16856553690E+03 0.  0.
         24    2    3    3    0    0  0.24084345082E+02 -0.79564938580E+02 -0.10864940433E+03  0.15740584982E+03  0.77854180154E+02 0.  0.
         -6    2    1    2    0  502  0.64153926503E+02  0.99758306847E+02 -0.37974783429E+03  0.43345263339E+03  0.17206197046E+03 0.  0.
        -24    2    5    5    0    0  0.71636125628E+02  0.16885078625E+02 -0.29513525257E+03  0.31468675342E+03  0.80660368812E+02 0.  0.
          5    1    3    3  501    0 -0.88238271584E+02 -0.20193368267E+02 -0.12078088663E+03  0.15100952708E+03  0.47000000000E+01 0. -1.
        -11    1    4    4    0    0 -0.22509740259E+02 -0.42477367651E+02 -0.74770129040E+02  0.88890873354E+02  0.00000000000E+00 0.  1.
         12    1    4    4    0    0  0.46594085340E+02 -0.37087570929E+02 -0.33879275291E+02  0.68514976468E+02  0.00000000000E+00 0. -1.
         -5    1    5    5    0  502 -0.74821991253E+01  0.82873228222E+02 -0.84612581719E+02  0.11876587997E+03  0.47000000000E+01 0.  1.
         11    1    6    6    0    0  0.82305371940E+01 -0.79631825422E+01 -0.18392985894E+03  0.18428604676E+03  0.00000000000E+00 0. -1.
        -12    1    6    6    0    0  0.63405588434E+02  0.24848261167E+02 -0.11120539362E+03  0.13040070666E+03  0.00000000000E+00 0.  1.
</event>
<event>
12    1  0.1061634E+000  0.2080357E+03  0.7818608E-02  0.1143231E+00
         21   -1    0    0  503  502  0.00000000000E+00  0.00000000000E+00  0.12172072373E+03  0.12172072373E+03  0.00000000000E+00 0.  1.
         21   -1    0    0  501  503 -0.00000000000E+00 -0.00000000000E+00 -0.35471543750E+03  0.35471543750E+03  0.00000000000E+00 0.  1.
          6    2    1    2  501    0  0.97745768521E+02  0.62367815394E+02 -0.11722543674E+03  0.23835768138E+03  0.17212960696E+03 0.  0.
         24    2    3    3    0    0  0.12717628000E+03  0.67246498440E+02 -0.12566827859E+03  0.20699961810E+03  0.79752290874E+02 0.  0.
         -6    2    1    2    0  502 -0.97745768521E+02 -0.62367815394E+02 -0.11576927703E+03  0.23807847985E+03  0.17272769726E+03 0.  0.
        -24    2    5    5    0    0 -0.13121428735E+03 -0.60054577510E+02 -0.63521958572E+02  0.17580998775E+03  0.77784131337E+02 0.  0.
          5    1    3    3  501    0 -0.29430511483E+02 -0.48786830458E+01  0.84428418506E+01  0.31358063284E+02  0.47000000000E+01 0. -1.
        -13    1    4    4    0    0  0.12904424295E+02  0.19314553821E+02 -0.65004158078E+02  0.69029824881E+02  0.00000000000E+00 0.  1.
         14    1    4    4    0    0  0.11427185571E+03  0.47931944619E+02 -0.60664120516E+02  0.13796979322E+03  0.00000000000E+00 0. -1.
         -5    1    5    5    0  502  0.33468518827E+02 -0.23132378837E+01 -0.52247318461E+02  0.62268492100E+02  0.47000000000E+01 0.  1.
         11    1    6    6    0    0 -0.86697640852E+02 -0.51413158109E+02 -0.78816646510E+02  0.12795255966E+03  0.00000000000E+00 0. -1.
        -12    1    6    6    0    0 -0.44516646495E+02 -0.86414194015E+01  0.15294687937E+02  0.47857428092E+02  0.00000000000E+00 0.  1.
</event>
<event>
12    1  0.1061634E+000  0.2293014E+03  0.7818608E-02  0.1127380E+00
         21   -1    0    0  503  502  0.00000000000E+00  0.00000000000E+00  0.11204804662E+04  0.11204804662E+04  0.00000000000E+00 0.  1.
         21   -1    0    0  501  503 -0.00000000000E+00 -0.00000000000E+00 -0.59161802300E+02  0.59161802300E+02  0.00000000000E+00 0.  1.
          6    2    1    2  501    0 -0.14869348407E+03  0.11679717014E+02  0.80073388245E+03  0.83253481908E+03  0.17231745845E+03 0.  0.
         24    2    3    3    0    0 -0.58428945156E+02  0.27732680047E+02  0.63272573835E+03  0.64108192385E+03  0.80381154172E+02 0.  0.
         -6    2    1    2    0  502  0.14869348407E+03 -0.11679717014E+02  0.26058478150E+03  0.34710744947E+03  0.17416367340E+03 0.  0.
        -24    2    5    5    0    0  0.14903220554E+03 -0.33857136754E+02  0.27159682475E+03  0.32190213703E+03  0.80617905071E+02 0.  0.
          5    1    3    3  501    0 -0.90264538915E+02 -0.16052963033E+02  0.16800814410E+03  0.19145289523E+03  0.47000000000E+01 0. -1.
        -11    1    4    4    0    0  0.16935570046E+02  0.18451175156E+02  0.10646552081E+03  0.10937168975E+03  0.00000000000E+00 0.  1.
         12    1    4    4    0    0 -0.75364515202E+02  0.92815048905E+01  0.52626021754E+03  0.53171023410E+03  0.00000000000E+00 0. -1.
         -5    1    5    5    0  502 -0.33872146652E+00  0.22177419740E+02 -0.11012043245E+02  0.25205312436E+02  0.47000000000E+01 0.  1.
         11    1    6    6    0    0  0.58401508886E+02 -0.28202738228E+02  0.18649669690E+03  0.19745163620E+03  0.00000000000E+00 0. -1.
        -12    1    6    6    0    0  0.90630696652E+02 -0.56543985259E+01  0.85100127849E+02  0.12445050083E+03  0.00000000000E+00 0.  1.
</event>
<event>
12    1  0.1061634E+000  0.3463502E+03  0.7818608E-02  0.1064339E+00
         21   -1    0    0  503  502  0.00000000000E+00  0.00000000000E+00  0.49938982073E+03  0.49938982073E+03  0.00000000000E+00 0. -1.
         21   -1    0    0  501  503 -0.00000000000E+00 -0.00000000000E+00 -0.26218509170E+03  0.26218509170E+03  0.00000000000E+00 0. -1.
          6    2    1    2  501    0  0.84539648343E+02  0.28850133339E+03  0.44981433136E+01  0.34430903082E+03  0.16777515878E+03 0.  0.
         24    2    3    3    0    0  0.91056851210E+02  0.12888341858E+03  0.38337584295E+02  0.18094578396E+03  0.79808023560E+02 0.  0.
         -6    2    1    2    0  502 -0.84539648343E+02 -0.28850133339E+03  0.23270658571E+03  0.41726588160E+03  0.17198398008E+03 0.  0.
        -24    2    5    5    0    0  0.72154601958E+01 -0.21077559090E+03  0.14413273092E+03  0.26784128945E+03  0.80537566532E+02 0.  0.
          5    1    3    3  501    0 -0.65172028677E+01  0.15961791481E+03 -0.33839440982E+02  0.16336324687E+03  0.47000000000E+01 0. -1.
        -13    1    4    4    0    0 -0.15376278108E+00  0.41266416147E+02 -0.14689983405E+02  0.43803382940E+02  0.00000000000E+00 0.  1.
         14    1    4    4    0    0  0.91210613991E+02  0.87617002438E+02  0.53027567700E+02  0.13714240102E+03  0.00000000000E+00 0. -1.
         -5    1    5    5    0  502 -0.91755108538E+02 -0.77725742491E+02  0.88573854789E+02  0.14942459216E+03  0.47000000000E+01 0.  1.
         11    1    6    6    0    0  0.32962136960E+02 -0.10077948916E+03  0.10240964621E+03  0.14741351209E+03  0.00000000000E+00 0. -1.
        -12    1    6    6    0    0 -0.25746676764E+02 -0.10999610174E+03  0.41723084717E+02  0.12042777736E+03  0.00000000000E+00 0.  1.
</event>
<event>
12    1  0.1061634E+000  0.2999889E+03  0.7818608E-02  0.1085320E+00
         21   -1    0    0  503  502  0.00000000000E+00  0.00000000000E+00  0.55986655361E+03  0.55986655361E+03  0.00000000000E+00 0.  1.
         21   -1    0    0  501  503 -0.00000000000E+00 -0.00000000000E+00 -0.16541668763E+03  0.16541668763E+03  0.00000000000E+00 0.  1.
          6    2    1    2  501    0  0.12363757817E+03 -0.21254208231E+03  0.13405061552E+03  0.32804137939E+03  0.17082503207E+03 0.  0.
         24    2    3    3    0    0  0.42727395462E+01 -0.12674869758E+03  0.92519221585E+02  0.17521659002E+03  0.77830318088E+02 0.  0.
         -6    2    1    2    0  502 -0.12363757817E+03  0.21254208231E+03  0.26039925046E+03  0.39724186185E+03  0.17185150473E+03 0.  0.
        -24    2    5    5    0    0 -0.11169558619E+03  0.19539572195E+03  0.14228117099E+03  0.27719778851E+03  0.77066790568E+02 0.  0.
          5    1    3    3  501    0  0.11936483863E+03 -0.85793384729E+02  0.41531393938E+02  0.15282478937E+03  0.47000000000E+01 0. -1.
        -11    1    4    4    0    0 -0.26084855253E+02 -0.26605409406E+02  0.49784546599E+02  0.62183346350E+02  0.00000000000E+00 0.  1.
         12    1    4    4    0    0  0.30357594799E+02 -0.10014328817E+03  0.42734674986E+02  0.11303324367E+03  0.00000000000E+00 0. -1.
         -5    1    5    5    0  502 -0.11941991982E+02  0.17146360360E+02  0.11811807946E+03  0.12004407333E+03  0.47000000000E+01 0.  1.
         13    1    6    6    0    0 -0.48074443209E+01  0.81700950565E+02  0.48168724740E+02  0.94965166704E+02  0.00000000000E+00 0. -1.
        -14    1    6    6    0    0 -0.10688814187E+03  0.11369477138E+03  0.94112446251E+02  0.18223262181E+03  0.00000000000E+00 0.  1.
</event>
<event>
12    1  0.1061634E+000  0.1731061E+03  0.7818608E-02  0.1174772E+00
         21   -1    0    0  503  502  0.00000000000E+00  0.00000000000E+00  0.11563951980E+03  0.11563951980E+03  0.00000000000E+00 0. -1.
         21   -1    0    0  501  503 -0.00000000000E+00 -0.00000000000E+00 -0.25984935974E+03  0.25984935974E+03  0.00000000000E+00 0. -1.
          6    2    1    2  501    0  0.19050742083E+02  0.82906217979E+01 -0.58164139814E+02  0.18261652863E+03  0.17185477644E+03 0.  0.
         24    2    3    3    0    0  0.35895495886E+02 -0.10023858603E+02  0.24332687660E+02  0.96320628000E+02  0.85420251248E+02 0.  0.
         -6    2    1    2    0  502 -0.19050742083E+02 -0.82906217979E+01 -0.86045700126E+02  0.19287235091E+03  0.17135990211E+03 0.  0.
        -24    2    5    5    0    0  0.16732679191E+00 -0.14182206486E+02 -0.12524838141E+03  0.14856676254E+03  0.78636905499E+02 0.  0.
          5    1    3    3  501    0 -0.16844753803E+02  0.18314480401E+02 -0.82496827474E+02  0.86295900635E+02  0.47000000000E+01 0. -1.
        -13    1    4    4    0    0  0.60852370056E+02 -0.15541264091E+02  0.27468153341E+01  0.62865625150E+02  0.00000000000E+00 0.  1.
         14    1    4    4    0    0 -0.24956874170E+02  0.55174054875E+01  0.21585872326E+02  0.33455002850E+02  0.00000000000E+00 0. -1.
         -5    1    5    5    0  502 -0.19218068875E+02  0.58915846884E+01  0.39202681281E+02  0.44305588372E+02  0.47000000000E+01 0.  1.
         11    1    6    6    0    0  0.47999277202E+00  0.32435564209E+02 -0.62249976509E+02  0.70195126568E+02  0.00000000000E+00 0. -1.
        -12    1    6    6    0    0 -0.31266598010E+00 -0.46617770695E+02 -0.62998404898E+02  0.78371635968E+02  0.00000000000E+00 0.  1.
</event>
<event>
12    1  0.1061634E+000  0.4004882E+03  0.7818608E-02  0.1043780E+00
         21   -1    0    0  501  502  0.00000000000E+00  0.00000000000E+00  0.16528961039E+03  0.16528961039E+03  0.00000000000E+00 0.  1.
         21   -1    0    0  502  503 -0.00000000000E+00 -0.00000000000E+00 -0.10356081648E+04  0.10356081648E+04  0.00000000000E+00 0. -1.
         -6    2    1    2    0  503  0.25945383777E+03  0.24883245661E+03 -0.59222008913E+03  0.71492336494E+03  0.17651316768E+03 0.  0.
        -24    2    3    3    0    0  0.21527431991E+03  0.13429831266E+03 -0.47798519236E+03  0.54716877761E+03  0.80899675416E+02 0.  0.
          6    2    1    2  501    0 -0.25945383777E+03 -0.24883245661E+03 -0.27809846526E+03  0.48597441023E+03  0.17204210421E+03 0.  0.
         24    2    5    5    0    0 -0.12923442363E+03 -0.14038670272E+03 -0.70856964108E+02  0.21822694123E+03  0.78691333480E+02 0.  0.
          5    1    5    5  501    0 -0.13021941414E+03 -0.10844575389E+03 -0.20724150115E+03  0.26774746900E+03  0.47000000000E+01 0. -1.
        -13    1    6    6    0    0 -0.53399520402E+02 -0.36462102313E+02  0.11214951124E+02  0.65625976663E+02  0.00000000000E+00 0.  1.
         14    1    6    6    0    0 -0.75834903226E+02 -0.10392460041E+03 -0.82071915231E+02  0.15260096457E+03  0.00000000000E+00 0. -1.
         -5    1    3    3    0  503  0.44179517862E+02  0.11453414395E+03 -0.11423489677E+03  0.16775458733E+03  0.47000000000E+01 0.  1.
         13    1    4    4    0    0  0.14730906179E+03  0.12698931564E+03 -0.38947170349E+03  0.43533257837E+03  0.00000000000E+00 0. -1.
        -14    1    4    4    0    0  0.67965258123E+02  0.73089970268E+01 -0.88513488863E+02  0.11183619924E+03  0.00000000000E+00 0.  1.
</event>
<event>
12    1  0.1061634E+000  0.1724680E+03  0.7818608E-02  0.1175509E+00
         21   -1    0    0  503  502  0.00000000000E+00  0.00000000000E+00  0.24032579107E+04  0.24032579107E+04  0.00000000000E+00 0. -1.
         21   -1    0    0  501  503 -0.00000000000E+00 -0.00000000000E+00 -0.12328760456E+02  0.12328760456E+02  0.00000000000E+00 0. -1.
          6    2    1    2  501    0 -0.39291089722E+01 -0.35486163580E+01  0.12282521896E+04  0.12401876199E+04  0.17156299379E+03 0.  0.
         24    2    3    3    0    0 -0.27329489751E+02  0.24532733476E+02  0.11519369112E+04  0.11554394533E+04  0.82054414124E+02 0.  0.
         -6    2    1    2    0  502  0.39291089722E+01  0.35486163580E+01  0.11626769607E+04  0.11753990512E+04  0.17238672859E+03 0.  0.
        -24    2    5    5    0    0 -0.31368491941E+02  0.44593007751E+02  0.98753610372E+03  0.99202246475E+03  0.76866740559E+02 0.  0.
          5    1    3    3  501    0  0.23400380779E+02 -0.28081349834E+02  0.76315278356E+02  0.84748166586E+02  0.47000000000E+01 0. -1.
        -13    1    4    4    0    0  0.15058269723E+02 -0.21037163741E+02  0.45255825398E+03  0.45329712882E+03  0.00000000000E+00 0.  1.
         14    1    4    4    0    0 -0.42387759474E+02  0.45569897217E+02  0.69937865725E+03  0.70214232453E+03  0.00000000000E+00 0. -1.
         -5    1    5    5    0  502  0.35297600913E+02 -0.41044391393E+02  0.17514085694E+03  0.18337658647E+03  0.47000000000E+01 0.  1.
         13    1    6    6    0    0  0.17830975039E+02 -0.44104718656E+01  0.39578437701E+03  0.39621038479E+03  0.00000000000E+00 0. -1.
        -14    1    6    6    0    0 -0.49199466980E+02  0.49003479617E+02  0.59175172671E+03  0.59581207996E+03  0.00000000000E+00 0.  1.
</event>
<event>
12    1  0.1061634E+000  0.7338542E+03  0.7818608E-02  0.9661084E-01
         21   -1    0    0  501  502  0.00000000000E+00  0.00000000000E+00  0.11720687432E+04  0.11720687432E+04  0.00000000000E+00 0.  1.
         21   -1    0    0  502  503 -0.00000000000E+00 -0.00000000000E+00 -0.93150497151E+03  0.93150497151E+03  0.00000000000E+00 0.  1.
         -6    2    1    2    0  503  0.12887714799E+03 -0.70160819161E+03  0.86907466936E+03  0.11374677193E+04  0.17227494780E+03 0.  0.
        -24    2    3    3    0    0  0.57477249416E+02 -0.16740667205E+03  0.23486121855E+03  0.30517089709E+03  0.81491449882E+02 0.  0.
          6    2    1    2  501    0 -0.12887714799E+03  0.70160819161E+03 -0.62851089772E+03  0.96610599540E+03  0.17167257205E+03 0.  0.
         24    2    5    5    0    0 -0.18783775116E+02  0.22953469312E+03 -0.15759649779E+03  0.29026844038E+03  0.79875564526E+02 0.  0.
          5    1    5    5  501    0 -0.11009337288E+03  0.47207349849E+03 -0.47091439992E+03  0.67583755503E+03  0.47000000000E+01 0. -1.
        -11    1    6    6    0    0 -0.37535192969E+02  0.21747954505E+03 -0.14944142537E+03  0.26653139185E+03  0.00000000000E+00 0.  1.
         12    1    6    6    0    0  0.18751417852E+02  0.12055148077E+02 -0.81550724222E+01  0.23737048528E+02  0.00000000000E+00 0. -1.
         -5    1    3    3    0  503  0.71399898578E+02 -0.53420151956E+03  0.63421345081E+03  0.83229682218E+03  0.47000000000E+01 0.  1.
         11    1    4    4    0    0  0.22807247674E+02 -0.15663432701E+03  0.18462035005E+03  0.24318543665E+03  0.00000000000E+00 0. -1.
        -12    1    4    4    0    0  0.34670001742E+02 -0.10772345038E+02  0.50240868504E+02  0.61985460444E+02  0.00000000000E+00 0.  1.
</event>
<event>
12    1  0.1123108E+000  0.2113681E+03  0.7818608E-02  0.1142499E+00
         21   -1    0    0  501  502  0.00000000000E+00  0.00000000000E+00  0.84373288919E+02  0.84373288919E+02  0.00000000000E+00 0.  1.
         21   -1    0    0  502  503 -0.00000000000E+00 -0.00000000000E+00 -0.76544994927E+03  0.76544994927E+03  0.00000000000E+00 0.  1.
         -6    2    1    2    0  503  0.38121885080E+02  0.92029733273E+02 -0.87197990403E+02  0.21945164493E+03  0.17502224146E+03 0.  0.
        -24    2    3    3    0    0  0.76721878810E+02  0.94539816374E+02 -0.28186789401E+02  0.14873621609E+03  0.80647029154E+02 0.  0.
          6    2    1    2  501    0 -0.38121885080E+02 -0.92029733273E+02 -0.59387866995E+03  0.63037159326E+03  0.18642349915E+03 0.  0.
         24    2    5    5    0    0 -0.24358248157E+02 -0.11438435426E+03 -0.26499544060E+03  0.30040881455E+03  0.79660326214E+02 0.  0.
          5    1    5    5  501    0 -0.13763636924E+02  0.22354620982E+02 -0.32888322935E+03  0.32996277870E+03  0.47000000000E+01 0. -1.
        -11    1    6    6    0    0 -0.19099929772E+02 -0.50185530533E+01 -0.84598003385E+01  0.21483980400E+02  0.00000000000E+00 0.  1.
         12    1    6    6    0    0 -0.52583183845E+01 -0.10936580120E+03 -0.25653564026E+03  0.27892483415E+03  0.00000000000E+00 0. -1.
         -5    1    3    3    0  503 -0.38599993730E+02 -0.25100831007E+01 -0.59011201002E+02  0.70715428845E+02  0.47000000000E+01 0.  1.
         13    1    4    4    0    0  0.48946796457E+01  0.22777397671E+02  0.24952510271E+02  0.34137889541E+02  0.00000000000E+00 0. -1.
        -14    1    4    4    0    0  0.71827199164E+02  0.71762418703E+02 -0.53139299672E+02  0.11459832655E+03  0.00000000000E+00 0.  1.
</event>
<event>
12    1  0.1061634E+000  0.2145972E+03  0.7818608E-02  0.1138611E+00
         21   -1    0    0  501  502  0.00000000000E+00  0.00000000000E+00  0.17078949044E+04  0.17078949044E+04  0.00000000000E+00 0. -1.
         21   -1    0    0  502  503 -0.00000000000E+00 -0.00000000000E+00 -0.30099954144E+02  0.30099954144E+02  0.00000000000E+00 0. -1.
         -6    2    1    2    0  503 -0.10668859934E+03  0.57445869985E+02  0.11314307801E+04  0.11509976018E+04  0.17313978151E+03 0.  0.
        -24    2    3    3    0    0 -0.46535737697E+02 -0.36330846144E+02  0.61700856184E+03  0.62462819928E+03  0.77300172606E+02 0.  0.
          6    2    1    2  501    0  0.10668859934E+03 -0.57445869985E+02  0.54636417015E+03  0.58699725675E+03  0.17711433541E+03 0.  0.
         24    2    5    5    0    0  0.16996070572E+02  0.14518160760E+02  0.12350251482E+03  0.14875344221E+03  0.79844047969E+02 0.  0.
          5    1    5    5  501    0  0.89692528771E+02 -0.71964030745E+02  0.42286165533E+03  0.43824381454E+03  0.47000000000E+01 0. -1.
        -11    1    6    6    0    0  0.27821109555E+02 -0.37744544332E+01  0.51961259306E+01  0.28552764627E+02  0.00000000000E+00 0.  1.
         12    1    6    6    0    0 -0.10825038984E+02  0.18292615194E+02  0.11830638889E+03  0.12020067758E+03  0.00000000000E+00 0. -1.
         -5    1    3    3    0  503 -0.60152861646E+02  0.93776716129E+02  0.51442221825E+03  0.52636940250E+03  0.47000000000E+01 0.  1.
         13    1    4    4    0    0 -0.38272344849E+02 -0.33081335648E+02  0.16611397820E+03  0.17364619460E+03  0.00000000000E+00 0. -1.
        -14    1    4    4    0    0 -0.82633928472E+01 -0.32495104957E+01  0.45089458365E+03  0.45098200467E+03  0.00000000000E+00 0.  1.
</event>
<event>
12    1  0.1061634E+000  0.1770995E+03  0.7818608E-02  0.1171085E+00
         21   -1    0    0  503  502  0.00000000000E+00  0.00000000000E+00  0.87568440945E+02  0.87568440945E+02  0.00000000000E+00 0. -1.
         21   -1    0    0  501  503 -0.00000000000E+00 -0.00000000000E+00 -0.73602667531E+03  0.73602667531E+03  0.00000000000E+00 0. -1.
          6    2    1    2  501    0 -0.43087223521E+02  0.47787883650E+01 -0.26976630836E+02  0.17737253205E+03  0.16986444851E+03 0.  0.
         24    2    3    3    0    0  0.24255191874E+02  0.28797325719E+02  0.27293409494E+02  0.87488059949E+02  0.74105533736E+02 0.  0.
         -6    2    1    2    0  502  0.43087223521E+02 -0.47787883650E+01 -0.62148160353E+03  0.64622258420E+03  0.17171167451E+03 0.  0.
        -24    2    5    5    0    0 -0.99086302617E+01 -0.44611600001E+02 -0.21104674190E+03  0.23044129670E+03  0.80461718529E+02 0.  0.
          5    1    3    3  501    0 -0.67342415395E+02 -0.24018537354E+02 -0.54270040330E+02  0.89884472103E+02  0.47000000000E+01 0. -1.
        -11    1    4    4    0    0 -0.83943409028E+01 -0.70026651121E+01  0.36558414402E+02  0.38157829359E+02  0.00000000000E+00 0.  1.
         12    1    4    4    0    0  0.32649532777E+02  0.35799990831E+02 -0.92650049078E+01  0.49330230589E+02  0.00000000000E+00 0. -1.
         -5    1    5    5    0  502  0.52995853782E+02  0.39832811636E+02 -0.41043486162E+03  0.41578128750E+03  0.47000000000E+01 0.  1.
         11    1    6    6    0    0 -0.34583054170E+02  0.61619460284E+01 -0.97517503333E+02  0.10365143834E+03  0.00000000000E+00 0. -1.
        -12    1    6    6    0    0  0.24674423908E+02 -0.50773546029E+02 -0.11352923857E+03  0.12678985836E+03  0.00000000000E+00 0.  1.
</event>
<event>
12    1  0.1061634E+000  0.4093050E+03  0.7818608E-02  0.1040616E+00
         21   -1    0    0  503  502  0.00000000000E+00  0.00000000000E+00  0.14881669195E+04  0.14881669195E+04  0.00000000000E+00 0. -1.
         21   -1    0    0  501  503 -0.00000000000E+00 -0.00000000000E+00 -0.11399256678E+03  0.11399256678E+03  0.00000000000E+00 0. -1.
          6    2    1    2  501    0 -0.25466134076E+03  0.27040741754E+03  0.59667394831E+03  0.72356784073E+03  0.17192454625E+03 0.  0.
         24    2    3    3    0    0 -0.25393876518E+03  0.25309694310E+03  0.60158461164E+03  0.70495657384E+03  0.80726494813E+02 0.  0.
         -6    2    1    2    0  502  0.25466134076E+03 -0.27040741754E+03  0.77750040443E+03  0.87859164557E+03  0.17159204772E+03 0.  0.
        -24    2    5    5    0    0  0.11477167187E+03 -0.15749263391E+03  0.28433895045E+03  0.35366386243E+03  0.79076054813E+02 0.  0.
          5    1    3    3  501    0 -0.72257557864E+00  0.17310474441E+02 -0.49106633320E+01  0.18611266889E+02  0.47000000000E+01 0. -1.
        -11    1    4    4    0    0 -0.88612092934E+02  0.13323928093E+03  0.31164499947E+03  0.35032472749E+03  0.00000000000E+00 0.  1.
         12    1    4    4    0    0 -0.16532667225E+03  0.11985766217E+03  0.28993961218E+03  0.35463184635E+03  0.00000000000E+00 0. -1.
         -5    1    5    5    0  502  0.13988966889E+03 -0.11291478363E+03  0.49316145398E+03  0.52492778314E+03  0.47000000000E+01 0.  1.
         13    1    6    6    0    0  0.14516972191E+02  0.77153764334E+01  0.30348695570E+02  0.34515400011E+02  0.00000000000E+00 0. -1.
        -14    1    6    6    0    0  0.10025469968E+03 -0.16520801034E+03  0.25399025488E+03  0.31914846242E+03  0.00000000000E+00 0.  1.
</event>
<event>
12    1  0.1061634E+000  0.1763699E+03  0.7818608E-02  0.1171628E+00
         21   -1    0    0  501  502  0.00000000000E+00  0.00000000000E+00  0.32667749232E+02  0.32667749232E+02  0.00000000000E+00 0.  1.
         21   -1    0    0  502  503 -0.00000000000E+00 -0.00000000000E+00 -0.12625790906E+04  0.12625790906E+04  0.00000000000E+00 0.  1.
         -6    2    1    2    0  503 -0.31272917785E+02  0.20120782472E+02 -0.94039115626E+03  0.95678725479E+03  0.17240499665E+03 0.  0.
        -24    2    3    3    0    0  0.14368079783E+02 -0.44908724898E+02 -0.42186125427E+03  0.43218522777E+03  0.81202943051E+02 0.  0.
          6    2    1    2  501    0  0.31272917785E+02 -0.20120782472E+02 -0.28952018510E+03  0.33845958504E+03  0.17131874343E+03 0.  0.
         24    2    5    5    0    0 -0.45063136995E+02 -0.23220212795E+02 -0.19534301878E+03  0.21709967245E+03  0.80021923204E+02 0.  0.
          5    1    5    5  501    0  0.76336054781E+02  0.30994303229E+01 -0.94177166313E+02  0.12135991258E+03  0.47000000000E+01 0. -1.
        -11    1    6    6    0    0 -0.94221472149E+01 -0.49459184957E+02 -0.10942371950E+03  0.12045139361E+03  0.00000000000E+00 0.  1.
         12    1    6    6    0    0 -0.35640989780E+02  0.26238972162E+02 -0.85919299285E+02  0.96648278838E+02  0.00000000000E+00 0. -1.
         -5    1    3    3    0  503 -0.45640997568E+02  0.65029507370E+02 -0.51852990200E+03  0.52460202702E+03  0.47000000000E+01 0.  1.
         11    1    4    4    0    0 -0.28913175706E+02 -0.26124965842E+02 -0.27964045614E+03  0.28234246985E+03  0.00000000000E+00 0. -1.
        -12    1    4    4    0    0  0.43281255489E+02 -0.18783759056E+02 -0.14222079812E+03  0.14984275792E+03  0.00000000000E+00 0.  1.
</event>
<event>
12    1  0.1061634E+000  0.2264035E+03  0.7818608E-02  0.1129986E+00
         21   -1    0    0  501  502  0.00000000000E+00  0.00000000000E+00  0.79157160192E+03  0.79157160192E+03  0.00000000000E+00 0. -1.
         21   -1    0    0  502  503 -0.00000000000E+00 -0.00000000000E+00 -0.86399852406E+02  0.86399852406E+02  0.00000000000E+00 0. -1.
         -6    2    1    2    0  503  0.13111576721E+03  0.52512563412E+02  0.12919310404E+03  0.26067109790E+03  0.17694532890E+03 0.  0.
        -24    2    3    3    0    0  0.64399116136E+02 -0.38825286703E+02  0.43802967628E+02  0.11887095759E+03  0.80975030346E+02 0.  0.
          6    2    1    2  501    0 -0.13111576721E+03 -0.52512563412E+02  0.57597864548E+03  0.61730035643E+03  0.17134589659E+03 0.  0.
         24    2    5    5    0    0 -0.14248827915E+03 -0.88203656423E+02  0.46166390709E+03  0.49691290874E+03  0.75538606448E+02 0.  0.
          5    1    5    5  501    0  0.11372511948E+02  0.35691093011E+02  0.11431473839E+03  0.12038744769E+03  0.47000000000E+01 0. -1.
        -11    1    6    6    0    0 -0.68744329069E+02 -0.13015705507E+01  0.20053041318E+03  0.21199038534E+03  0.00000000000E+00 0.  1.
         12    1    6    6    0    0 -0.73743950085E+02 -0.86902085872E+02  0.26113349391E+03  0.28492252341E+03  0.00000000000E+00 0. -1.
         -5    1    3    3    0  503  0.66716651070E+02  0.91337850115E+02  0.85390136409E+02  0.14180014030E+03  0.47000000000E+01 0.  1.
         13    1    4    4    0    0  0.14272614060E+02 -0.33956049627E+02 -0.16451628153E+02  0.40340759626E+02  0.00000000000E+00 0. -1.
        -14    1    4    4    0    0  0.50126502076E+02 -0.48692370762E+01  0.60254595781E+02  0.78530197968E+02  0.00000000000E+00 0.  1.
</event>
<event>
12    1  0.1061634E+000  0.2526841E+03  0.7818608E-02  0.1111759E+00
         21   -1    0    0  503  502  0.00000000000E+00  0.00000000000E+00  0.10251697036E+03  0.10251697036E+03  0.00000000000E+00 0. -1.
         21   -1    0    0  501  503 -0.00000000000E+00 -0.00000000000E+00 -0.62429993928E+03  0.62429993928E+03  0.00000000000E+00 0. -1.
          6    2    1    2  501    0 -0.13632092147E+03 -0.12484561580E+03 -0.28829201976E+03  0.38277146737E+03  0.17097334926E+03 0.  0.
         24    2    3    3    0    0  0.35770041572E+01 -0.52803584170E+02 -0.10876213225E+03  0.14399426070E+03  0.78128946249E+02 0.  0.
         -6    2    1    2    0  502  0.13632092147E+03  0.12484561580E+03 -0.23349094915E+03  0.34404544227E+03  0.17227716505E+03 0.  0.
        -24    2    5    5    0    0  0.77850833302E+02  0.14986136178E+03 -0.18807891950E+03  0.26575827095E+03  0.82064600267E+02 0.  0.
          5    1    3    3  501    0 -0.13989792563E+03 -0.72042031627E+02 -0.17952988751E+03  0.23877720667E+03  0.47000000000E+01 0. -1.
        -11    1    4    4    0    0 -0.30081417062E+02 -0.21010946611E+02 -0.15421897268E+02  0.39801839722E+02  0.00000000000E+00 0.  1.
         12    1    4    4    0    0  0.33658421219E+02 -0.31792637560E+02 -0.93340234984E+02  0.10419242098E+03  0.00000000000E+00 0. -1.
         -5    1    5    5    0  502  0.58470088169E+02 -0.25015745977E+02 -0.45412029651E+02  0.78287171327E+02  0.47000000000E+01 0.  1.
         13    1    6    6    0    0  0.33730547514E+02  0.19161649325E+02 -0.92033187586E+01  0.39870035322E+02  0.00000000000E+00 0. -1.
        -14    1    6    6    0    0  0.44120285789E+02  0.13069971245E+03 -0.17887560074E+03  0.22588823562E+03  0.00000000000E+00 0.  1.
</event>
<event>
12    1  0.1061634E+000  0.2776565E+03  0.7818608E-02  0.1097016E+00
         21   -1    0    0  503  502  0.00000000000E+00  0.00000000000E+00  0.20208698065E+04  0.20208698065E+04  0.00000000000E+00 0. -1.
         21   -1    0    0  501  503 -0.00000000000E+00 -0.00000000000E+00 -0.39497427348E+02  0.39497427348E+02  0.00000000000E+00 0.  1.
          6    2    1    2  501    0 -0.13182430829E+03  0.17331390597E+03  0.79702623259E+03  0.84390971052E+03  0.17180636140E+03 0.  0.
         24    2    3    3    0    0 -0.39383613937E+02  0.69178266468E+02  0.53932947886E+03  0.55096053358E+03  0.79652502781E+02 0.  0.
         -6    2    1    2    0  502  0.13182430829E+03 -0.17331390597E+03  0.11843461466E+04  0.12164575234E+04  0.17227232200E+03 0.  0.
        -24    2    5    5    0    0  0.54696181216E+02 -0.14619232303E+02  0.52044151667E+03  0.52949013325E+03  0.79341255001E+02 0.  0.
          5    1    3    3  501    0 -0.92440694352E+02  0.10413563950E+03  0.25769675373E+03  0.29294917694E+03  0.47000000000E+01 0. -1.
        -11    1    4    4    0    0 -0.38923053733E+02 -0.42268284074E+01  0.19568788932E+03  0.19956607983E+03  0.00000000000E+00 0.  1.
         12    1    4    4    0    0 -0.46056020353E+00  0.73405094876E+02  0.34364158954E+03  0.35139445375E+03  0.00000000000E+00 0. -1.
         -5    1    5    5    0  502  0.77128127072E+02 -0.15869467366E+03  0.66390462993E+03  0.68696739012E+03  0.47000000000E+01 0.  1.
         11    1    6    6    0    0 -0.24227565784E+01 -0.27133732126E+02  0.30628840410E+03  0.30749747260E+03  0.00000000000E+00 0. -1.
        -12    1    6    6    0    0  0.57118937794E+02  0.12514499823E+02  0.21415311257E+03  0.22199266065E+03  0.00000000000E+00 0.  1.
</event>
<event>
12    1  0.1061634E+000  0.1898687E+03  0.7818608E-02  0.1158767E+00
         21   -1    0    0  503  502  0.00000000000E+00  0.00000000000E+00  0.19330447048E+04  0.19330447048E+04  0.00000000000E+00 0.  1.
         21   -1    0    0  501  503 -0.00000000000E+00 -0.00000000000E+00 -0.11318713348E+03  0.11318713348E+03  0.00000000000E+00 0.  1.
          6    2    1    2  501    0 -0.76491165198E+02 -0.19109871625E+02  0.18456939110E+04  0.18554342227E+04  0.17272537738E+03 0.  0.
         24    2    3    3    0    0 -0.65925335338E+02  0.40229027138E+02  0.15350015419E+04  0.15389147448E+04  0.77873831208E+02 0.  0.
         -6    2    1    2    0  502  0.76491165198E+02  0.19109871625E+02 -0.25836339668E+02  0.19079761563E+03  0.17181422566E+03 0.  0.
        -24    2    5    5    0    0  0.10374001239E+03  0.54946290680E+02 -0.16291917768E+02  0.14453818856E+03  0.82733163470E+02 0.  0.
          5    1    3    3  501    0 -0.10565829859E+02 -0.59338898763E+02  0.31069236906E+03  0.31651947785E+03  0.47000000000E+01 0. -1.
        -11    1    4    4    0    0 -0.42288780797E+01 -0.44271121711E+01  0.82951389617E+01  0.10309804187E+02  0.00000000000E+00 0.  1.
         12    1    4    4    0    0 -0.61696457259E+02  0.44656139309E+02  0.15267064030E+04  0.15286049406E+04  0.00000000000E+00 0. -1.
         -5    1    5    5    0  502 -0.27248847191E+02 -0.35836419055E+02 -0.95444219007E+01  0.46259427075E+02  0.47000000000E+01 0.  1.
         13    1    6    6    0    0  0.88628308472E+02  0.44907486965E+02 -0.46188525517E+02  0.10956751041E+03  0.00000000000E+00 0. -1.
        -14    1    6    6    0    0  0.15111703916E+02  0.10038803715E+02  0.29896607749E+02  0.34970678149E+02  0.00000000000E+00 0.  1.
</event>
<event>
12    1  0.1061634E+000  0.4925413E+03  0.7818608E-02  0.1015746E+00
         21   -1    0    0  503  502  0.00000000000E+00  0.00000000000E+00  0.16786385986E+04  0.16786385986E+04  0.00000000000E+00 0.  1.
         21   -1    0    0  501  503 -0.00000000000E+00 -0.00000000000E+00 -0.16164926497E+03  0.16164926497E+03  0.00000000000E+00 0.  1.
          6    2    1    2  501    0  0.60360734709E+02 -0.45724183610E+03  0.10580839274E+04  0.11670931336E+04  0.17277520105E+03 0.  0.
         24    2    3    3    0    0  0.65382666331E+01 -0.91990741586E+02  0.30274992350E+03  0.32634539048E+03  0.79616281248E+02 0.  0.
         -6    2    1    2    0  502 -0.60360734709E+02  0.45724183610E+03  0.45890540629E+03  0.67319473002E+03  0.17286832456E+03 0.  0.
        -24    2    5    5    0    0 -0.41942115856E+02  0.35870651453E+03  0.26492548360E+03  0.45479428240E+03  0.78884870476E+02 0.  0.
          5    1    3    3  501    0  0.53822468076E+02 -0.36525109451E+03  0.75533400386E+03  0.84074774308E+03  0.47000000000E+01 0. -1.
        -13    1    4    4    0    0  0.24526870892E+02 -0.40062234173E+02  0.53886997892E+02  0.71486771814E+02  0.00000000000E+00 0.  1.
         14    1    4    4    0    0 -0.17988604259E+02 -0.51928507413E+02  0.24886292561E+03  0.25485861867E+03  0.00000000000E+00 0. -1.
         -5    1    5    5    0  502 -0.18418618853E+02  0.98535321566E+02  0.19397992269E+03  0.21840044762E+03  0.47000000000E+01 0.  1.
         11    1    6    6    0    0 -0.63267416961E+01  0.22040603124E+03  0.20086876271E+03  0.29827354241E+03  0.00000000000E+00 0. -1.
        -12    1    6    6    0    0 -0.35615374160E+02  0.13830048329E+03  0.64056720885E+02  0.15652073999E+03  0.00000000000E+00 0.  1.
</event>
<event>
12    1  0.1061634E+000  0.1883748E+03  0.7818608E-02  0.1161243E+00
         21   -1    0    0  503  502  0.00000000000E+00  0.00000000000E+00  0.14624977209E+03  0.14624977209E+03  0.00000000000E+00 0.  1.
         21   -1    0    0  501  503 -0.00000000000E+00 -0.00000000000E+00 -0.23873633463E+03  0.23873633463E+03  0.00000000000E+00 0.  1.
          6    2    1    2  501    0 -0.56493105455E+02 -0.35046868713E+02 -0.22868752427E+02  0.18415855699E+03  0.17021057636E+03 0.  0.
         24    2    3    3    0    0 -0.41015870328E+02  0.40528500918E+01 -0.72360316277E+02  0.11904452079E+03  0.85069708743E+02 0.  0.
         -6    2    1    2    0  502  0.56493105455E+02  0.35046868713E+02 -0.69617810108E+02  0.20082754973E+03  0.17625354259E+03 0.  0.
        -24    2    5    5    0    0  0.23217053803E+02 -0.51880787451E+02 -0.41967638660E+02  0.10361471621E+03  0.75789702639E+02 0.  0.
          5    1    3    3  501    0 -0.15477235127E+02 -0.39099718805E+02  0.49491563849E+02  0.65114036199E+02  0.47000000000E+01 0. -1.
        -11    1    4    4    0    0  0.24813435384E+02  0.37367315456E+00 -0.60678086722E+01  0.25547299451E+02  0.00000000000E+00 0.  1.
         12    1    4    4    0    0 -0.65829305712E+02  0.36791769373E+01 -0.66292507604E+02  0.93497221338E+02  0.00000000000E+00 0. -1.
         -5    1    5    5    0  502  0.33276051653E+02  0.86927656164E+02 -0.27650171448E+02  0.97212833520E+02  0.47000000000E+01 0.  1.
         11    1    6    6    0    0  0.22455128409E+02 -0.49488103127E+02 -0.62561201288E+02  0.82868625243E+02  0.00000000000E+00 0. -1.
        -12    1    6    6    0    0  0.76192539353E+00 -0.23926843238E+01  0.20593562628E+02  0.20746090964E+02  0.00000000000E+00 0.  1.
</event>
<event>
12    1  0.1061634E+000  0.3778471E+03  0.7818608E-02  0.1051797E+00
         21   -1    0    0  503  502  0.00000000000E+00  0.00000000000E+00  0.41424728891E+03  0.41424728891E+03  0.00000000000E+00 0.  1.
         21   -1    0    0  501  503 -0.00000000000E+00 -0.00000000000E+00 -0.36542891174E+03  0.36542891174E+03  0.00000000000E+00 0.  1.
          6    2    1    2  501    0  0.32217170407E+03 -0.94338405060E+02 -0.69986898521E+02  0.38359142988E+03  0.17190077820E+03 0.  0.
         24    2    3    3    0    0  0.99307799977E+02 -0.76104874063E+01 -0.64243235324E+02  0.14433188229E+03  0.82368321012E+02 0.  0.
         -6    2    1    2    0  502 -0.32217170407E+03  0.94338405060E+02  0.11880527570E+03  0.39608477077E+03  0.17341888747E+03 0.  0.
        -24    2    5    5    0    0 -0.22498014417E+03  0.91122523520E+02  0.14725685292E+03  0.29465438352E+03  0.78849511309E+02 0.  0.
          5    1    3    3  501    0  0.22286390409E+03 -0.86727917654E+02 -0.57436631974E+01  0.23925954759E+03  0.47000000000E+01 0. -1.
        -11    1    4    4    0    0  0.76169348417E+02 -0.25505255397E+02 -0.78037438098E+02  0.11199164896E+03  0.00000000000E+00 0.  1.
         12    1    4    4    0    0  0.23138451559E+02  0.17894767990E+02  0.13794202774E+02  0.32340233335E+02  0.00000000000E+00 0. -1.
         -5    1    5    5    0  502 -0.97191559900E+02  0.32158815403E+01 -0.28451577229E+02  0.10143038724E+03  0.47000000000E+01 0.  1.
         13    1    6    6    0    0 -0.19429825227E+03  0.46377861681E+02  0.12717078449E+03  0.23680186933E+03  0.00000000000E+00 0. -1.
        -14    1    6    6    0    0 -0.30681891897E+02  0.44744661839E+02  0.20086068433E+02  0.57852514194E+02  0.00000000000E+00 0.  1.
</event>
<event>
12    1  0.1061634E+000  0.2032156E+03  0.7818608E-02  0.1147095E+00
         21   -1    0    0  503  502  0.00000000000E+00  0.00000000000E+00  0.10557765588E+03  0.10557765588E+03  0.00000000000E+00 0. -1.
         21   -1    0    0  501  503 -0.00000000000E+00 -0.00000000000E+00 -0.54738091486E+03  0.54738091486E+03  0.00000000000E+00 0. -1.
          6    2    1    2  501    0 -0.26961816346E+02  0.10497633772E+03 -0.46346698305E+02  0.20843365369E+03  0.17189997244E+03 0.  0.
         24    2    3    3    0    0 -0.75750508197E+02  0.10698777858E+03 -0.35852379582E+02  0.15826789772E+03  0.81109864197E+02 0.  0.
         -6    2    1    2    0  502  0.26961816346E+02 -0.10497633772E+03 -0.39545656067E+03  0.44452491705E+03  0.17166694347E+03 0.  0.
        -24    2    5    5    0    0  0.43761984759E+02 -0.99789274440E+02 -0.40271911821E+03  0.42492935566E+03  0.80679976000E+02 0.  0.
          5    1    3    3  501    0  0.48788691852E+02 -0.20114408515E+01 -0.10494318724E+02  0.50165755973E+02  0.47000000000E+01 0. -1.
        -11    1    4    4    0    0 -0.99854017396E+01 -0.36661228817E+01  0.16232795995E+02  0.19407533864E+02  0.00000000000E+00 0.  1.
         12    1    4    4    0    0 -0.65765106458E+02  0.11065390146E+03 -0.52085175576E+02  0.13886036386E+03  0.00000000000E+00 0. -1.
         -5    1    5    5    0  502 -0.16800168414E+02 -0.51870632844E+01  0.72625575388E+01  0.19595561391E+02  0.47000000000E+01 0.  1.
         13    1    6    6    0    0 -0.15896125763E+02 -0.16448205884E+01 -0.97787265515E+02  0.99084517186E+02  0.00000000000E+00 0. -1.
        -14    1    6    6    0    0  0.59658110522E+02 -0.98144453851E+02 -0.30493185269E+03  0.32584483847E+03  0.00000000000E+00 0.  1.
</event>
<event>
12    1  0.1061634E+000  0.2943357E+03  0.7818608E-02  0.1088174E+00
         21   -1    0    0  501  502  0.00000000000E+00  0.00000000000E+00  0.47674220502E+03  0.47674220502E+03  0.00000000000E+00 0.  1.
         21   -1    0    0  502  503 -0.00000000000E+00 -0.00000000000E+00 -0.18249083395E+03  0.18249083395E+03  0.00000000000E+00 0.  1.
         -6    2    1    2    0  503 -0.23432043952E+03  0.47537385485E+02  0.17253231751E+03  0.34072242091E+03  0.17075859020E+03 0.  0.
        -24    2    3    3    0    0 -0.23190544377E+03  0.31636364742E+02  0.19350254312E+03  0.31388000993E+03  0.79350059950E+02 0.  0.
          6    2    1    2  501    0  0.23432043952E+03 -0.47537385485E+02  0.12171905356E+03  0.31851061807E+03  0.17166133643E+03 0.  0.
         24    2    5    5    0    0  0.30403239790E+02 -0.17509667261E+02  0.26819053757E+02  0.91548092150E+02  0.80192556353E+02 0.  0.
          5    1    5    5  501    0  0.20391719973E+03 -0.30027718224E+02  0.94899999799E+02  0.22696252592E+03  0.47000000000E+01 0. -1.
        -11    1    6    6    0    0  0.20390491118E+02  0.58760978159E+01  0.51748453933E+02  0.55930341837E+02  0.00000000000E+00 0.  1.
         12    1    6    6    0    0  0.10012748673E+02 -0.23385765077E+02 -0.24929400176E+02  0.35617750313E+02  0.00000000000E+00 0. -1.
         -5    1    3    3    0  503 -0.24149957559E+01  0.15901020743E+02 -0.20970225609E+02  0.26842410981E+02  0.47000000000E+01 0.  1.
         11    1    4    4    0    0 -0.33989946388E+02 -0.40163928104E+01  0.69902885075E+02  0.77832263288E+02  0.00000000000E+00 0. -1.
        -12    1    4    4    0    0 -0.19791549738E+03  0.35652757552E+02  0.12359965805E+03  0.23604774664E+03  0.00000000000E+00 0.  1.
</event>
<event>
12    1  0.1061634E+000  0.2146291E+03  0.7818608E-02  0.1140369E+00
         21   -1    0    0  501  502  0.00000000000E+00  0.00000000000E+00  0.11847182142E+03  0.11847182142E+03  0.00000000000E+00 0.  1.
         21   -1    0    0  502  503 -0.00000000000E+00 -0.00000000000E+00 -0.38296032250E+03  0.38296032250E+03  0.00000000000E+00 0.  1.
         -6    2    1    2    0  503  0.10403868972E+03 -0.21938404448E+02 -0.84928662774E+02  0.23082143709E+03  0.18644118513E+03 0.  0.
        -24    2    3    3    0    0  0.14358549858E+03 -0.12954344646E+02 -0.38607742612E+02  0.16907695501E+03  0.79447142665E+02 0.  0.
          6    2    1    2  501    0 -0.10403868972E+03  0.21938404448E+02 -0.17955983831E+03  0.27061070683E+03  0.17228777255E+03 0.  0.
         24    2    5    5    0    0 -0.21656606457E+02 -0.45148996108E+02 -0.10100647259E+03  0.13839781706E+03  0.80275823314E+02 0.  0.
          5    1    5    5  501    0 -0.82382083258E+02  0.67087400556E+02 -0.78553365724E+02  0.13221288977E+03  0.47000000000E+01 0. -1.
        -11    1    6    6    0    0  0.13211055653E+02 -0.31971686236E+02 -0.94404368980E+02  0.10054305344E+03  0.00000000000E+00 0.  1.
         12    1    6    6    0    0 -0.34867662110E+02 -0.13177309872E+02 -0.66021036053E+01  0.37854763617E+02  0.00000000000E+00 0. -1.
         -5    1    3    3    0  503 -0.39546808868E+02 -0.89840598017E+01 -0.46320920163E+02  0.61744482076E+02  0.47000000000E+01 0.  1.
         13    1    4    4    0    0  0.27987439653E+02 -0.36049214111E+02 -0.21632372577E+01  0.45689410281E+02  0.00000000000E+00 0. -1.
        -14    1    4    4    0    0  0.11559805893E+03  0.23094869465E+02 -0.36444505354E+02  0.12338754473E+03  0.00000000000E+00 0.  1.
</event>
<event>
12    1  0.1061634E+000  0.2074563E+03  0.7818608E-02  0.1143656E+00
         21   -1    0    0  503  502  0.00000000000E+00  0.00000000000E+00  0.25895904627E+02  0.25895904627E+02  0.00000000000E+00 0. -1.
         21   -1    0    0  501  503 -0.00000000000E+00 -0.00000000000E+00 -0.26515898569E+04  0.26515898569E+04  0.00000000000E+00 0. -1.
          6    2    1    2  501    0  0.10937421626E+03  0.36990748532E+02 -0.49459078200E+03  0.53633771947E+03  0.17235739910E+03 0.  0.
         24    2    3    3    0    0  0.12070343525E+03  0.45104713566E+02 -0.49903974377E+03  0.52097312080E+03  0.75951117613E+02 0.  0.
         -6    2    1    2    0  502 -0.10937421626E+03 -0.36990748532E+02 -0.21311031702E+04  0.21411480420E+04  0.17199761917E+03 0.  0.
        -24    2    5    5    0    0 -0.41685742204E+01  0.23353408443E+02 -0.64548176773E+03  0.65057678040E+03  0.77721786015E+02 0.  0.
          5    1    3    3  501    0 -0.11329218986E+02 -0.81139650342E+01  0.44489617704E+01  0.15364598669E+02  0.47000000000E+01 0. -1.
        -13    1    4    4    0    0  0.12868465185E+02  0.61627980834E+01 -0.20310381846E+03  0.20360436771E+03  0.00000000000E+00 0.  1.
         14    1    4    4    0    0  0.10783497007E+03  0.38941915483E+02 -0.29593592531E+03  0.31736875310E+03  0.00000000000E+00 0. -1.
         -5    1    5    5    0  502 -0.10520564204E+03 -0.60344156975E+02 -0.14856214025E+04  0.14905712616E+04  0.47000000000E+01 0.  1.
         11    1    6    6    0    0  0.13509212536E+02  0.27718213161E+02 -0.60922193639E+03  0.61000177536E+03  0.00000000000E+00 0. -1.
        -12    1    6    6    0    0 -0.17677786756E+02 -0.43648047182E+01 -0.36259831343E+02  0.40575005038E+02  0.00000000000E+00 0.  1.
</event>
<event>
12    1  0.1061634E+000  0.1911642E+03  0.7818608E-02  0.1158399E+00
         21   -1    0    0  503  502  0.00000000000E+00  0.00000000000E+00  0.32229099819E+02  0.32229099819E+02  0.00000000000E+00 0.  1.
         21   -1    0    0  501  503 -0.00000000000E+00 -0.00000000000E+00 -0.21236556084E+04  0.21236556084E+04  0.00000000000E+00 0.  1.
          6    2    1    2  501    0  0.48109474867E+02  0.60557408098E+02 -0.29410543327E+03  0.34842605446E+03  0.17006171908E+03 0.  0.
         24    2    3    3    0    0  0.50300688346E+02  0.84393298176E+02 -0.29793673887E+03  0.32373354598E+03  0.79904445445E+02 0.  0.
         -6    2    1    2    0  502 -0.48109474867E+02 -0.60557408098E+02 -0.17973210753E+04  0.18074586537E+04  0.17481995325E+03 0.  0.
        -24    2    5    5    0    0  0.68548447788E+01 -0.44790326823E+01 -0.39471255031E+03  0.40264598831E+03  0.79112223426E+02 0.  0.
          5    1    3    3  501    0 -0.21912134784E+01 -0.23835890078E+02  0.38313055955E+01  0.24692508477E+02  0.47000000000E+01 0. -1.
        -13    1    4    4    0    0  0.44651994731E+00  0.35703522149E+02 -0.20215461601E+03  0.20528377833E+03  0.00000000000E+00 0.  1.
         14    1    4    4    0    0  0.49854168398E+02  0.48689776027E+02 -0.95782122860E+02  0.11844976765E+03  0.00000000000E+00 0. -1.
         -5    1    5    5    0  502 -0.54964319646E+02 -0.56078375415E+02 -0.14026085250E+04  0.14048126654E+04  0.47000000000E+01 0.  1.
         11    1    6    6    0    0 -0.24534134752E+02  0.25437233590E+02 -0.20655942888E+03  0.20956090828E+03  0.00000000000E+00 0. -1.
        -12    1    6    6    0    0  0.31388979531E+02 -0.29916266272E+02 -0.18815312143E+03  0.19308508003E+03  0.00000000000E+00 0.  1.
</event>
<event>
12    1  0.1415475E+000  0.2163314E+03  0.7818608E-02  0.1136960E+00
         21   -1    0    0  503  502  0.00000000000E+00  0.00000000000E+00  0.30258375989E+03  0.30258375989E+03  0.00000000000E+00 0.  1.
         21   -1    0    0  501  503 -0.00000000000E+00 -0.00000000000E+00 -0.78927247011E+03  0.78927247011E+03  0.00000000000E+00 0.  1.
          6    2    1    2  501    0  0.86011840020E+02 -0.92750220912E+02  0.24680679845E+03  0.32712428522E+03  0.17348216657E+03 0.  0.
         24    2    3    3    0    0  0.88004747754E+02 -0.13046310168E+03  0.20245734394E+03  0.26868459688E+03  0.80230791856E+02 0.  0.
         -6    2    1    2    0  502 -0.86011840020E+02  0.92750220912E+02 -0.73349550867E+03  0.76473194478E+03  0.17549543021E+03 0.  0.
        -24    2    5    5    0    0 -0.43413761780E+02  0.31554934126E+01 -0.53641281857E+03  0.54403874551E+03  0.79653831313E+02 0.  0.
          5    1    3    3  501    0 -0.19929077336E+01  0.37712880771E+02  0.44349454514E+02  0.58439688337E+02  0.47000000000E+01 0. -1.
        -11    1    4    4    0    0  0.32892096612E+02 -0.27686888835E+01  0.17774547322E+02  0.37489867834E+02  0.00000000000E+00 0.  1.
         12    1    4    4    0    0  0.55112651141E+02 -0.12769441280E+03  0.18468279661E+03  0.23119472905E+03  0.00000000000E+00 0. -1.
         -5    1    5    5    0  502 -0.42598078240E+02  0.89594727499E+02 -0.19708269010E+03  0.22069319927E+03  0.47000000000E+01 0.  1.
         11    1    6    6    0    0  0.98649155995E+01  0.27818291994E+02 -0.12379266672E+03  0.12726271356E+03  0.00000000000E+00 0. -1.
        -12    1    6    6    0    0 -0.53278677379E+02 -0.24662798582E+02 -0.41262015185E+03  0.41677603195E+03  0.00000000000E+00 0.  1.
</event>
<event>
12    1  0.1061634E+000  0.3594164E+03  0.7818608E-02  0.1058892E+00
         21   -1    0    0  501  502  0.00000000000E+00  0.00000000000E+00  0.15172141992E+03  0.15172141992E+03  0.00000000000E+00 0. -1.
         21   -1    0    0  502  503 -0.00000000000E+00 -0.00000000000E+00 -0.10990243599E+04  0.10990243599E+04  0.00000000000E+00 0.  1.
         -6    2    1    2    0  503 -0.30283605576E+03  0.87630976629E+02 -0.17612200427E+03  0.40024878334E+03  0.17260145839E+03 0.  0.
        -24    2    3    3    0    0 -0.19495515773E+03  0.14785970132E+01 -0.15245443267E+03  0.26009613577E+03  0.79987161645E+02 0.  0.
          6    2    1    2  501    0  0.30283605576E+03 -0.87630976629E+02 -0.77118093570E+03  0.85049699647E+03  0.17098608333E+03 0.  0.
         24    2    5    5    0    0  0.22251803123E+03 -0.18687591597E+02 -0.63917570718E+03  0.68122902620E+03  0.75258894396E+02 0.  0.
          5    1    5    5  501    0  0.80318024535E+02 -0.68943385032E+02 -0.13200522852E+03  0.16926797027E+03  0.47000000000E+01 0. -1.
        -13    1    6    6    0    0  0.97643589247E+02 -0.41311322908E+02 -0.24026325393E+03  0.26261631158E+03  0.00000000000E+00 0.  1.
         14    1    6    6    0    0  0.12487444198E+03  0.22623731311E+02 -0.39891245325E+03  0.41861271462E+03  0.00000000000E+00 0. -1.
         -5    1    3    3    0  503 -0.10788089803E+03  0.86152379616E+02 -0.23667571600E+02  0.14015264756E+03  0.47000000000E+01 0.  1.
         11    1    4    4    0    0 -0.27022460038E+02  0.27104991414E+02 -0.13359116438E+02  0.40538375622E+02  0.00000000000E+00 0. -1.
        -12    1    4    4    0    0 -0.16793269769E+03 -0.25626394401E+02 -0.13909531623E+03  0.21955776015E+03  0.00000000000E+00 0.  1.
</event>
<event>
12    1  0.1061634E+000  0.1982713E+03  0.7818608E-02  0.1155302E+00
         21   -1    0    0  503  502  0.00000000000E+00  0.00000000000E+00  0.35367185573E+02  0.35367185573E+02  0.00000000000E+00 0. -1.
         21   -1    0    0  501  503 -0.00000000000E+00 -0.00000000000E+00 -0.10324274827E+04  0.10324274827E+04  0.00000000000E+00 0. -1.
          6    2    1    2  501    0  0.87899668342E+02 -0.16856148284E+02 -0.59778408932E+03  0.62980736788E+03  0.17692094777E+03 0.  0.
         24    2    3    3    0    0  0.12306588486E+03 -0.16121554302E+00 -0.35986771594E+03  0.38868152048E+03  0.80145576160E+02 0.  0.
         -6    2    1    2    0  502 -0.87899668342E+02  0.16856148284E+02 -0.39927620784E+03  0.43798730043E+03  0.15620788635E+03 0.  0.
        -24    2    5    5    0    0 -0.11623393950E+03  0.25633170485E+02 -0.37485878011E+03  0.39928112756E+03  0.68839855309E+02 0.  0.
          5    1    3    3  501    0 -0.35166216516E+02 -0.16694932741E+02 -0.23791637338E+03  0.24112584740E+03  0.47000000000E+01 0. -1.
        -13    1    4    4    0    0  0.27384145656E+02  0.21499818016E+02 -0.35173350847E+02  0.49490385105E+02  0.00000000000E+00 0.  1.
         14    1    4    4    0    0  0.95681739202E+02 -0.21661033559E+02 -0.32469436510E+03  0.33919113537E+03  0.00000000000E+00 0. -1.
         -5    1    5    5    0  502  0.28334271162E+02 -0.87770222015E+01 -0.24417427731E+02  0.38706172867E+02  0.47000000000E+01 0.  1.
         11    1    6    6    0    0 -0.89272640015E+02 -0.68546362264E+01 -0.19560805031E+03  0.21512577632E+03  0.00000000000E+00 0. -1.
        -12    1    6    6    0    0 -0.26961299489E+02  0.32487806712E+02 -0.17925072981E+03  0.18415535124E+03  0.00000000000E+00 0.  1.
</event>
<event>
12    1  0.1061634E+000  0.1764716E+03  0.7818608E-02  0.1171371E+00
         21   -1    0    0  503  502  0.00000000000E+00  0.00000000000E+00  0.21344883262E+03  0.21344883262E+03  0.00000000000E+00 0. -1.
         21   -1    0    0  501  503 -0.00000000000E+00 -0.00000000000E+00 -0.47168998987E+03  0.47168998987E+03  0.00000000000E+00 0. -1.
          6    2    1    2  501    0 -0.38916930524E+02  0.19104992188E+00 -0.41402842123E+03  0.45006860424E+03  0.17212684554E+03 0.  0.
         24    2    3    3    0    0 -0.42498963416E+02 -0.23017248974E+02 -0.41577159880E+03  0.42605642472E+03  0.79511628270E+02 0.  0.
         -6    2    1    2    0  502  0.38916930524E+02 -0.19104992188E+00  0.15578726398E+03  0.23507021825E+03  0.17167927047E+03 0.  0.
        -24    2    5    5    0    0  0.57708357134E+01 -0.31086772566E+02  0.16166376013E+02  0.88205342820E+02  0.80741196518E+02 0.  0.
          5    1    3    3  501    0  0.35820328912E+01  0.23208298896E+02  0.17431775768E+01  0.24012179521E+02  0.47000000000E+01 0. -1.
        -13    1    4    4    0    0 -0.59803105515E+02 -0.26318336119E+02 -0.22009588035E+03  0.22958933510E+03  0.00000000000E+00 0.  1.
         14    1    4    4    0    0  0.17304142099E+02  0.33010871450E+01 -0.19567571845E+03  0.19646708961E+03  0.00000000000E+00 0. -1.
         -5    1    5    5    0  502  0.33146094811E+02  0.30895722644E+02  0.13962088796E+03  0.14686487543E+03  0.47000000000E+01 0.  1.
         11    1    6    6    0    0  0.31287182312E+02  0.57449242271E+01 -0.13405605330E+02  0.34519591331E+02  0.00000000000E+00 0. -1.
        -12    1    6    6    0    0 -0.25516346598E+02 -0.36831696793E+02  0.29571981344E+02  0.53685751489E+02  0.00000000000E+00 0.  1.
</event>
<event>
12    1  0.1061634E+000  0.3485707E+03  0.7818608E-02  0.1063719E+00
         21   -1    0    0  501  502  0.00000000000E+00  0.00000000000E+00  0.19504437901E+03  0.19504437901E+03  0.00000000000E+00 0.  1.
         21   -1    0    0  502  503 -0.00000000000E+00 -0.00000000000E+00 -0.78610022914E+03  0.78610022914E+03  0.00000000000E+00 0.  1.
         -6    2    1    2    0  503 -0.18999296803E+03 -0.22914403778E+03 -0.52333424459E+03  0.62605622402E+03  0.17164890368E+03 0.  0.
        -24    2    3    3    0    0 -0.17118604253E+03 -0.13234234902E+03 -0.27711716114E+03  0.36078427004E+03  0.80945722586E+02 0.  0.
          6    2    1    2  501    0  0.18999296803E+03  0.22914403778E+03 -0.67721605537E+02  0.35508838413E+03  0.18137592657E+03 0.  0.
         24    2    5    5    0    0  0.54989883498E+02  0.74220051719E+02  0.15175945305E+02  0.13345497459E+03  0.95117913993E+02 0.  0.
          5    1    5    5  501    0  0.13500308453E+03  0.15492398606E+03 -0.82897550843E+02  0.22163340954E+03  0.47000000000E+01 0. -1.
        -13    1    6    6    0    0  0.28240843021E+02  0.93803550589E+02  0.25961669169E+01  0.97996894851E+02  0.00000000000E+00 0.  1.
         14    1    6    6    0    0  0.26749040477E+02 -0.19583498870E+02  0.12579778389E+02  0.35458079739E+02  0.00000000000E+00 0. -1.
         -5    1    3    3    0  503 -0.18806925498E+02 -0.96801688756E+02 -0.24621708344E+03  0.26527195399E+03  0.47000000000E+01 0.  1.
         11    1    4    4    0    0 -0.11916528003E+03 -0.13199456602E+03 -0.22885136795E+03  0.28982042378E+03  0.00000000000E+00 0. -1.
        -12    1    4    4    0    0 -0.52020762498E+02 -0.34778300023E+00 -0.48265793191E+02  0.70963846262E+02  0.00000000000E+00 0.  1.
</event>
<event>
12    1  0.1061634E+000  0.2697190E+03  0.7818608E-02  0.1101760E+00
         21   -1    0    0  503  502  0.00000000000E+00  0.00000000000E+00  0.22488137916E+03  0.22488137916E+03  0.00000000000E+00 0.  1.
         21   -1    0    0  501  503 -0.00000000000E+00 -0.00000000000E+00 -0.32284961159E+03  0.32284961159E+03  0.00000000000E+00 0.  1.
          6    2    1    2  501    0 -0.90865770634E+02  0.18442459834E+03 -0.27166040753E+02  0.26887391801E+03  0.17113202292E+03 0.  0.
         24    2    3    3    0    0  0.19569903250E+02  0.82610029994E+02 -0.24960148176E+02  0.11857687760E+03  0.78930784455E+02 0.  0.
         -6    2    1    2    0  502  0.90865770634E+02 -0.18442459834E+03 -0.70802191679E+02  0.27885707274E+03  0.17458320631E+03 0.  0.
        -24    2    5    5    0    0  0.16904750294E+02 -0.11512139625E+03  0.20995518602E+02  0.14202843553E+03  0.78692809324E+02 0.  0.
          5    1    3    3  501    0 -0.11043567388E+03  0.10181456835E+03 -0.22058925765E+01  0.15029704041E+03  0.47000000000E+01 0. -1.
        -11    1    4    4    0    0  0.16048493556E+02  0.40914001442E+02 -0.52511942425E+02  0.68476373711E+02  0.00000000000E+00 0.  1.
         12    1    4    4    0    0  0.35214096942E+01  0.41696028552E+02  0.27551794249E+02  0.50100503885E+02  0.00000000000E+00 0. -1.
         -5    1    5    5    0  502  0.73961020340E+02 -0.69303202093E+02 -0.91797710281E+02  0.13682863722E+03  0.47000000000E+01 0.  1.
         11    1    6    6    0    0  0.93094485885E+01 -0.12401858995E+03  0.81200939732E+01  0.12463230886E+03  0.00000000000E+00 0. -1.
        -12    1    6    6    0    0  0.75953017052E+01  0.88971936955E+01  0.12875424629E+02  0.17396126667E+02  0.00000000000E+00 0.  1.
</event>
<event>
12    1  0.1061634E+000  0.2306032E+03  0.7818608E-02  0.1126360E+00
         21   -1    0    0  503  502  0.00000000000E+00  0.00000000000E+00  0.63439408621E+03  0.63439408621E+03  0.00000000000E+00 0. -1.
         21   -1    0    0  501  503 -0.00000000000E+00 -0.00000000000E+00 -0.12353098848E+03  0.12353098848E+03  0.00000000000E+00 0. -1.
          6    2    1    2  501    0 -0.14937935170E+03  0.31372464657E+02  0.47078115223E+03  0.52386442936E+03  0.17175745924E+03 0.  0.
         24    2    3    3    0    0 -0.41909563387E+02  0.77415499875E+01  0.34888531878E+03  0.35958156434E+03  0.75905155641E+02 0.  0.
         -6    2    1    2    0  502  0.14937935170E+03 -0.31372464657E+02  0.40081945493E+02  0.23406064533E+03  0.17285659109E+03 0.  0.
        -24    2    5    5    0    0  0.82620893725E+02 -0.55262094552E+02  0.82540699015E+02  0.15128237597E+03  0.78697389474E+02 0.  0.
          5    1    3    3  501    0 -0.10746978831E+03  0.23630914669E+02  0.12189583345E+03  0.16428286502E+03  0.47000000000E+01 0. -1.
        -11    1    4    4    0    0 -0.41345531277E+02 -0.14707234098E+02  0.94333521819E+02  0.10404118910E+03  0.00000000000E+00 0.  1.
         12    1    4    4    0    0 -0.56403210944E+00  0.22448784086E+02  0.25455179696E+03  0.25554037524E+03  0.00000000000E+00 0. -1.
         -5    1    5    5    0  502  0.66758457973E+02  0.23889629895E+02 -0.42458753522E+02  0.82778269360E+02  0.47000000000E+01 0.  1.
         13    1    6    6    0    0  0.59196138332E+00 -0.25874650701E+00  0.45956980249E+02  0.45961520881E+02  0.00000000000E+00 0. -1.
        -14    1    6    6    0    0  0.82028932341E+02 -0.55003348045E+02  0.36583718766E+02  0.10532085509E+03  0.00000000000E+00 0.  1.
</event>
<event>
12    1  0.1061634E+000  0.2488541E+03  0.7818608E-02  0.1114398E+00
         21   -1    0    0  503  502  0.00000000000E+00  0.00000000000E+00  0.50358433574E+03  0.50358433574E+03  0.00000000000E+00 0.  1.
         21   -1    0    0  501  503 -0.00000000000E+00 -0.00000000000E+00 -0.12453711490E+03  0.12453711490E+03  0.00000000000E+00 0.  1.
          6    2    1    2  501    0  0.67104622120E+02 -0.16333507779E+03  0.14247004046E+03  0.28475996575E+03  0.17207308830E+03 0.  0.
         24    2    3    3    0    0 -0.28761406514E+02 -0.51893993675E+02  0.21564584104E+02  0.94366609635E+02  0.70141433135E+02 0.  0.
         -6    2    1    2    0  502 -0.67104622120E+02  0.16333507779E+03  0.23657718039E+03  0.34336148489E+03  0.17534813681E+03 0.  0.
        -24    2    5    5    0    0 -0.60850555714E+02  0.15550895160E+03  0.25956126585E+03  0.31785227514E+03  0.75974955890E+02 0.  0.
          5    1    3    3  501    0  0.95866028634E+02 -0.11144108411E+03  0.12090545636E+03  0.19039335611E+03  0.47000000000E+01 0. -1.
        -13    1    4    4    0    0 -0.12640537658E+02  0.16957239713E+02  0.54227364249E+01  0.21834313392E+02  0.00000000000E+00 0.  1.
         14    1    4    4    0    0 -0.16120868856E+02 -0.68851233389E+02  0.16141847679E+02  0.72532296243E+02  0.00000000000E+00 0. -1.
         -5    1    5    5    0  502 -0.62540664060E+01  0.78261261883E+01 -0.22984085463E+02  0.25509209755E+02  0.47000000000E+01 0.  1.
         13    1    6    6    0    0 -0.43858601558E+02  0.94235545519E+02  0.92654033505E+02  0.13924325799E+03  0.00000000000E+00 0. -1.
        -14    1    6    6    0    0 -0.16991954156E+02  0.61273406080E+02  0.16690723235E+03  0.17860901715E+03  0.00000000000E+00 0.  1.
</event>
<event>
12    1  0.1061634E+000  0.2662190E+03  0.7818608E-02  0.1103513E+00
         21   -1    0    0  503  502  0.00000000000E+00  0.00000000000E+00  0.18188915671E+03  0.18188915671E+03  0.00000000000E+00 0.  1.
         21   -1    0    0  501  503 -0.00000000000E+00 -0.00000000000E+00 -0.38924090598E+03  0.38924090598E+03  0.00000000000E+00 0.  1.
          6    2    1    2  501    0  0.18897191676E+03 -0.75041176755E+02 -0.10808951662E+03  0.28700762403E+03  0.17131394898E+03 0.  0.
         24    2    3    3    0    0  0.20135704439E+03 -0.10055458425E+03 -0.92970606486E+02  0.25452690988E+03  0.74057615724E+02 0.  0.
         -6    2    1    2    0  502 -0.18897191676E+03  0.75041176755E+02 -0.99262232644E+02  0.28412243866E+03  0.17184587801E+03 0.  0.
        -24    2    5    5    0    0 -0.40500334874E+02  0.10929203598E+02 -0.81107581372E+02  0.12131630520E+03  0.79871656641E+02 0.  0.
          5    1    3    3  501    0 -0.12385127622E+02  0.25513407492E+02 -0.15118910137E+02  0.32480714151E+02  0.47000000000E+01 0. -1.
        -11    1    4    4    0    0  0.14124408853E+03 -0.30516211767E+02 -0.60965596098E+02  0.15683729031E+03  0.00000000000E+00 0.  1.
         12    1    4    4    0    0  0.60112955854E+02 -0.70038372480E+02 -0.32005010389E+02  0.97689619567E+02  0.00000000000E+00 0. -1.
         -5    1    5    5    0  502 -0.14847158189E+03  0.64111973157E+02 -0.18154651272E+02  0.16280613346E+03  0.47000000000E+01 0.  1.
         13    1    6    6    0    0 -0.14394802400E+02  0.41080861881E+02 -0.18977004184E+02  0.47486569015E+02  0.00000000000E+00 0. -1.
        -14    1    6    6    0    0 -0.26105532474E+02 -0.30151658284E+02 -0.62130577188E+02  0.73829736182E+02  0.00000000000E+00 0.  1.
</event>
<event>
12    1  0.1061634E+000  0.2015421E+03  0.7818608E-02  0.1148468E+00
         21   -1    0    0  501  502  0.00000000000E+00  0.00000000000E+00  0.46059273776E+03  0.46059273776E+03  0.00000000000E+00 0. -1.
         21   -1    0    0  502  503 -0.00000000000E+00 -0.00000000000E+00 -0.89848200786E+02  0.89848200786E+02  0.00000000000E+00 0. -1.
         -6    2    1    2    0  503  0.13171364601E+02  0.10417097881E+03  0.14735610851E+03  0.24957282754E+03  0.17189443232E+03 0.  0.
        -24    2    3    3    0    0  0.52854289685E+02  0.10805283847E+03  0.14750389619E+03  0.20942416357E+03  0.87361828380E+02 0.  0.
          6    2    1    2  501    0 -0.13171364601E+02 -0.10417097881E+03  0.22338842847E+03  0.30086811100E+03  0.17202951077E+03 0.  0.
         24    2    5    5    0    0  0.17620921650E+02 -0.90536460012E+02  0.64457929899E+02  0.13834101058E+03  0.80473989658E+02 0.  0.
          5    1    5    5  501    0 -0.30792286251E+02 -0.13634518794E+02  0.15893049857E+03  0.16252710042E+03  0.47000000000E+01 0. -1.
        -11    1    6    6    0    0 -0.28027309354E+02 -0.18216773327E+02  0.41271212240E+01  0.33681063369E+02  0.00000000000E+00 0.  1.
         12    1    6    6    0    0  0.45648231004E+02 -0.72319686685E+02  0.60330808675E+02  0.10465994722E+03  0.00000000000E+00 0. -1.
         -5    1    3    3    0  503 -0.39682925084E+02 -0.38818596627E+01 -0.14778767692E+00  0.40148663974E+02  0.47000000000E+01 0.  1.
         13    1    4    4    0    0  0.28849909616E+02  0.32961238186E+02  0.18961817594E+01  0.43844680554E+02  0.00000000000E+00 0. -1.
        -14    1    4    4    0    0  0.24004380069E+02  0.75091600282E+02  0.14560771443E+03  0.16557948302E+03  0.00000000000E+00 0.  1.
</event>
<event>
12    1  0.1061634E+000  0.4883948E+03  0.7818608E-02  0.1016863E+00
         21   -1    0    0  501  502  0.00000000000E+00  0.00000000000E+00  0.67014737924E+03  0.67014737924E+03  0.00000000000E+00 0. -1.
         21   -1    0    0  502  503 -0.00000000000E+00 -0.00000000000E+00 -0.35950542666E+03  0.35950542666E+03  0.00000000000E+00 0.  1.
         -6    2    1    2    0  503 -0.26828337743E+03  0.36982405732E+03  0.20739357265E+03  0.53060492561E+03  0.17257951537E+03 0.  0.
        -24    2    3    3    0    0 -0.46550538174E+02  0.70625736199E+02  0.66603195524E+02  0.13244778621E+03  0.77145856654E+02 0.  0.
          6    2    1    2  501    0  0.26828337743E+03 -0.36982405732E+03  0.10324837994E+03  0.49904788030E+03  0.17217071438E+03 0.  0.
         24    2    5    5    0    0  0.96832104493E+02 -0.72796331220E+02  0.39698720367E+02  0.15021889885E+03  0.79460473654E+02 0.  0.
          5    1    5    5  501    0  0.17145127294E+03 -0.29702772610E+03  0.63549659573E+02  0.34882898145E+03  0.47000000000E+01 0. -1.
        -13    1    6    6    0    0  0.21023505870E+02 -0.25256698065E+02 -0.23732444379E+02  0.40535385929E+02  0.00000000000E+00 0.  1.
         14    1    6    6    0    0  0.75808598623E+02 -0.47539633156E+02  0.63431164746E+02  0.10968351292E+03  0.00000000000E+00 0. -1.
         -5    1    3    3    0  503 -0.22173283925E+03  0.29919832112E+03  0.14079037712E+03  0.39815713940E+03  0.47000000000E+01 0.  1.
         11    1    4    4    0    0 -0.55150711228E+02  0.71424515920E+02  0.77214909149E+02  0.11876533424E+03  0.00000000000E+00 0. -1.
        -12    1    4    4    0    0  0.86001730540E+01 -0.79877972091E+00 -0.10611713625E+02  0.13682451961E+02  0.00000000000E+00 0.  1.
</event>
<event>
12    1  0.1061634E+000  0.2696740E+03  0.7818608E-02  0.1101508E+00
         21   -1    0    0  501  502  0.00000000000E+00  0.00000000000E+00  0.65983793769E+03  0.65983793769E+03  0.00000000000E+00 0. -1.
         21   -1    0    0  502  503 -0.00000000000E+00 -0.00000000000E+00 -0.11066857066E+03  0.11066857066E+03  0.00000000000E+00 0. -1.
         -6    2    1    2    0  503  0.15893277776E+03  0.13481748287E+03  0.30213590343E+03  0.40478859792E+03  0.17068193615E+03 0.  0.
        -24    2    3    3    0    0  0.15012564689E+03  0.55078526321E+02  0.25530776553E+03  0.31177875304E+03  0.80327963925E+02 0.  0.
          6    2    1    2  501    0 -0.15893277776E+03 -0.13481748287E+03  0.24703346360E+03  0.36571791043E+03  0.17113934774E+03 0.  0.
         24    2    5    5    0    0 -0.63425953563E+02 -0.11555899407E+03  0.21186283415E+03  0.26202844118E+03  0.79976939166E+02 0.  0.
          5    1    5    5  501    0 -0.95506824194E+02 -0.19258488794E+02  0.35170629450E+02  0.10368946925E+03  0.47000000000E+01 0. -1.
        -13    1    6    6    0    0 -0.79980859456E+02 -0.82821898602E+02  0.13933105268E+03  0.18074719088E+03  0.00000000000E+00 0.  1.
         14    1    6    6    0    0  0.16554905893E+02 -0.32737095469E+02  0.72531781463E+02  0.81281250304E+02  0.00000000000E+00 0. -1.
         -5    1    3    3    0  503  0.88071308628E+01  0.79738956544E+02  0.46828137896E+02  0.93009844875E+02  0.47000000000E+01 0.  1.
         13    1    4    4    0    0 -0.86280811191E+01 -0.38429903891E+01  0.10641419134E+02  0.14228568449E+02  0.00000000000E+00 0. -1.
        -14    1    4    4    0    0  0.15875372801E+03  0.58921516710E+02  0.24466634640E+03  0.29755018459E+03  0.00000000000E+00 0.  1.
</event>
<event>
12    1  0.1061634E+000  0.2044106E+03  0.7818608E-02  0.1147021E+00
         21   -1    0    0  501  502  0.00000000000E+00  0.00000000000E+00  0.10246595555E+03  0.10246595555E+03  0.00000000000E+00 0. -1.
         21   -1    0    0  502  503 -0.00000000000E+00 -0.00000000000E+00 -0.40679919280E+03  0.40679919280E+03  0.00000000000E+00 0. -1.
         -6    2    1    2    0  503  0.49898275946E+02  0.97867232957E+02 -0.11790973863E+03  0.23597965173E+03  0.17238287716E+03 0.  0.
        -24    2    3    3    0    0  0.31652283802E+02  0.64824581323E+02 -0.14907095364E+03  0.18680807074E+03  0.86435019872E+02 0.  0.
          6    2    1    2  501    0 -0.49898275946E+02 -0.97867232957E+02 -0.18642349863E+03  0.27328549662E+03  0.16692336143E+03 0.  0.
         24    2    5    5    0    0 -0.48707658528E+01 -0.56883265547E+02 -0.18900509818E+03  0.21216334919E+03  0.77659058330E+02 0.  0.
          5    1    5    5  501    0 -0.45027510093E+02 -0.40983967410E+02  0.25815995546E+01  0.61122147427E+02  0.47000000000E+01 0. -1.
        -13    1    6    6    0    0 -0.29897468842E+02  0.39815602544E+01 -0.50557335160E+02  0.58870668450E+02  0.00000000000E+00 0.  1.
         14    1    6    6    0    0  0.25026702989E+02 -0.60864825801E+02 -0.13844776302E+03  0.15329268074E+03  0.00000000000E+00 0. -1.
         -5    1    3    3    0  503  0.18245992144E+02  0.33042651635E+02  0.31161215012E+02  0.49171580993E+02  0.47000000000E+01 0.  1.
         11    1    4    4    0    0 -0.14765393354E+02  0.69003876317E+01 -0.91312668722E+02  0.92755785046E+02  0.00000000000E+00 0. -1.
        -12    1    4    4    0    0  0.46417677157E+02  0.57924193691E+02 -0.57758284920E+02  0.94052285694E+02  0.00000000000E+00 0.  1.
</event>
<event>
12    1  0.1061634E+000  0.2117348E+03  0.7818608E-02  0.1140621E+00
         21   -1    0    0  501  502  0.00000000000E+00  0.00000000000E+00  0.54576894456E+03  0.54576894456E+03  0.00000000000E+00 0. -1.
         21   -1    0    0  502  503 -0.00000000000E+00 -0.00000000000E+00 -0.83178728159E+02  0.83178728159E+02  0.00000000000E+00 0. -1.
         -6    2    1    2    0  503 -0.71142748601E+02 -0.97538913896E+02  0.27720193564E+03  0.34752192488E+03  0.17133430697E+03 0.  0.
        -24    2    3    3    0    0 -0.28717591449E+02 -0.53796426528E+02  0.26737618286E+03  0.28561930314E+03  0.79809821426E+02 0.  0.
          6    2    1    2  501    0  0.71142748601E+02  0.97538913896E+02  0.18538828076E+03  0.28142574784E+03  0.17394397519E+03 0.  0.
         24    2    5    5    0    0  0.51300629509E+02  0.32612879922E+02  0.18934044634E+03  0.21325823952E+03  0.77031925713E+02 0.  0.
          5    1    5    5  501    0  0.19842119092E+02  0.64926033975E+02 -0.39521655826E+01  0.68167508320E+02  0.47000000000E+01 0. -1.
        -11    1    6    6    0    0  0.59182412500E+02  0.45912332952E+02  0.11440209427E+03  0.13674187157E+03  0.00000000000E+00 0.  1.
         12    1    6    6    0    0 -0.78817829905E+01 -0.13299453031E+02  0.74938352069E+02  0.76516367954E+02  0.00000000000E+00 0. -1.
         -5    1    3    3    0  503 -0.42425157152E+02 -0.43742487368E+02  0.98257527778E+01  0.61902621739E+02  0.47000000000E+01 0.  1.
         11    1    4    4    0    0 -0.14874140326E+02  0.49436734752E+01  0.50902217750E+01  0.16479997439E+02  0.00000000000E+00 0. -1.
        -12    1    4    4    0    0 -0.13843451123E+02 -0.58740100004E+02  0.26228596109E+03  0.26913930570E+03  0.00000000000E+00 0.  1.
</event>
<event>
12    1  0.1061634E+000  0.3647177E+03  0.7818608E-02  0.1056763E+00
         21   -1    0    0  501  502  0.00000000000E+00  0.00000000000E+00  0.16566411311E+04  0.16566411311E+04  0.00000000000E+00 0.  1.
         21   -1    0    0  502  503 -0.00000000000E+00 -0.00000000000E+00 -0.80239633729E+02  0.80239633729E+02  0.00000000000E+00 0.  1.
         -6    2    1    2    0  503  0.31201315316E+03  0.79359326251E+02  0.80063240139E+03  0.87965461283E+03  0.17067479398E+03 0.  0.
        -24    2    3    3    0    0  0.29900571401E+03  0.11387287300E+03  0.68079482261E+03  0.75418145366E+03  0.54190648090E+02 0.  0.
          6    2    1    2  501    0 -0.31201315316E+03 -0.79359326251E+02  0.77576909601E+03  0.85722615203E+03  0.17137349562E+03 0.  0.
         24    2    5    5    0    0 -0.31384355939E+03 -0.45563445436E+02  0.64864485290E+03  0.72558962544E+03  0.71877340136E+02 0.  0.
          5    1    5    5  501    0  0.18304062300E+01 -0.33795880815E+02  0.12712424311E+03  0.13163652659E+03  0.47000000000E+01 0. -1.
        -11    1    6    6    0    0 -0.13643508511E+03 -0.54187604798E+02  0.31829068656E+03  0.35051360903E+03  0.00000000000E+00 0.  1.
         12    1    6    6    0    0 -0.17740847428E+03  0.86241593620E+01  0.33035416634E+03  0.37507601641E+03  0.00000000000E+00 0. -1.
         -5    1    3    3    0  503  0.13007439152E+02 -0.34513546746E+02  0.11983757878E+03  0.12547315916E+03  0.47000000000E+01 0.  1.
         11    1    4    4    0    0  0.25590316983E+03  0.86167797152E+02  0.60692114409E+03  0.66427749980E+03  0.00000000000E+00 0. -1.
        -12    1    4    4    0    0  0.43102544179E+02  0.27705075845E+02  0.73873678526E+02  0.89903953869E+02  0.00000000000E+00 0.  1.
</event>
<event>
12    1  0.1061634E+000  0.2300796E+03  0.7818608E-02  0.1126773E+00
         21   -1    0    0  501  502  0.00000000000E+00  0.00000000000E+00  0.81821740184E+02  0.81821740184E+02  0.00000000000E+00 0.  1.
         21   -1    0    0  502  503 -0.00000000000E+00 -0.00000000000E+00 -0.65455664856E+03  0.65455664856E+03  0.00000000000E+00 0.  1.
         -6    2    1    2    0  503  0.10595475299E+03 -0.10699579108E+03 -0.23885461857E+03  0.33090004418E+03  0.17253637713E+03 0.  0.
        -24    2    3    3    0    0  0.65099898597E+02 -0.14131325088E+03 -0.16782866494E+03  0.24194172100E+03  0.78497795578E+02 0.  0.
          6    2    1    2  501    0 -0.10595475299E+03  0.10699579108E+03 -0.33388028981E+03  0.40547834457E+03  0.17396014200E+03 0.  0.
         24    2    5    5    0    0 -0.10702081422E+03  0.28769382895E+02 -0.13055125871E+03  0.18756714176E+03  0.76528879834E+02 0.  0.
          5    1    5    5  501    0  0.10660612304E+01  0.78226408187E+02 -0.20332903110E+03  0.21791120281E+03  0.47000000000E+01 0. -1.
        -13    1    6    6    0    0 -0.81746943753E+02 -0.11058740658E+02 -0.57291867723E+02  0.10043513661E+03  0.00000000000E+00 0.  1.
         14    1    6    6    0    0 -0.25273870465E+02  0.39828123553E+02 -0.73259390988E+02  0.87132005153E+02  0.00000000000E+00 0. -1.
         -5    1    3    3    0  503  0.40854854390E+02  0.34317459797E+02 -0.71025953629E+02  0.88958323180E+02  0.47000000000E+01 0.  1.
         11    1    4    4    0    0  0.63860686715E+02 -0.73214530331E+02 -0.13502452945E+03  0.16634355507E+03  0.00000000000E+00 0. -1.
        -12    1    4    4    0    0  0.12392118819E+01 -0.68098720548E+02 -0.32804135494E+02  0.75598165929E+02  0.00000000000E+00 0.  1.
</event>
<event>
12    1  0.1061634E+000  0.2516935E+03  0.7818608E-02  0.1112477E+00
         21   -1    0    0  501  502  0.00000000000E+00  0.00000000000E+00  0.32540563336E+02  0.32540563336E+02  0.00000000000E+00 0. -1.
         21   -1    0    0  502  503 -0.00000000000E+00 -0.00000000000E+00 -0.21903390717E+04  0.21903390717E+04  0.00000000000E+00 0. -1.
         -6    2    1    2    0  503 -0.17688230125E+03 -0.46904422948E+02 -0.14554227557E+04  0.14767688431E+04  0.17059731773E+03 0.  0.
        -24    2    3    3    0    0 -0.73362517966E+02  0.25267457516E+02 -0.42583088462E+03  0.43946144564E+03  0.75986291277E+02 0.  0.
          6    2    1    2  501    0  0.17688230125E+03  0.46904422948E+02 -0.70237575265E+03  0.74611079190E+03  0.17280695152E+03 0.  0.
         24    2    5    5    0    0  0.15440578494E+03  0.15610066801E+02 -0.34415546769E+03  0.38579371894E+03  0.79429132066E+02 0.  0.
          5    1    5    5  501    0  0.22476516308E+02  0.31294356147E+02 -0.35822028496E+03  0.36031707297E+03  0.47000000000E+01 0. -1.
        -13    1    6    6    0    0  0.32326834362E+02  0.95588567290E+01 -0.16823463647E+03  0.17157881242E+03  0.00000000000E+00 0.  1.
         14    1    6    6    0    0  0.12207895058E+03  0.60512100716E+01 -0.17592083122E+03  0.21421490652E+03  0.00000000000E+00 0. -1.
         -5    1    3    3    0  503 -0.10351978329E+03 -0.72171880463E+02 -0.10295918711E+04  0.10373073975E+04  0.47000000000E+01 0.  1.
         13    1    4    4    0    0 -0.22997925277E+01 -0.57547566697E+01 -0.21057097165E+03  0.21066214746E+03  0.00000000000E+00 0. -1.
        -14    1    4    4    0    0 -0.71062725438E+02  0.31022214185E+02 -0.21525991296E+03  0.22879929818E+03  0.00000000000E+00 0.  1.
</event>
<event>
12    1  0.1061634E+000  0.2466982E+03  0.7818608E-02  0.1115453E+00
         21   -1    0    0  501  502  0.00000000000E+00  0.00000000000E+00  0.32948623655E+03  0.32948623655E+03  0.00000000000E+00 0.  1.
         21   -1    0    0  502  503 -0.00000000000E+00 -0.00000000000E+00 -0.20095279947E+03  0.20095279947E+03  0.00000000000E+00 0.  1.
         -6    2    1    2    0  503  0.15966733118E+03  0.74413023691E+02 -0.11570327200E+02  0.24696934941E+03  0.17271083445E+03 0.  0.
        -24    2    3    3    0    0  0.82361020078E+02  0.45491760229E+02 -0.72922654342E+02  0.14401837437E+03  0.81060105869E+02 0.  0.
          6    2    1    2  501    0 -0.15966733118E+03 -0.74413023691E+02  0.14010376429E+03  0.28346968661E+03  0.17232249916E+03 0.  0.
         24    2    5    5    0    0 -0.18394331013E+03 -0.43008992442E+02  0.10555154032E+03  0.23063520436E+03  0.79790695290E+02 0.  0.
          5    1    5    5  501    0  0.24275978954E+02 -0.31404031250E+02  0.34552223969E+02  0.52834482245E+02  0.47000000000E+01 0. -1.
        -11    1    6    6    0    0 -0.12571165802E+03  0.91994341213E+01  0.55095963506E+02  0.13756313367E+03  0.00000000000E+00 0.  1.
         12    1    6    6    0    0 -0.58231652113E+02 -0.52208426563E+02  0.50455576814E+02  0.93072070696E+02  0.00000000000E+00 0. -1.
         -5    1    3    3    0  503  0.77306311098E+02  0.28921263463E+02  0.61352327142E+02  0.10295097504E+03  0.47000000000E+01 0.  1.
         11    1    4    4    0    0  0.58036266684E+02  0.38235194312E+02 -0.29256049530E+01  0.69560746826E+02  0.00000000000E+00 0. -1.
        -12    1    4    4    0    0  0.24324753394E+02  0.72565659167E+01 -0.69997049389E+02  0.74457627546E+02  0.00000000000E+00 0.  1.
</event>
<event>
12    1  0.1061634E+000  0.2564896E+03  0.7818608E-02  0.1109323E+00
         21   -1    0    0  501  502  0.00000000000E+00  0.00000000000E+00  0.17486250389E+03  0.17486250389E+03  0.00000000000E+00 0.  1.
         21   -1    0    0  502  503 -0.00000000000E+00 -0.00000000000E+00 -0.46380552400E+03  0.46380552400E+03  0.00000000000E+00 0.  1.
         -6    2    1    2    0  503 -0.18818745170E+03 -0.29302566088E+02 -0.28371520764E+03  0.38246728633E+03  0.17179565976E+03 0.  0.
        -24    2    3    3    0    0 -0.17107375420E+03 -0.78095412192E+02 -0.22256103021E+03  0.30224544460E+03  0.80335383451E+02 0.  0.
          6    2    1    2  501    0  0.18818745170E+03  0.29302566088E+02 -0.52278124774E+01  0.25620074156E+03  0.17128436180E+03 0.  0.
         24    2    5    5    0    0  0.20226394740E+03  0.21035617217E+02 -0.36571277139E+02  0.22054975347E+03  0.77146184825E+02 0.  0.
          5    1    5    5  501    0 -0.14076495706E+02  0.82669488706E+01  0.31343464661E+02  0.35650988092E+02  0.47000000000E+01 0. -1.
        -13    1    6    6    0    0  0.15134901806E+03  0.32646465139E+02 -0.56266944554E+02  0.16473702074E+03  0.00000000000E+00 0.  1.
         14    1    6    6    0    0  0.50914929348E+02 -0.11610847921E+02  0.19695667416E+02  0.55812732731E+02  0.00000000000E+00 0. -1.
         -5    1    3    3    0  503 -0.17113697493E+02  0.48792846104E+02 -0.61154177429E+02  0.80221841726E+02  0.47000000000E+01 0.  1.
         13    1    4    4    0    0 -0.21155232457E+00 -0.25356950534E+02 -0.22296359270E+02  0.33766067753E+02  0.00000000000E+00 0. -1.
        -14    1    4    4    0    0 -0.17086220188E+03 -0.52738461658E+02 -0.20026467094E+03  0.26847937685E+03  0.00000000000E+00 0.  1.
</event>
<event>
12    1  0.1061634E+000  0.1970986E+03  0.7818608E-02  0.1153067E+00
         21   -1    0    0  501  502  0.00000000000E+00  0.00000000000E+00  0.21949033727E+03  0.21949033727E+03  0.00000000000E+00 0. -1.
         21   -1    0    0  502  503 -0.00000000000E+00 -0.00000000000E+00 -0.19644187437E+03  0.19644187437E+03  0.00000000000E+00 0. -1.
         -6    2    1    2    0  503 -0.73796199797E+02  0.46445565766E+02  0.82740409760E+02  0.21376118916E+03  0.17676198941E+03 0.  0.
        -24    2    3    3    0    0  0.65317110448E+01 -0.79636434372E+01 -0.10179970822E+02  0.79339381284E+02  0.78006555818E+02 0.  0.
          6    2    1    2  501    0  0.73796199797E+02 -0.46445565766E+02 -0.59691946862E+02  0.20217102248E+03  0.17235696715E+03 0.  0.
         24    2    5    5    0    0  0.39130863411E+02 -0.39965021869E+02  0.33446080488E+02  0.10246914118E+03  0.79075009639E+02 0.  0.
          5    1    5    5  501    0  0.34665336386E+02 -0.64805438976E+01 -0.93138027351E+02  0.99701881300E+02  0.47000000000E+01 0. -1.
        -11    1    6    6    0    0  0.20984335538E+02  0.20833587294E+02  0.24483350228E+02  0.38390300023E+02  0.00000000000E+00 0.  1.
         12    1    6    6    0    0  0.18146527873E+02 -0.60798609162E+02  0.89627302605E+01  0.64078841154E+02  0.00000000000E+00 0. -1.
         -5    1    3    3    0  503 -0.80327910842E+02  0.54409209203E+02  0.92920380582E+02  0.13442180788E+03  0.47000000000E+01 0.  1.
         13    1    4    4    0    0 -0.29944007223E+02 -0.60780940617E+01  0.15914813574E+02  0.34450951903E+02  0.00000000000E+00 0. -1.
        -14    1    4    4    0    0  0.36475718267E+02 -0.18855493755E+01 -0.26094784396E+02  0.44888429380E+02  0.00000000000E+00 0.  1.
</event>
<event>
12    1  0.1061634E+000  0.1770034E+03  0.7818608E-02  0.1170737E+00
         21   -1    0    0  501  502  0.00000000000E+00  0.00000000000E+00  0.47240651137E+02  0.47240651137E+02  0.00000000000E+00 0. -1.
         21   -1    0    0  502  503 -0.00000000000E+00 -0.00000000000E+00 -0.10043838488E+04  0.10043838488E+04  0.00000000000E+00 0. -1.
         -6    2    1    2    0  503 -0.32725420917E+02  0.27511091867E+02 -0.17210730635E+03  0.24688283605E+03  0.17176261668E+03 0.  0.
        -24    2    3    3    0    0  0.39343131807E+02  0.38219785739E+02 -0.13113645648E+03  0.16316155467E+03  0.80101739456E+02 0.  0.
          6    2    1    2  501    0  0.32725420917E+02 -0.27511091867E+02 -0.78503589136E+03  0.80474166393E+03  0.17175558679E+03 0.  0.
         24    2    5    5    0    0  0.77404090749E+02 -0.59010712608E+02 -0.56291222982E+03  0.57594170619E+03  0.73246248950E+02 0.  0.
          5    1    5    5  501    0 -0.44678669832E+02  0.31499620741E+02 -0.22212366154E+03  0.22879995774E+03  0.47000000000E+01 0. -1.
        -13    1    6    6    0    0  0.66684567214E+02 -0.24475217759E+02 -0.48342139253E+03  0.48861243388E+03  0.00000000000E+00 0.  1.
         14    1    6    6    0    0  0.10719523535E+02 -0.34535494850E+02 -0.79490837287E+02  0.87329272308E+02  0.00000000000E+00 0. -1.
         -5    1    3    3    0  503 -0.72068552724E+02 -0.10708693872E+02 -0.40970849872E+02  0.83721281377E+02  0.47000000000E+01 0.  1.
         11    1    4    4    0    0  0.99473999082E+01  0.16758521907E+01 -0.11208844137E+03  0.11254144985E+03  0.00000000000E+00 0. -1.
        -12    1    4    4    0    0  0.29395731899E+02  0.36543933549E+02 -0.19048015109E+02  0.50620104827E+02  0.00000000000E+00 0.  1.
</event>
<event>
12    1  0.1061634E+000  0.2537750E+03  0.7818608E-02  0.1111068E+00
         21   -1    0    0  501  502  0.00000000000E+00  0.00000000000E+00  0.17731044521E+03  0.17731044521E+03  0.00000000000E+00 0. -1.
         21   -1    0    0  502  503 -0.00000000000E+00 -0.00000000000E+00 -0.51966622904E+03  0.51966622904E+03  0.00000000000E+00 0. -1.
         -6    2    1    2    0  503  0.18369559751E+03 -0.26342797709E+02 -0.36328726861E+03  0.44314713853E+03  0.17310035042E+03 0.  0.
        -24    2    3    3    0    0  0.80339440275E+02  0.36394035715E+02 -0.11253201166E+03  0.16472534629E+03  0.81804856592E+02 0.  0.
          6    2    1    2  501    0 -0.18369559751E+03  0.26342797709E+02  0.20931484782E+02  0.25382953572E+03  0.17191070534E+03 0.  0.
         24    2    5    5    0    0 -0.20562905558E+03  0.44816581453E+02  0.19250935806E+02  0.22472160701E+03  0.76402667863E+02 0.  0.
          5    1    5    5  501    0  0.21933458067E+02 -0.18473783743E+02  0.16805489765E+01  0.29107928704E+02  0.47000000000E+01 0. -1.
        -11    1    6    6    0    0 -0.16968228688E+03  0.43319180894E+01  0.15800754773E+02  0.17047142824E+03  0.00000000000E+00 0.  1.
         12    1    6    6    0    0 -0.35946768704E+02  0.40484663363E+02  0.34501810328E+01  0.54250178774E+02  0.00000000000E+00 0. -1.
         -5    1    3    3    0  503  0.10335615724E+03 -0.62736833424E+02 -0.25075525695E+03  0.27842179225E+03  0.47000000000E+01 0.  1.
         11    1    4    4    0    0 -0.10289090477E+02 -0.31386980356E+01 -0.41781551663E+02  0.43144117416E+02  0.00000000000E+00 0. -1.
        -12    1    4    4    0    0  0.90628530753E+02  0.39532733751E+02 -0.70750459995E+02  0.12158122887E+03  0.00000000000E+00 0.  1.
</event>
<event>
12    1  0.1061634E+000  0.2701344E+03  0.7818608E-02  0.1101287E+00
         21   -1    0    0  501  502  0.00000000000E+00  0.00000000000E+00  0.81357837770E+03  0.81357837770E+03  0.00000000000E+00 0.  1.
         21   -1    0    0  502  503 -0.00000000000E+00 -0.00000000000E+00 -0.10021357092E+03  0.10021357092E+03  0.00000000000E+00 0.  1.
         -6    2    1    2    0  503  0.20134959395E+02 -0.20636787714E+03  0.50644204577E+03  0.57398271040E+03  0.17314585991E+03 0.  0.
        -24    2    3    3    0    0 -0.10794745615E+02 -0.91405061741E+02  0.38172678737E+03  0.40150349062E+03  0.83775300300E+02 0.  0.
          6    2    1    2  501    0 -0.20134959395E+02  0.20636787714E+03  0.20692276100E+03  0.33980923822E+03  0.17222128804E+03 0.  0.
         24    2    5    5    0    0  0.24090953764E+02  0.16592446204E+03  0.86300677616E+02  0.20503766028E+03  0.80506732764E+02 0.  0.
          5    1    5    5  501    0 -0.44225913159E+02  0.40443415101E+02  0.12062208339E+03  0.13477157794E+03  0.47000000000E+01 0. -1.
        -13    1    6    6    0    0 -0.15743685931E+02  0.11464576815E+03  0.31141065654E+02  0.11983856546E+03  0.00000000000E+00 0.  1.
         14    1    6    6    0    0  0.39834639695E+02  0.51278693890E+02  0.55159611961E+02  0.85199094821E+02  0.00000000000E+00 0. -1.
         -5    1    3    3    0  503  0.30929705010E+02 -0.11496281540E+03  0.12471525841E+03  0.17247921978E+03  0.47000000000E+01 0.  1.
         11    1    4    4    0    0 -0.46077812183E+02 -0.35165988621E+02  0.16980131056E+03  0.17942211848E+03  0.00000000000E+00 0. -1.
        -12    1    4    4    0    0  0.35283066568E+02 -0.56239073120E+02  0.21192547681E+03  0.22208137214E+03  0.00000000000E+00 0.  1.
</event>
<event>
12    1  0.1061634E+000  0.2135861E+03  0.7818608E-02  0.1138891E+00
         21   -1    0    0  503  502  0.00000000000E+00  0.00000000000E+00  0.34776837919E+03  0.34776837919E+03  0.00000000000E+00 0. -1.
         21   -1    0    0  501  503 -0.00000000000E+00 -0.00000000000E+00 -0.19827376474E+03  0.19827376474E+03  0.00000000000E+00 0. -1.
          6    2    1    2  501    0 -0.28081543757E+02  0.12241175149E+03  0.23398997520E+03  0.31634997286E+03  0.17190924010E+03 0.  0.
         24    2    3    3    0    0 -0.19853199344E+02  0.82228710593E+02  0.48567692846E+02  0.12638709433E+03  0.80368939610E+02 0.  0.
         -6    2    1    2    0  502  0.28081543757E+02 -0.12241175149E+03 -0.84495360751E+02  0.22969217106E+03  0.17275942075E+03 0.  0.
        -24    2    5    5    0    0 -0.15090496229E+02 -0.63233717395E+00 -0.57089837611E+02  0.97528622811E+02  0.77617393554E+02 0.  0.
          5    1    3    3  501    0 -0.82283444130E+01  0.40183040900E+02  0.18542228235E+03  0.18996287854E+03  0.47000000000E+01 0. -1.
        -11    1    4    4    0    0 -0.23202939292E+02  0.11284422085E+02  0.48982630247E+02  0.55362556295E+02  0.00000000000E+00 0.  1.
         12    1    4    4    0    0  0.33497399476E+01  0.70944288508E+02 -0.41493740078E+00  0.71024538032E+02  0.00000000000E+00 0. -1.
         -5    1    5    5    0  502  0.43172039987E+02 -0.12177941432E+03 -0.27405523140E+02  0.13216354825E+03  0.47000000000E+01 0.  1.
         13    1    6    6    0    0 -0.98914683526E+01 -0.29703381666E+02 -0.60178794606E+02  0.67835236778E+02  0.00000000000E+00 0. -1.
        -14    1    6    6    0    0 -0.51990278769E+01  0.29071044492E+02  0.30889569948E+01  0.29693386032E+02  0.00000000000E+00 0.  1.
</event>
<event>
12    1  0.1061634E+000  0.1767933E+03  0.7818608E-02  0.1172121E+00
         21   -1    0    0  501  502  0.00000000000E+00  0.00000000000E+00  0.39265320575E+03  0.39265320575E+03  0.00000000000E+00 0. -1.
         21   -1    0    0  502  503 -0.00000000000E+00 -0.00000000000E+00 -0.78016928788E+02  0.78016928788E+02  0.00000000000E+00 0. -1.
         -6    2    1    2    0  503  0.20261281881E+00 -0.70913698369E+01  0.17846845098E+03  0.25121081201E+03  0.17665094253E+03 0.  0.
        -24    2    3    3    0    0 -0.24847677148E+02 -0.29672659052E+02  0.19466335116E+03  0.21350409587E+03  0.78691199716E+02 0.  0.
          6    2    1    2  501    0 -0.20261281881E+00  0.70913698369E+01  0.13616782598E+03  0.21945932253E+03  0.17196042811E+03 0.  0.
         24    2    5    5    0    0 -0.59920271125E+00 -0.51553385762E+02  0.31568559229E+02  0.99449067769E+02  0.78964754927E+02 0.  0.
          5    1    5    5  501    0  0.39658989244E+00  0.58644755599E+02  0.10459926675E+03  0.12001025476E+03  0.47000000000E+01 0. -1.
        -13    1    6    6    0    0  0.12582708738E+02  0.17655971507E+02  0.16888619029E+02  0.27482418775E+02  0.00000000000E+00 0.  1.
         14    1    6    6    0    0 -0.13181911450E+02 -0.69209357269E+02  0.14679940200E+02  0.71966648993E+02  0.00000000000E+00 0. -1.
         -5    1    3    3    0  503  0.25050289967E+02  0.22581289215E+02 -0.16194900180E+02  0.37706716138E+02  0.47000000000E+01 0.  1.
         13    1    4    4    0    0 -0.22831995191E+02 -0.76531966436E+01  0.77638455600E+01  0.25301160471E+02  0.00000000000E+00 0. -1.
        -14    1    4    4    0    0 -0.20156819569E+01 -0.22019462409E+02  0.18689950560E+03  0.18820293540E+03  0.00000000000E+00 0.  1.
</event>
<event>
12    1  0.1061634E+000  0.5189279E+03  0.7818608E-02  0.1008966E+00
         21   -1    0    0  501  502  0.00000000000E+00  0.00000000000E+00  0.18009255367E+04  0.18009255367E+04  0.00000000000E+00 0.  1.
         21   -1    0    0  502  503 -0.00000000000E+00 -0.00000000000E+00 -0.15017792615E+03  0.15017792615E+03  0.00000000000E+00 0.  1.
         -6    2    1    2    0  503  0.26846323233E+03  0.40910766143E+03  0.89240739278E+03  0.10322095354E+04  0.17211619510E+03 0.  0.
        -24    2    3    3    0    0  0.25690577445E+03  0.33128196498E+03  0.82276944663E+03  0.92703374258E+03  0.81814914941E+02 0.  0.
          6    2    1    2  501    0 -0.26846323233E+03 -0.40910766143E+03  0.75834021775E+03  0.91889392738E+03  0.17275583396E+03 0.  0.
         24    2    5    5    0    0 -0.26830321006E+03 -0.41046139437E+03  0.68954902235E+03  0.84992888722E+03  0.80225247332E+02 0.  0.
          5    1    5    5  501    0 -0.16002226501E+00  0.13537329353E+01  0.68791195402E+02  0.68965040164E+02  0.47000000000E+01 0. -1.
        -11    1    6    6    0    0 -0.52833369523E+02 -0.34696104172E+02  0.75311866261E+02  0.98321217342E+02  0.00000000000E+00 0.  1.
         12    1    6    6    0    0 -0.21546984054E+03 -0.37576529019E+03  0.61423715609E+03  0.75160766988E+03  0.00000000000E+00 0. -1.
         -5    1    3    3    0  503  0.11557457881E+02  0.77825696446E+02  0.69637946148E+02  0.10517579286E+03  0.47000000000E+01 0.  1.
         11    1    4    4    0    0  0.16879920888E+03  0.15376900732E+03  0.41551106798E+03  0.47411763113E+03  0.00000000000E+00 0. -1.
        -12    1    4    4    0    0  0.88106565568E+02  0.17751295766E+03  0.40725837865E+03  0.45291611145E+03  0.00000000000E+00 0.  1.
</event>
<event>
12    1  0.1061634E+000  0.4190329E+03  0.7818608E-02  0.1037384E+00
         21   -1    0    0  501  502  0.00000000000E+00  0.00000000000E+00  0.50531096253E+03  0.50531096253E+03  0.00000000000E+00 0. -1.
         21   -1    0    0  502  503 -0.00000000000E+00 -0.00000000000E+00 -0.48475936986E+03  0.48475936986E+03  0.00000000000E+00 0. -1.
         -6    2    1    2    0  503 -0.22276028139E+03 -0.31025836765E+03 -0.25317435308E+03  0.48955615185E+03  0.17229502341E+03 0.  0.
        -24    2    3    3    0    0 -0.15448322825E+03 -0.10869015715E+03 -0.14948076022E+03  0.25277365531E+03  0.76625094239E+02 0.  0.
          6    2    1    2  501    0  0.22276028139E+03  0.31025836765E+03  0.27372594575E+03  0.50051418053E+03  0.17235473268E+03 0.  0.
         24    2    5    5    0    0  0.15599683736E+03  0.20275280354E+03  0.10041234963E+03  0.28586447433E+03  0.78690184370E+02 0.  0.
          5    1    5    5  501    0  0.66763444030E+02  0.10750556412E+03  0.17331359612E+03  0.21464970621E+03  0.47000000000E+01 0. -1.
        -13    1    6    6    0    0  0.12511573594E+03  0.18863783511E+03  0.10841209431E+03  0.25098080087E+03  0.00000000000E+00 0.  1.
         14    1    6    6    0    0  0.30881101418E+02  0.14114968427E+02 -0.79997446831E+01  0.34883673452E+02  0.00000000000E+00 0. -1.
         -5    1    3    3    0  503 -0.68277053139E+02 -0.20156821050E+03 -0.10369359285E+03  0.23678249654E+03  0.47000000000E+01 0.  1.
         13    1    4    4    0    0 -0.70971803972E+02 -0.69045664949E+01 -0.41557798176E+02  0.82533148412E+02  0.00000000000E+00 0. -1.
        -14    1    4    4    0    0 -0.83511424280E+02 -0.10178559066E+03 -0.10792296205E+03  0.17024050689E+03  0.00000000000E+00 0.  1.
</event>
<event>
12    1  0.1061634E+000  0.1926325E+03  0.7818608E-02  0.1157424E+00
         21   -1    0    0  503  502  0.00000000000E+00  0.00000000000E+00  0.43706092770E+02  0.43706092770E+02  0.00000000000E+00 0.  1.
         21   -1    0    0  501  503 -0.00000000000E+00 -0.00000000000E+00 -0.20787854946E+04  0.20787854946E+04  0.00000000000E+00 0.  1.
          6    2    1    2  501    0 -0.41984121082E+02  0.58540729323E+02 -0.18667884091E+03  0.26408046353E+03  0.17233635182E+03 0.  0.
         24    2    3    3    0    0 -0.20401928517E+01  0.10066671191E+03 -0.13352496974E+03  0.18522908540E+03  0.79642622143E+02 0.  0.
         -6    2    1    2    0  502  0.41984121082E+02 -0.58540729323E+02 -0.18484005609E+04  0.18584111238E+04  0.17865494175E+03 0.  0.
        -24    2    5    5    0    0  0.47852618923E+02 -0.46459831926E+02 -0.18376188994E+04  0.18405583489E+04  0.79771091563E+02 0.  0.
          5    1    3    3  501    0 -0.39943928230E+02 -0.42125982588E+02 -0.53153871175E+02  0.78851378125E+02  0.47000000000E+01 0. -1.
        -13    1    4    4    0    0 -0.22047693418E+01  0.64650136437E+02 -0.13444787758E+03  0.14920031144E+03  0.00000000000E+00 0.  1.
         14    1    4    4    0    0  0.16457649012E+00  0.36016575474E+02  0.92290783848E+00  0.36028773962E+02  0.00000000000E+00 0. -1.
         -5    1    5    5    0  502 -0.58684978416E+01 -0.12080897397E+02 -0.10781661498E+02  0.17852774952E+02  0.47000000000E+01 0.  1.
         11    1    6    6    0    0  0.17028479917E+02 -0.64894778577E+02 -0.13114725126E+04  0.13131875162E+04  0.00000000000E+00 0. -1.
        -12    1    6    6    0    0  0.30824139006E+02  0.18434946652E+02 -0.52614638682E+03  0.52737083268E+03  0.00000000000E+00 0.  1.
</event>
<event>
12    1  0.1061634E+000  0.2204073E+03  0.7818608E-02  0.1133590E+00
         21   -1    0    0  503  502  0.00000000000E+00  0.00000000000E+00  0.24367743098E+04  0.24367743098E+04  0.00000000000E+00 0. -1.
         21   -1    0    0  501  503 -0.00000000000E+00 -0.00000000000E+00 -0.22047344357E+02  0.22047344357E+02  0.00000000000E+00 0. -1.
          6    2    1    2  501    0 -0.13136587786E+03 -0.44772081648E+02  0.15884155350E+04  0.16036344024E+04  0.17122456462E+03 0.  0.
         24    2    3    3    0    0 -0.98207914809E+02 -0.33576950182E+02  0.15272093947E+04  0.15329727927E+04  0.82854339478E+02 0.  0.
         -6    2    1    2    0  502  0.13136587786E+03  0.44772081648E+02  0.82631143040E+03  0.85518725173E+03  0.17115233666E+03 0.  0.
        -24    2    5    5    0    0  0.30605344464E+02  0.37372862862E+02  0.60125067569E+03  0.60844474051E+03  0.79807325794E+02 0.  0.
          5    1    3    3  501    0 -0.33157963055E+02 -0.11195131465E+02  0.61206140267E+02  0.70661609725E+02  0.47000000000E+01 0. -1.
        -13    1    4    4    0    0 -0.16016981204E+02  0.25317224096E+02  0.25560416863E+03  0.25735383530E+03  0.00000000000E+00 0.  1.
         14    1    4    4    0    0 -0.82190933606E+02 -0.58894174279E+02  0.12716052261E+04  0.12756189574E+04  0.00000000000E+00 0. -1.
         -5    1    5    5    0  502  0.10076053340E+03  0.73992187855E+01  0.22506075471E+03  0.24674251122E+03  0.47000000000E+01 0.  1.
         13    1    6    6    0    0  0.50574002988E+02  0.46990251511E+02  0.39293360445E+03  0.39895191567E+03  0.00000000000E+00 0. -1.
        -14    1    6    6    0    0 -0.19968658524E+02 -0.96173886491E+01  0.20831707124E+03  0.20949282484E+03  0.00000000000E+00 0.  1.
</event>
<event>
12    1  0.1061634E+000  0.2819588E+03  0.7818608E-02  0.1095345E+00
         21   -1    0    0  503  502  0.00000000000E+00  0.00000000000E+00  0.20825490193E+04  0.20825490193E+04  0.00000000000E+00 0. -1.
         21   -1    0    0  501  503 -0.00000000000E+00 -0.00000000000E+00 -0.43044802999E+02  0.43044802999E+02  0.00000000000E+00 0. -1.
          6    2    1    2  501    0  0.20103798631E+03 -0.95809254704E+02  0.13940452405E+04  0.14212373275E+04  0.16418807319E+03 0.  0.
         24    2    3    3    0    0  0.18991567743E+03 -0.33096981845E+02  0.11654689244E+04  0.11839068465E+04  0.78448918528E+02 0.  0.
         -6    2    1    2    0  502 -0.20103798631E+03  0.95809254704E+02  0.64545897587E+03  0.70435649484E+03  0.17293090256E+03 0.  0.
        -24    2    5    5    0    0 -0.21225485567E+03  0.76860031470E+02  0.63712591405E+03  0.68034772272E+03  0.77356352388E+02 0.  0.
          5    1    3    3  501    0  0.11122308876E+02 -0.62712272859E+02  0.22857631610E+03  0.23733048099E+03  0.47000000000E+01 0. -1.
        -11    1    4    4    0    0  0.20042672642E+02 -0.31601482478E+02  0.25402682938E+03  0.25676836345E+03  0.00000000000E+00 0.  1.
         12    1    4    4    0    0  0.16987300479E+03 -0.14954993672E+01  0.91144209497E+03  0.92713848305E+03  0.00000000000E+00 0. -1.
         -5    1    5    5    0  502  0.11216869362E+02  0.18949223234E+02  0.83330618172E+01  0.24008772120E+02  0.47000000000E+01 0.  1.
         13    1    6    6    0    0 -0.62210446345E+02  0.54056864503E+02  0.29024269079E+03  0.30171692659E+03  0.00000000000E+00 0. -1.
        -14    1    6    6    0    0 -0.15004440933E+03  0.22803166967E+02  0.34688322326E+03  0.37863079612E+03  0.00000000000E+00 0.  1.
</event>
<event>
12    1  0.1061634E+000  0.2469956E+03  0.7818608E-02  0.1117451E+00
         21   -1    0    0  501  502  0.00000000000E+00  0.00000000000E+00  0.59752900579E+02  0.59752900579E+02  0.00000000000E+00 0. -1.
         21   -1    0    0  502  503 -0.00000000000E+00 -0.00000000000E+00 -0.98564489232E+03  0.98564489232E+03  0.00000000000E+00 0. -1.
         -6    2    1    2    0  503 -0.17632304984E+03  0.25903543994E+02 -0.40182635081E+03  0.47166856901E+03  0.17101465226E+03 0.  0.
        -24    2    3    3    0    0 -0.12344124113E+03 -0.16941091538E+02 -0.36567134671E+03  0.39445831834E+03  0.79731364644E+02 0.  0.
          6    2    1    2  501    0  0.17632304984E+03 -0.25903543994E+02 -0.52406564093E+03  0.57372922389E+03  0.15086290081E+03 0.  0.
         24    2    5    5    0    0  0.14183273972E+03  0.29242648515E+02 -0.33519860766E+03  0.37392048960E+03  0.80540470680E+02 0.  0.
          5    1    5    5  501    0  0.34490310122E+02 -0.55146192509E+02 -0.18886703328E+03  0.19980873429E+03  0.47000000000E+01 0. -1.
        -11    1    6    6    0    0  0.76757058892E+02  0.15881898383E+02 -0.26879638442E+03  0.27999174463E+03  0.00000000000E+00 0.  1.
         12    1    6    6    0    0  0.65075680832E+02  0.13360750132E+02 -0.66402223234E+02  0.93928744963E+02  0.00000000000E+00 0. -1.
         -5    1    3    3    0  503 -0.52881808715E+02  0.42844635532E+02 -0.36155004096E+02  0.77210250667E+02  0.47000000000E+01 0.  1.
         13    1    4    4    0    0 -0.46786200405E+02  0.27830041758E+02 -0.18980378632E+03  0.19745616495E+03  0.00000000000E+00 0. -1.
        -14    1    4    4    0    0 -0.76655040725E+02 -0.44771133296E+02 -0.17586756039E+03  0.19700215339E+03  0.00000000000E+00 0.  1.
</event>
<event>
12    1  0.1061634E+000  0.1824005E+03  0.7818608E-02  0.1165669E+00
         21   -1    0    0  503  502  0.00000000000E+00  0.00000000000E+00  0.18474664661E+03  0.18474664661E+03  0.00000000000E+00 0.  1.
         21   -1    0    0  501  503 -0.00000000000E+00 -0.00000000000E+00 -0.19093362989E+03  0.19093362989E+03  0.00000000000E+00 0.  1.
          6    2    1    2  501    0  0.24548807371E+02 -0.53745413061E+02 -0.49296505160E+02  0.18894469865E+03  0.17256517713E+03 0.  0.
         24    2    3    3    0    0  0.34964901328E+02 -0.38658595695E+02 -0.10086912182E+03  0.13400899204E+03  0.71181450287E+02 0.  0.
         -6    2    1    2    0  502 -0.24548807371E+02  0.53745413061E+02  0.43109521888E+02  0.18673557785E+03  0.17181540033E+03 0.  0.
        -24    2    5    5    0    0  0.12674349126E+01 -0.36349843174E+02  0.29889974152E+02  0.91970183302E+02  0.79007509591E+02 0.  0.
          5    1    3    3  501    0 -0.10416093957E+02 -0.15086817366E+02  0.51572616658E+02  0.54935706608E+02  0.47000000000E+01 0. -1.
        -13    1    4    4    0    0 -0.72964427291E+00 -0.50454440849E+02 -0.53623963588E+02  0.73632278608E+02  0.00000000000E+00 0.  1.
         14    1    4    4    0    0  0.35694545601E+02  0.11795845154E+02 -0.47245158231E+02  0.60376713431E+02  0.00000000000E+00 0. -1.
         -5    1    5    5    0  502 -0.25816242283E+02  0.90095256235E+02  0.13219547736E+02  0.94765394549E+02  0.47000000000E+01 0.  1.
         11    1    6    6    0    0 -0.37983579752E+02 -0.15570029831E+02  0.58398354431E+01  0.41464223587E+02  0.00000000000E+00 0. -1.
        -12    1    6    6    0    0  0.39251014664E+02 -0.20779813344E+02  0.24050138709E+02  0.50505959714E+02  0.00000000000E+00 0.  1.
</event>
<event>
12    1  0.1061634E+000  0.2074730E+03  0.7818608E-02  0.1143950E+00
         21   -1    0    0  501  502  0.00000000000E+00  0.00000000000E+00  0.24378027027E+02  0.24378027027E+02  0.00000000000E+00 0. -1.
         21   -1    0    0  502  503 -0.00000000000E+00 -0.00000000000E+00 -0.23587045270E+04  0.23587045270E+04  0.00000000000E+00 0. -1.
         -6    2    1    2    0  503  0.99059332627E+02  0.56666786612E+02 -0.55819961309E+03  0.59487904799E+03  0.17108593628E+03 0.  0.
        -24    2    3    3    0    0  0.11300321031E+02  0.55425525565E+01 -0.38943826557E+03  0.39785667910E+03  0.80432314842E+02 0.  0.
          6    2    1    2  501    0 -0.99059332627E+02 -0.56666786612E+02 -0.17761268869E+04  0.17882035060E+04  0.17326622472E+03 0.  0.
         24    2    5    5    0    0 -0.44107529649E+02  0.91125803145E+01 -0.13569806877E+04  0.13603574449E+04  0.84541574124E+02 0.  0.
          5    1    5    5  501    0 -0.54951802977E+02 -0.65779366927E+02 -0.41914619920E+03  0.42784606118E+03  0.47000000000E+01 0. -1.
        -11    1    6    6    0    0  0.24703798126E+02  0.11721647606E+01 -0.48483096776E+03  0.48546134646E+03  0.00000000000E+00 0.  1.
         12    1    6    6    0    0 -0.68811327776E+02  0.79404155539E+01 -0.87214971992E+03  0.87489609839E+03  0.00000000000E+00 0. -1.
         -5    1    3    3    0  503  0.87759011596E+02  0.51124234056E+02 -0.16876134752E+03  0.19702236888E+03  0.47000000000E+01 0.  1.
         13    1    4    4    0    0  0.36987519767E+02 -0.55951352447E+01 -0.95147808926E+02  0.10223740852E+03  0.00000000000E+00 0. -1.
        -14    1    4    4    0    0 -0.25687198737E+02  0.11137687801E+02 -0.29429045665E+03  0.29561927059E+03  0.00000000000E+00 0.  1.
</event>
<event>
12    1  0.1061634E+000  0.3479313E+03  0.7818608E-02  0.1063498E+00
         21   -1    0    0  503  502  0.00000000000E+00  0.00000000000E+00  0.69604606793E+03  0.69604606793E+03  0.00000000000E+00 0.  1.
         21   -1    0    0  501  503 -0.00000000000E+00 -0.00000000000E+00 -0.17469748840E+03  0.17469748840E+03  0.00000000000E+00 0. -1.
          6    2    1    2  501    0 -0.40812409186E+02 -0.29954764103E+03  0.22886242288E+03  0.41620605752E+03  0.17162468272E+03 0.  0.
         24    2    3    3    0    0 -0.79588402718E+02 -0.26815261239E+03  0.16295723978E+03  0.33341228566E+03  0.79803213321E+02 0.  0.
         -6    2    1    2    0  502  0.40812409186E+02  0.29954764103E+03  0.29248615664E+03  0.45453749881E+03  0.17222585174E+03 0.  0.
        -24    2    5    5    0    0  0.45877590571E+02  0.13814795413E+03  0.71369147211E+02  0.18069386303E+03  0.79794150276E+02 0.  0.
          5    1    3    3  501    0  0.38775993532E+02 -0.31395028635E+02  0.65905183106E+02  0.82793771853E+02  0.47000000000E+01 0. -1.
        -11    1    4    4    0    0  0.73611236169E+01 -0.14217914502E+01  0.13740223249E+02  0.15652519502E+02  0.00000000000E+00 0.  1.
         12    1    4    4    0    0 -0.86949526335E+02 -0.26673082094E+03  0.14921701653E+03  0.31775976616E+03  0.00000000000E+00 0. -1.
         -5    1    5    5    0  502 -0.50651813851E+01  0.16139968690E+03  0.22111700943E+03  0.27384363577E+03  0.47000000000E+01 0.  1.
         13    1    6    6    0    0 -0.22148732023E+02  0.39772561105E+02  0.11560130559E+02  0.46968708366E+02  0.00000000000E+00 0. -1.
        -14    1    6    6    0    0  0.68026322594E+02  0.98375393022E+02  0.59809016652E+02  0.13372515467E+03  0.00000000000E+00 0.  1.
</event>
<event>
12    1  0.1061634E+000  0.6321211E+03  0.7818608E-02  0.9841060E-01
         21   -1    0    0  501  502  0.00000000000E+00  0.00000000000E+00  0.18001539419E+04  0.18001539419E+04  0.00000000000E+00 0. -1.
         21   -1    0    0  502  503 -0.00000000000E+00 -0.00000000000E+00 -0.22345593526E+03  0.22345593526E+03  0.00000000000E+00 0.  1.
         -6    2    1    2    0  503 -0.59223487625E+03  0.13813431234E+03  0.87388721849E+03  0.10785434161E+04  0.17249287761E+03 0.  0.
        -24    2    3    3    0    0 -0.45099749515E+03  0.16305276874E+03  0.71290132578E+03  0.86288749814E+03  0.79759564437E+02 0.  0.
          6    2    1    2  501    0  0.59223487625E+03 -0.13813431234E+03  0.70281078816E+03  0.94506646110E+03  0.17141871264E+03 0.  0.
         24    2    5    5    0    0  0.25513796350E+03 -0.11303132006E+03  0.26411630649E+03  0.39122584589E+03  0.73680251119E+02 0.  0.
          5    1    5    5  501    0  0.33709691275E+03 -0.25102992286E+02  0.43869448166E+03  0.55384061520E+03  0.47000000000E+01 0. -1.
        -11    1    6    6    0    0  0.16067818519E+03 -0.63113710090E+02  0.20878546732E+03  0.27090993145E+03  0.00000000000E+00 0.  1.
         12    1    6    6    0    0  0.94459778313E+02 -0.49917609966E+02  0.55330839180E+02  0.12031591444E+03  0.00000000000E+00 0. -1.
         -5    1    3    3    0  503 -0.14123738110E+03 -0.24918456400E+02  0.16098589271E+03  0.21565591794E+03  0.47000000000E+01 0.  1.
         11    1    4    4    0    0 -0.93699253917E+02  0.60402787408E+02  0.20666246426E+03  0.23481358786E+03  0.00000000000E+00 0. -1.
        -12    1    4    4    0    0 -0.35729824123E+03  0.10264998133E+03  0.50623886152E+03  0.62807391028E+03  0.00000000000E+00 0.  1.
</event>
<event>
12    1  0.1061634E+000  0.2939546E+03  0.7818608E-02  0.1088396E+00
         21   -1    0    0  503  502  0.00000000000E+00  0.00000000000E+00  0.10225928213E+04  0.10225928213E+04  0.00000000000E+00 0. -1.
         21   -1    0    0  501  503 -0.00000000000E+00 -0.00000000000E+00 -0.11768117921E+03  0.11768117921E+03  0.00000000000E+00 0. -1.
          6    2    1    2  501    0 -0.14423653557E+03 -0.18982025610E+03  0.14835970487E+03  0.32862127523E+03  0.17072033471E+03 0.  0.
         24    2    3    3    0    0 -0.10825952586E+03 -0.13526250118E+03  0.17304947877E+03  0.25860292917E+03  0.83146158722E+02 0.  0.
         -6    2    1    2    0  502  0.14423653557E+03  0.18982025610E+03  0.75655193717E+03  0.81165272523E+03  0.17196919756E+03 0.  0.
        -24    2    5    5    0    0  0.69205975402E+02  0.91760477743E+02  0.22038174268E+03  0.26142925012E+03  0.81041273483E+02 0.  0.
          5    1    3    3  501    0 -0.35977009708E+02 -0.54557754922E+02 -0.24689773894E+02  0.70018346057E+02  0.47000000000E+01 0. -1.
        -11    1    4    4    0    0  0.68562109184E+01 -0.21832389739E+02  0.15218309427E+01  0.22934184949E+02  0.00000000000E+00 0.  1.
         12    1    4    4    0    0 -0.11511573678E+03 -0.11343011144E+03  0.17152764782E+03  0.23566874422E+03  0.00000000000E+00 0. -1.
         -5    1    5    5    0  502  0.75030560170E+02  0.98059778358E+02  0.53617019450E+03  0.55022347511E+03  0.47000000000E+01 0.  1.
         11    1    6    6    0    0  0.60948014838E+02  0.16451369576E+02  0.79992280064E+02  0.10190227153E+03  0.00000000000E+00 0. -1.
        -12    1    6    6    0    0  0.82579605635E+01  0.75309108167E+02  0.14038946261E+03  0.15952697859E+03  0.00000000000E+00 0.  1.
</event>
<event>
12    1  0.1061634E+000  0.1774772E+03  0.7818608E-02  0.1171565E+00
         21   -1    0    0  503  502  0.00000000000E+00  0.00000000000E+00  0.57530451152E+03  0.57530451152E+03  0.00000000000E+00 0. -1.
         21   -1    0    0  501  503 -0.00000000000E+00 -0.00000000000E+00 -0.53706819164E+02  0.53706819164E+02  0.00000000000E+00 0. -1.
          6    2    1    2  501    0 -0.42160346486E+02 -0.31860808508E+01  0.22532459049E+03  0.28364786931E+03  0.16702483875E+03 0.  0.
         24    2    3    3    0    0 -0.50132301756E+02  0.41058160460E+02  0.20907115198E+03  0.23561278606E+03  0.87198727885E+02 0.  0.
         -6    2    1    2    0  502  0.42160346486E+02  0.31860808508E+01  0.29627310186E+03  0.34536346137E+03  0.17236740885E+03 0.  0.
        -24    2    5    5    0    0  0.17710828807E+02  0.68384598697E+02  0.19399013421E+03  0.22153890356E+03  0.80356622784E+02 0.  0.
          5    1    3    3  501    0  0.79719552698E+01 -0.44244241311E+02  0.16253438516E+02  0.48035083258E+02  0.47000000000E+01 0. -1.
        -13    1    4    4    0    0 -0.27174543297E+01  0.56082237465E+02  0.13685684138E+03  0.14792699872E+03  0.00000000000E+00 0.  1.
         14    1    4    4    0    0 -0.47414847426E+02 -0.15024077005E+02  0.72214310597E+02  0.87685787339E+02  0.00000000000E+00 0. -1.
         -5    1    5    5    0  502  0.24449517679E+02 -0.65198517846E+02  0.10228296765E+03  0.12382455780E+03  0.47000000000E+01 0.  1.
         13    1    6    6    0    0  0.79586402019E+01  0.61847848465E+02  0.58377849441E+02  0.85419374963E+02  0.00000000000E+00 0. -1.
        -14    1    6    6    0    0  0.97521886049E+01  0.65367502317E+01  0.13561228477E+03  0.13611952860E+03  0.00000000000E+00 0.  1.
</event>
<event>
12    1  0.1061634E+000  0.2149758E+03  0.7818608E-02  0.1138119E+00
         21   -1    0    0  503  502  0.00000000000E+00  0.00000000000E+00  0.25275407323E+03  0.25275407323E+03  0.00000000000E+00 0.  1.
         21   -1    0    0  501  503 -0.00000000000E+00 -0.00000000000E+00 -0.18143778991E+03  0.18143778991E+03  0.00000000000E+00 0.  1.
          6    2    1    2  501    0 -0.12622734800E+03 -0.83673203860E+01  0.47254681001E+02  0.22010811372E+03  0.17381375497E+03 0.  0.
         24    2    3    3    0    0 -0.10002270000E+03 -0.69764574464E+02  0.47758593938E+02  0.15318539476E+03  0.79455934379E+02 0.  0.
         -6    2    1    2    0  502  0.12622734800E+03  0.83673203860E+01  0.24061602327E+02  0.21408374942E+03  0.17102495615E+03 0.  0.
        -24    2    5    5    0    0  0.61843039314E+02 -0.61307860555E+02  0.21021814520E+02  0.11905059545E+03  0.78408623971E+02 0.  0.
          5    1    3    3  501    0 -0.26204647994E+02  0.61397254078E+02 -0.50391293649E+00  0.66922718961E+02  0.47000000000E+01 0. -1.
        -11    1    4    4    0    0 -0.51529185761E+01  0.97902202459E+01  0.24946978906E+02  0.27290158278E+02  0.00000000000E+00 0.  1.
         12    1    4    4    0    0 -0.94869781426E+02 -0.79554794710E+02  0.22811615031E+02  0.12589523648E+03  0.00000000000E+00 0. -1.
         -5    1    5    5    0  502  0.64384308682E+02  0.69675180941E+02  0.30397878074E+01  0.95033153971E+02  0.47000000000E+01 0.  1.
         11    1    6    6    0    0  0.73977410792E+02 -0.45401812008E+02 -0.41489755331E+01  0.86897616993E+02  0.00000000000E+00 0. -1.
        -12    1    6    6    0    0 -0.12134371478E+02 -0.15906048548E+02  0.25170790053E+02  0.32152978454E+02  0.00000000000E+00 0.  1.
</event>
<event>
12    1  0.1061634E+000  0.2671588E+03  0.7818608E-02  0.1103102E+00
         21   -1    0    0  503  502  0.00000000000E+00  0.00000000000E+00  0.29848289530E+03  0.29848289530E+03  0.00000000000E+00 0. -1.
         21   -1    0    0  501  503 -0.00000000000E+00 -0.00000000000E+00 -0.28384110652E+03  0.28384110652E+03  0.00000000000E+00 0. -1.
          6    2    1    2  501    0  0.19661759533E+03  0.50807570931E+02  0.12434092430E+03  0.29352002345E+03  0.17162007648E+03 0.  0.
         24    2    3    3    0    0  0.21289546887E+03  0.67980129477E+02  0.97627661739E+02  0.25752621384E+03  0.82721289928E+02 0.  0.
         -6    2    1    2    0  502 -0.19661759533E+03 -0.50807570931E+02 -0.10969913552E+03  0.28880397837E+03  0.17359132907E+03 0.  0.
        -24    2    5    5    0    0 -0.39476683927E+02  0.55095253706E+01 -0.82592691472E+02  0.11962439720E+03  0.76809376239E+02 0.  0.
          5    1    3    3  501    0 -0.16277873536E+02 -0.17172558546E+02  0.26713262562E+02  0.35993809615E+02  0.47000000000E+01 0. -1.
        -11    1    4    4    0    0  0.15756995330E+03  0.52387897939E+02  0.10940377948E+03  0.19885162558E+03  0.00000000000E+00 0.  1.
         12    1    4    4    0    0  0.55325515573E+02  0.15592231539E+02 -0.11776117741E+02  0.58674588254E+02  0.00000000000E+00 0. -1.
         -5    1    5    5    0  502 -0.15714091141E+03 -0.56317096301E+02 -0.27106444049E+02  0.16917958116E+03  0.47000000000E+01 0.  1.
         11    1    6    6    0    0 -0.48101659036E+02  0.32213973560E+02 -0.61930203710E+02  0.84775349165E+02  0.00000000000E+00 0. -1.
        -12    1    6    6    0    0  0.86249751096E+01 -0.26704448189E+02 -0.20662487763E+02  0.34849048040E+02  0.00000000000E+00 0.  1.
</event>
<event>
12    1  0.1061634E+000  0.2003434E+03  0.7818608E-02  0.1150098E+00
         21   -1    0    0  503  502  0.00000000000E+00  0.00000000000E+00  0.88237188223E+03  0.88237188223E+03  0.00000000000E+00 0.  1.
         21   -1    0    0  501  503 -0.00000000000E+00 -0.00000000000E+00 -0.49904673289E+02  0.49904673289E+02  0.00000000000E+00 0.  1.
          6    2    1    2  501    0  0.79545295377E+02  0.54484096536E+02  0.56823526590E+03  0.60251870792E+03  0.17561749683E+03 0.  0.
         24    2    3    3    0    0  0.31864930704E+02  0.47348358575E+00  0.11519314440E+03  0.14375971092E+03  0.79886143789E+02 0.  0.
         -6    2    1    2    0  502 -0.79545295377E+02 -0.54484096536E+02  0.26423194304E+03  0.32975784759E+03  0.17212131633E+03 0.  0.
        -24    2    5    5    0    0 -0.10968390245E+03 -0.46017244946E+02  0.13445315868E+03  0.19617399347E+03  0.79110293547E+02 0.  0.
          5    1    3    3  501    0  0.47680364673E+02  0.54010612950E+02  0.45304212149E+03  0.45875899701E+03  0.47000000000E+01 0. -1.
        -11    1    4    4    0    0 -0.22942981333E+02  0.16436071060E+02  0.47048412636E+02  0.54864177347E+02  0.00000000000E+00 0.  1.
         12    1    4    4    0    0  0.54807912038E+02 -0.15962587475E+02  0.68144731768E+02  0.88895533569E+02  0.00000000000E+00 0. -1.
         -5    1    5    5    0  502  0.30138607078E+02 -0.84668515907E+01  0.12977878436E+03  0.13358385412E+03  0.47000000000E+01 0.  1.
         11    1    6    6    0    0 -0.11642943597E+03 -0.29096191471E+02  0.13095019048E+03  0.17762419403E+03  0.00000000000E+00 0. -1.
        -12    1    6    6    0    0  0.67455335170E+01 -0.16921053475E+02  0.35029682065E+01  0.18549799443E+02  0.00000000000E+00 0.  1.
</event>
<event>
12    1  0.1061634E+000  0.1810352E+03  0.7818608E-02  0.1166935E+00
         21   -1    0    0  501  502  0.00000000000E+00  0.00000000000E+00  0.77815323456E+03  0.77815323456E+03  0.00000000000E+00 0.  1.
         21   -1    0    0  502  503 -0.00000000000E+00 -0.00000000000E+00 -0.42325785909E+02  0.42325785909E+02  0.00000000000E+00 0.  1.
         -6    2    1    2    0  503 -0.12756109789E+02  0.56585844401E+02  0.33094110929E+03  0.37696274475E+03  0.17092166915E+03 0.  0.
        -24    2    3    3    0    0 -0.64278138120E+02  0.72054458824E+02  0.24797058768E+03  0.27796782118E+03  0.80331644947E+02 0.  0.
          6    2    1    2  501    0  0.12756109789E+02 -0.56585844401E+02  0.40488633936E+03  0.44351627573E+03  0.17149070794E+03 0.  0.
         24    2    5    5    0    0 -0.78414858744E+01  0.29854979385E+02  0.16469259377E+03  0.18736904778E+03  0.83849275057E+02 0.  0.
          5    1    5    5  501    0  0.20597595664E+02 -0.86440823786E+02  0.24019374559E+03  0.25614722794E+03  0.47000000000E+01 0. -1.
        -13    1    6    6    0    0 -0.38987394628E+02  0.13207574240E+01  0.11859003793E+03  0.12484133304E+03  0.00000000000E+00 0.  1.
         14    1    6    6    0    0  0.31145908753E+02  0.28534221962E+02  0.46102555848E+02  0.62527714741E+02  0.00000000000E+00 0. -1.
         -5    1    3    3    0  503  0.51522028331E+02 -0.15468614423E+02  0.82970521610E+02  0.98994923566E+02  0.47000000000E+01 0.  1.
         11    1    4    4    0    0 -0.51945903198E+02  0.18701840270E+01  0.13184482905E+03  0.14172132301E+03  0.00000000000E+00 0. -1.
        -12    1    4    4    0    0 -0.12332234922E+02  0.70184274797E+02  0.11612575863E+03  0.13624649817E+03  0.00000000000E+00 0.  1.
</event>
<event>
12    1  0.2895576E+000  0.1165383E+04  0.7818608E-02  0.9143753E-01
         21   -1    0    0  503  502  0.00000000000E+00  0.00000000000E+00  0.17848090152E+04  0.17848090152E+04  0.00000000000E+00 0.  1.
         21   -1    0    0  501  503 -0.00000000000E+00 -0.00000000000E+00 -0.23143166430E+04  0.23143166430E+04  0.00000000000E+00 0.  1.
          6    2    1    2  501    0  0.50078022262E+03 -0.10380939184E+04  0.14144725532E+04  0.18325915090E+04  0.17099479539E+03 0.  0.
         24    2    3    3    0    0  0.29884002530E+03 -0.63481090133E+03  0.75531356041E+03  0.10338864927E+04  0.78310051131E+02 0.  0.
         -6    2    1    2    0  502 -0.50078022262E+03  0.10380939184E+04 -0.19439801811E+04  0.22665341492E+04  0.17233191932E+03 0.  0.
        -24    2    5    5    0    0 -0.40591614209E+03  0.94562693763E+03 -0.17397588668E+04  0.20230638810E+04  0.83954347294E+02 0.  0.
          5    1    3    3  501    0  0.20194019731E+03 -0.40328301712E+03  0.65915899283E+03  0.79870501627E+03  0.47000000000E+01 0. -1.
        -13    1    4    4    0    0  0.50928188442E+02 -0.16115509994E+03  0.21892860136E+03  0.27657617234E+03  0.00000000000E+00 0.  1.
         14    1    4    4    0    0  0.24791183686E+03 -0.47365580139E+03  0.53638495905E+03  0.75731032037E+03  0.00000000000E+00 0. -1.
         -5    1    5    5    0  502 -0.94864080525E+02  0.92466980814E+02 -0.20422131430E+03  0.24347026826E+03  0.47000000000E+01 0.  1.
         13    1    6    6    0    0 -0.53979242063E+02  0.82912487622E+02 -0.20487465542E+03  0.22751233727E+03  0.00000000000E+00 0. -1.
        -14    1    6    6    0    0 -0.35193690003E+03  0.86271445001E+03 -0.15348842114E+04  0.17955515437E+04  0.00000000000E+00 0.  1.
</event>
<event>
12    1  0.1061634E+000  0.2478819E+03  0.7818608E-02  0.1114960E+00
         21   -1    0    0  503  502  0.00000000000E+00  0.00000000000E+00  0.20624544340E+03  0.20624544340E+03  0.00000000000E+00 0. -1.
         21   -1    0    0  501  503 -0.00000000000E+00 -0.00000000000E+00 -0.32890990976E+03  0.32890990976E+03  0.00000000000E+00 0. -1.
          6    2    1    2  501    0 -0.13518557070E+03 -0.11359381273E+03 -0.14668354821E+03  0.28803037148E+03  0.17397338521E+03 0.  0.
         24    2    3    3    0    0 -0.10837940194E+03 -0.14147012913E+03 -0.80685257436E+02  0.21139145131E+03  0.80102076855E+02 0.  0.
         -6    2    1    2    0  502  0.13518557070E+03  0.11359381273E+03  0.24019081858E+02  0.24712498168E+03  0.17121666818E+03 0.  0.
        -24    2    5    5    0    0  0.67175659374E+02  0.39237230571E+02  0.74711845317E+02  0.13422637400E+03  0.79891990661E+02 0.  0.
          5    1    3    3  501    0 -0.26806168763E+02  0.27876316403E+02 -0.65998290776E+02  0.76638920173E+02  0.47000000000E+01 0. -1.
        -13    1    4    4    0    0 -0.43814686084E+02 -0.10807773644E+03 -0.23644815799E+02  0.11899412231E+03  0.00000000000E+00 0.  1.
         14    1    4    4    0    0 -0.64564715857E+02 -0.33392392691E+02 -0.57040441637E+02  0.92397328996E+02  0.00000000000E+00 0. -1.
         -5    1    5    5    0  502  0.68009911331E+02  0.74356582155E+02 -0.50692763459E+02  0.11289860768E+03  0.47000000000E+01 0.  1.
         11    1    6    6    0    0 -0.67167719949E+01 -0.83096471861E+01 -0.81592148152E+01  0.13443885182E+02  0.00000000000E+00 0. -1.
        -12    1    6    6    0    0  0.73892431368E+02  0.47546877757E+02  0.82871060132E+02  0.12078248882E+03  0.00000000000E+00 0.  1.
</event>
<event>
12    1  0.1061634E+000  0.1795858E+03  0.7818608E-02  0.1168458E+00
         21   -1    0    0  503  502  0.00000000000E+00  0.00000000000E+00  0.46808088516E+03  0.46808088516E+03  0.00000000000E+00 0.  1.
         21   -1    0    0  501  503 -0.00000000000E+00 -0.00000000000E+00 -0.98229884350E+02  0.98229884350E+02  0.00000000000E+00 0.  1.
          6    2    1    2  501    0 -0.45084987425E+02  0.18748624442E+02  0.34032168291E+03  0.38431335913E+03  0.17173742497E+03 0.  0.
         24    2    3    3    0    0 -0.73993514659E+02 -0.35167545281E+02  0.25314476293E+03  0.27770866091E+03  0.79548933958E+02 0.  0.
         -6    2    1    2    0  502  0.45084987425E+02 -0.18748624442E+02  0.29529317903E+02  0.18199741038E+03  0.17282045527E+03 0.  0.
        -24    2    5    5    0    0  0.26498702724E+02 -0.61012486341E+02 -0.29592579710E+02  0.10683643129E+03  0.78189497636E+02 0.  0.
          5    1    3    3  501    0  0.28908527234E+02  0.53916169723E+02  0.87176919976E+02  0.10660469821E+03  0.47000000000E+01 0. -1.
        -11    1    4    4    0    0 -0.22150200795E+02 -0.18492500944E+02  0.13324555050E+02  0.31782821676E+02  0.00000000000E+00 0.  1.
         12    1    4    4    0    0 -0.51843313864E+02 -0.16675044337E+02  0.23982020788E+03  0.24592583924E+03  0.00000000000E+00 0. -1.
         -5    1    5    5    0  502  0.18586284701E+02  0.42263861899E+02  0.59121897613E+02  0.75160979098E+02  0.47000000000E+01 0.  1.
         11    1    6    6    0    0  0.35974322532E+02 -0.64716738028E+02  0.15650387481E+01  0.74059823176E+02  0.00000000000E+00 0. -1.
        -12    1    6    6    0    0 -0.94756198072E+01  0.37042516864E+01 -0.31157618458E+02  0.32776608111E+02  0.00000000000E+00 0.  1.
</event>
<event>
12    1  0.1061634E+000  0.1967250E+03  0.7818608E-02  0.1152595E+00
         21   -1    0    0  503  502  0.00000000000E+00  0.00000000000E+00  0.63443223874E+03  0.63443223874E+03  0.00000000000E+00 0.  1.
         21   -1    0    0  501  503 -0.00000000000E+00 -0.00000000000E+00 -0.62384834609E+02  0.62384834609E+02  0.00000000000E+00 0. -1.
          6    2    1    2  501    0 -0.83083065383E+02 -0.46931518374E+02  0.33938491362E+03  0.39213268469E+03  0.17169903796E+03 0.  0.
         24    2    3    3    0    0  0.83264455737E+01 -0.60441897899E+02  0.21021034261E+03  0.23324156208E+03  0.80564790216E+02 0.  0.
         -6    2    1    2    0  502  0.83083065383E+02  0.46931518374E+02  0.23266249051E+03  0.30468438866E+03  0.17203307541E+03 0.  0.
        -24    2    5    5    0    0  0.25710941016E+02  0.85575102773E+02  0.18532724157E+03  0.22073438532E+03  0.79958312206E+02 0.  0.
          5    1    3    3  501    0 -0.91409510957E+02  0.13510379524E+02  0.12917457101E+03  0.15889112261E+03  0.47000000000E+01 0. -1.
        -13    1    4    4    0    0 -0.10197915702E+02 -0.64208091389E+02  0.87098040430E+02  0.10868645330E+03  0.00000000000E+00 0.  1.
         14    1    4    4    0    0  0.18524361275E+02  0.37661934907E+01  0.12311230218E+03  0.12455510878E+03  0.00000000000E+00 0. -1.
         -5    1    5    5    0  502  0.57372124367E+02 -0.38643584398E+02  0.47335248942E+02  0.83950003347E+02  0.47000000000E+01 0.  1.
         11    1    6    6    0    0 -0.19113732727E+02  0.83061627591E+01  0.82746902555E+01  0.22423149140E+02  0.00000000000E+00 0. -1.
        -12    1    6    6    0    0  0.44824673743E+02  0.77268940014E+02  0.17705255132E+03  0.19831123618E+03  0.00000000000E+00 0.  1.
</event>
<event>
12    1  0.1061634E+000  0.3850042E+03  0.7818608E-02  0.1049176E+00
         21   -1    0    0  503  502  0.00000000000E+00  0.00000000000E+00  0.13584671451E+04  0.13584671451E+04  0.00000000000E+00 0.  1.
         21   -1    0    0  501  503 -0.00000000000E+00 -0.00000000000E+00 -0.11061108131E+03  0.11061108131E+03  0.00000000000E+00 0.  1.
          6    2    1    2  501    0  0.28429786238E+03 -0.19304370180E+03  0.71525022407E+03  0.81188934335E+03  0.17172733464E+03 0.  0.
         24    2    3    3    0    0  0.59457866304E+02 -0.62914106045E+02  0.28449521367E+03  0.30883993771E+03  0.83373604476E+02 0.  0.
         -6    2    1    2    0  502 -0.28429786238E+03  0.19304370180E+03  0.53260583975E+03  0.65718888309E+03  0.17360040945E+03 0.  0.
        -24    2    5    5    0    0 -0.27709107265E+03  0.13044544738E+03  0.40019238952E+03  0.51047183883E+03  0.81437536338E+02 0.  0.
          5    1    3    3  501    0  0.22483999608E+03 -0.13012959575E+03  0.43075501040E+03  0.50304940564E+03  0.47000000000E+01 0. -1.
        -11    1    4    4    0    0  0.73766516454E+02 -0.32378734216E+02  0.23898561361E+03  0.25219834435E+03  0.00000000000E+00 0.  1.
         12    1    4    4    0    0 -0.14308650150E+02 -0.30535371829E+02  0.45509600057E+02  0.56641593367E+02  0.00000000000E+00 0. -1.
         -5    1    5    5    0  502 -0.72067897302E+01  0.62598254416E+02  0.13241345023E+03  0.14671704425E+03  0.47000000000E+01 0.  1.
         13    1    6    6    0    0 -0.23851334388E+03  0.13313712137E+03  0.37638721430E+03  0.46506068785E+03  0.00000000000E+00 0. -1.
        -14    1    6    6    0    0 -0.38577728774E+02 -0.26916739918E+01  0.23805175222E+02  0.45411150983E+02  0.00000000000E+00 0.  1.
</event>
<event>
12    1  0.1061634E+000  0.1855798E+03  0.7818608E-02  0.1162900E+00
         21   -1    0    0  503  502  0.00000000000E+00  0.00000000000E+00  0.39368559505E+03  0.39368559505E+03  0.00000000000E+00 0. -1.
         21   -1    0    0  501  503 -0.00000000000E+00 -0.00000000000E+00 -0.93543500338E+02  0.93543500338E+02  0.00000000000E+00 0.  1.
          6    2    1    2  501    0  0.63791284540E+02  0.13976901651E+02  0.21535642546E+03  0.28319851359E+03  0.17192535109E+03 0.  0.
         24    2    3    3    0    0  0.68238778203E+02  0.70559302630E+02  0.15025672320E+03  0.19670337190E+03  0.80498370252E+02 0.  0.
         -6    2    1    2    0  502 -0.63791284540E+02 -0.13976901651E+02  0.84785669244E+02  0.20403058179E+03  0.17371006544E+03 0.  0.
        -24    2    5    5    0    0 -0.80032210902E+02 -0.32766347286E+02  0.33067227286E+01  0.11872102968E+03  0.81270906094E+02 0.  0.
          5    1    3    3  501    0 -0.44474936628E+01 -0.56582400979E+02  0.65099702268E+02  0.86495141689E+02  0.47000000000E+01 0. -1.
        -13    1    4    4    0    0  0.31785842435E+02  0.86824423646E+01  0.32722401433E+01  0.33112416709E+02  0.00000000000E+00 0.  1.
         14    1    4    4    0    0  0.36452935768E+02  0.61876860265E+02  0.14698448305E+03  0.16359095519E+03  0.00000000000E+00 0. -1.
         -5    1    5    5    0  502  0.16240926361E+02  0.18789445635E+02  0.81478946515E+02  0.85309552112E+02  0.47000000000E+01 0.  1.
         13    1    6    6    0    0 -0.30671937705E+02  0.24432099842E+02  0.15548835748E+02  0.42183664592E+02  0.00000000000E+00 0. -1.
        -14    1    6    6    0    0 -0.49360273196E+02 -0.57198447127E+02 -0.12242113019E+02  0.76537365090E+02  0.00000000000E+00 0.  1.
</event>
<event>
12    1  0.1061634E+000  0.4891238E+03  0.7818608E-02  0.1016775E+00
         21   -1    0    0  503  502  0.00000000000E+00  0.00000000000E+00  0.18411557998E+03  0.18411557998E+03  0.00000000000E+00 0. -1.
         21   -1    0    0  501  503 -0.00000000000E+00 -0.00000000000E+00 -0.12968840113E+04  0.12968840113E+04  0.00000000000E+00 0.  1.
          6    2    1    2  501    0 -0.45146891842E+03 -0.72508384562E+02 -0.52546763238E+03  0.71669316777E+03  0.16867487637E+03 0.  0.
         24    2    3    3    0    0 -0.39900666385E+03 -0.13261064657E+02 -0.42815710482E+03  0.59117838041E+03  0.82408721807E+02 0.  0.
         -6    2    1    2    0  502  0.45146891842E+03  0.72508384562E+02 -0.58730079895E+03  0.76430642352E+03  0.17366758609E+03 0.  0.
        -24    2    5    5    0    0  0.15693403582E+03  0.88396420632E+01 -0.29957958936E+03  0.34764098184E+03  0.79999318916E+02 0.  0.
          5    1    3    3  501    0 -0.52462254569E+02 -0.59247319905E+02 -0.97310527559E+02  0.12551478735E+03  0.47000000000E+01 0. -1.
        -11    1    4    4    0    0 -0.32561823830E+03 -0.19409408154E+02 -0.38934801687E+03  0.50793290942E+03  0.00000000000E+00 0.  1.
         12    1    4    4    0    0 -0.73388425551E+02  0.61483434969E+01 -0.38809087951E+02  0.83245470989E+02  0.00000000000E+00 0. -1.
         -5    1    5    5    0  502  0.29453488260E+03  0.63668742499E+02 -0.28772120959E+03  0.41666544167E+03  0.47000000000E+01 0.  1.
         13    1    6    6    0    0  0.42076735340E+02 -0.33566509575E+02 -0.85928432492E+02  0.10139456461E+03  0.00000000000E+00 0. -1.
        -14    1    6    6    0    0  0.11485730048E+03  0.42406151638E+02 -0.21365115686E+03  0.24624641723E+03  0.00000000000E+00 0.  1.
</event>
<event>
12    1  0.1061634E+000  0.2036744E+03  0.7818608E-02  0.1149710E+00
         21   -1    0    0  503  502  0.00000000000E+00  0.00000000000E+00  0.49829315286E+02  0.49829315286E+02  0.00000000000E+00 0. -1.
         21   -1    0    0  501  503 -0.00000000000E+00 -0.00000000000E+00 -0.77558973644E+03  0.77558973644E+03  0.00000000000E+00 0. -1.
          6    2    1    2  501    0  0.10743414824E+03  0.23943583818E+02 -0.35131216361E+03  0.39916237485E+03  0.15425619526E+03 0.  0.
         24    2    3    3    0    0  0.95900226206E+02  0.68179668625E+02 -0.25548146954E+03  0.29288220509E+03  0.81632617143E+02 0.  0.
         -6    2    1    2    0  502 -0.10743414824E+03 -0.23943583818E+02 -0.37444825754E+03  0.42625667687E+03  0.17137055054E+03 0.  0.
        -24    2    5    5    0    0 -0.31123433923E+02 -0.73350973607E+02 -0.23456194329E+03  0.25935944443E+03  0.76804835163E+02 0.  0.
          5    1    3    3  501    0  0.11533922035E+02 -0.44236084808E+02 -0.95830694076E+02  0.10628016976E+03  0.47000000000E+01 0. -1.
        -13    1    4    4    0    0  0.48406503756E+02  0.75070137823E+01 -0.37522154064E+02  0.61704593893E+02  0.00000000000E+00 0.  1.
         14    1    4    4    0    0  0.47493722450E+02  0.60672654843E+02 -0.21795931547E+03  0.23117761120E+03  0.00000000000E+00 0. -1.
         -5    1    5    5    0  502 -0.76310714318E+02  0.49407389789E+02 -0.13988631425E+03  0.16689723245E+03  0.47000000000E+01 0.  1.
         11    1    6    6    0    0 -0.38274193138E+02 -0.73709285425E+02 -0.12817055183E+03  0.15272741396E+03  0.00000000000E+00 0. -1.
        -12    1    6    6    0    0  0.71507592152E+01  0.35831181742E+00 -0.10639139146E+03  0.10663203046E+03  0.00000000000E+00 0.  1.
</event>
<event>
12    1  0.1061634E+000  0.2394047E+03  0.7818608E-02  0.1120799E+00
         21   -1    0    0  501  502  0.00000000000E+00  0.00000000000E+00  0.65174499911E+03  0.65174499911E+03  0.00000000000E+00 0. -1.
         21   -1    0    0  502  503 -0.00000000000E+00 -0.00000000000E+00 -0.14514944353E+03  0.14514944353E+03  0.00000000000E+00 0.  1.
         -6    2    1    2    0  503  0.85753463102E+02  0.13655121778E+03 -0.86832125403E+00  0.23579355544E+03  0.17204056293E+03 0.  0.
        -24    2    3    3    0    0  0.74514266748E+02  0.10607592849E+03  0.62193919855E+02  0.16470207180E+03  0.80338099528E+02 0.  0.
          6    2    1    2  501    0 -0.85753463102E+02 -0.13655121778E+03  0.50746387684E+03  0.56110088720E+03  0.17695967849E+03 0.  0.
         24    2    5    5    0    0  0.13211772783E+02 -0.10873616113E+03  0.25371543850E+03  0.28727949423E+03  0.78484905512E+02 0.  0.
          5    1    5    5  501    0 -0.98965235885E+02 -0.27815056650E+02  0.25374843834E+03  0.27382139297E+03  0.47000000000E+01 0. -1.
        -11    1    6    6    0    0 -0.12654180564E+02 -0.10768675048E+03  0.19517835990E+03  0.22327372592E+03  0.00000000000E+00 0.  1.
         12    1    6    6    0    0  0.25865953347E+02 -0.10494106520E+01  0.58537078607E+02  0.64005768311E+02  0.00000000000E+00 0. -1.
         -5    1    3    3    0  503  0.11239196354E+02  0.30475289295E+02 -0.63062241109E+02  0.71091483639E+02  0.47000000000E+01 0.  1.
         11    1    4    4    0    0 -0.16809876806E+02  0.12808824179E+02  0.14931215189E+02  0.25876226968E+02  0.00000000000E+00 0. -1.
        -12    1    4    4    0    0  0.91324143554E+02  0.93267104307E+02  0.47262704666E+02  0.13882584483E+03  0.00000000000E+00 0.  1.
</event>
<event>
12    1  0.1061634E+000  0.1743029E+03  0.7818608E-02  0.1174121E+00
         21   -1    0    0  501  502  0.00000000000E+00  0.00000000000E+00  0.62416462522E+03  0.62416462522E+03  0.00000000000E+00 0.  1.
         21   -1    0    0  502  503 -0.00000000000E+00 -0.00000000000E+00 -0.56436838249E+02  0.56436838249E+02  0.00000000000E+00 0.  1.
         -6    2    1    2    0  503  0.20964048305E+02  0.95644158665E+01  0.14982283597E+03  0.22780343794E+03  0.17004868358E+03 0.  0.
        -24    2    3    3    0    0 -0.37109665558E+02 -0.22050626465E+02  0.13239713764E+03  0.15926285065E+03  0.77280632362E+02 0.  0.
          6    2    1    2  501    0 -0.20964048305E+02 -0.95644158665E+01  0.41790495100E+03  0.45279802552E+03  0.17277307220E+03 0.  0.
         24    2    5    5    0    0 -0.58219381158E+02 -0.10158231493E+02  0.13430927298E+03  0.16672651167E+03  0.79158466875E+02 0.  0.
          5    1    5    5  501    0  0.37255332853E+02  0.59381562685E+00  0.28359567802E+03  0.28607151385E+03  0.47000000000E+01 0. -1.
        -13    1    6    6    0    0 -0.47741017151E+02 -0.34058013922E+02  0.45681655142E+02  0.74336845827E+02  0.00000000000E+00 0.  1.
         14    1    6    6    0    0 -0.10478364007E+02  0.23899782429E+02  0.88627617834E+02  0.92389665847E+02  0.00000000000E+00 0. -1.
         -5    1    3    3    0  503  0.58073713862E+02  0.31615042332E+02  0.17425698330E+02  0.68540587288E+02  0.47000000000E+01 0.  1.
         13    1    4    4    0    0 -0.24414854640E+02 -0.82210175242E+00 -0.14840312620E+00  0.24429142472E+02  0.00000000000E+00 0. -1.
        -14    1    4    4    0    0 -0.12694810917E+02 -0.21228524713E+02  0.13254554076E+03  0.13483370818E+03  0.00000000000E+00 0.  1.
</event>
<event>
12    1  0.1061634E+000  0.2323669E+03  0.7818608E-02  0.1125047E+00
         21   -1    0    0  501  502  0.00000000000E+00  0.00000000000E+00  0.20295303166E+03  0.20295303166E+03  0.00000000000E+00 0.  1.
         21   -1    0    0  502  503 -0.00000000000E+00 -0.00000000000E+00 -0.29301772597E+03  0.29301772597E+03  0.00000000000E+00 0.  1.
         -6    2    1    2    0  503  0.33880127018E+02  0.15121845216E+03  0.30807338782E+02  0.23404630986E+03  0.17266644073E+03 0.  0.
        -24    2    3    3    0    0 -0.26201682561E+02  0.78371015725E+02  0.65576085273E+02  0.13331136770E+03  0.81505542909E+02 0.  0.
          6    2    1    2  501    0 -0.33880127018E+02 -0.15121845216E+03 -0.12087203309E+03  0.26192444777E+03  0.17314584798E+03 0.  0.
         24    2    5    5    0    0 -0.40710244006E+02 -0.15290537510E+03 -0.14892158568E+03  0.23262660472E+03  0.83066966025E+02 0.  0.
          5    1    5    5  501    0  0.68301169875E+01  0.16869229304E+01  0.28049552584E+02  0.29297843047E+02  0.47000000000E+01 0. -1.
        -11    1    6    6    0    0 -0.46217096211E+02 -0.50872355885E+02 -0.94514151910E+02  0.11686291750E+03  0.00000000000E+00 0.  1.
         12    1    6    6    0    0  0.55068522055E+01 -0.10203301921E+03 -0.54407433768E+02  0.11576368722E+03  0.00000000000E+00 0. -1.
         -5    1    3    3    0  503  0.60081809579E+02  0.72847436440E+02 -0.34768746491E+02  0.10073494215E+03  0.47000000000E+01 0.  1.
         11    1    4    4    0    0 -0.17266920725E+02 -0.76056615746E+01 -0.73197240321E+01  0.20237860539E+02  0.00000000000E+00 0. -1.
        -12    1    4    4    0    0 -0.89347618363E+01  0.85976677299E+02  0.72895809305E+02  0.11307350717E+03  0.00000000000E+00 0.  1.
</event>
<event>
12    1  0.1061634E+000  0.3115187E+03  0.7818608E-02  0.1079679E+00
         21   -1    0    0  503  502  0.00000000000E+00  0.00000000000E+00  0.15731967598E+04  0.15731967598E+04  0.00000000000E+00 0.  1.
         21   -1    0    0  501  503 -0.00000000000E+00 -0.00000000000E+00 -0.64197034588E+02  0.64197034588E+02  0.00000000000E+00 0. -1.
          6    2    1    2  501    0 -0.14581536917E+03  0.21435513927E+03  0.92009890016E+03  0.97140407880E+03  0.17272420390E+03 0.  0.
         24    2    3    3    0    0 -0.17558395924E+03  0.17045754926E+03  0.78614750602E+03  0.82725750979E+03  0.80259475750E+02 0.  0.
         -6    2    1    2    0  502  0.14581536917E+03 -0.21435513927E+03  0.58890082505E+03  0.66598971558E+03  0.17183675947E+03 0.  0.
        -24    2    5    5    0    0  0.60690488798E+01 -0.81215774437E+02  0.16749564279E+03  0.20246027516E+03  0.79388521173E+02 0.  0.
          5    1    3    3  501    0  0.29768590069E+02  0.43897590013E+02  0.13395139414E+03  0.14414656900E+03  0.47000000000E+01 0. -1.
        -13    1    4    4    0    0 -0.37775035675E+01  0.68546121587E+01  0.11766955993E+03  0.11792955768E+03  0.00000000000E+00 0.  1.
         14    1    4    4    0    0 -0.17180645567E+03  0.16360293710E+03  0.66847794609E+03  0.70932795211E+03  0.00000000000E+00 0. -1.
         -5    1    5    5    0  502  0.13974632029E+03 -0.13313936483E+03  0.42140518226E+03  0.46352944042E+03  0.47000000000E+01 0.  1.
         13    1    6    6    0    0  0.22482701601E+02 -0.11533386173E+02  0.62395204087E+01  0.26027341063E+02  0.00000000000E+00 0. -1.
        -14    1    6    6    0    0 -0.16413652721E+02 -0.69682388265E+02  0.16125612238E+03  0.17643293410E+03  0.00000000000E+00 0.  1.
</event>
<event>
12    1  0.1061634E+000  0.2082008E+03  0.7818608E-02  0.1143141E+00
         21   -1    0    0  501  502  0.00000000000E+00  0.00000000000E+00  0.33251885292E+03  0.33251885292E+03  0.00000000000E+00 0. -1.
         21   -1    0    0  502  503 -0.00000000000E+00 -0.00000000000E+00 -0.16824377240E+03  0.16824377240E+03  0.00000000000E+00 0. -1.
         -6    2    1    2    0  503 -0.83644249441E+02 -0.81661293552E+02  0.20153242142E+03  0.28925455159E+03  0.17142914397E+03 0.  0.
        -24    2    3    3    0    0 -0.14968706749E+02 -0.47434925638E+02  0.18424568571E+03  0.21045927473E+03  0.88727105577E+02 0.  0.
          6    2    1    2  501    0  0.83644249441E+02  0.81661293552E+02 -0.37257340907E+02  0.21150807373E+03  0.17228647211E+03 0.  0.
         24    2    5    5    0    0  0.82616490942E+02  0.75814085840E+01 -0.64943507716E+02  0.13227740115E+03  0.79979305632E+02 0.  0.
          5    1    5    5  501    0  0.10277584987E+01  0.74079884968E+02  0.27686166809E+02  0.79230672577E+02  0.47000000000E+01 0. -1.
        -13    1    6    6    0    0  0.34094270238E+02  0.16460180766E+02  0.13005818343E+02  0.40031339282E+02  0.00000000000E+00 0.  1.
         14    1    6    6    0    0  0.48522220704E+02 -0.88787721816E+01 -0.77949326060E+02  0.92246061871E+02  0.00000000000E+00 0. -1.
         -5    1    3    3    0  503 -0.68675542692E+02 -0.34226367914E+02  0.17286735710E+02  0.78795276864E+02  0.47000000000E+01 0.  1.
         13    1    4    4    0    0 -0.47364660430E+02 -0.47151127481E+02  0.14431415764E+03  0.15903841038E+03  0.00000000000E+00 0. -1.
        -14    1    4    4    0    0  0.32395953681E+02 -0.28379815770E+00  0.39931528064E+02  0.51420864344E+02  0.00000000000E+00 0.  1.
</event>
<event>
12    1  0.1061634E+000  0.2668647E+03  0.7818608E-02  0.1103109E+00
         21   -1    0    0  503  502  0.00000000000E+00  0.00000000000E+00  0.75993213517E+03  0.75993213517E+03  0.00000000000E+00 0. -1.
         21   -1    0    0  501  503 -0.00000000000E+00 -0.00000000000E+00 -0.10677361879E+03  0.10677361879E+03  0.00000000000E+00 0.  1.
          6    2    1    2  501    0  0.20917987293E+02  0.20254906848E+03  0.47850856349E+03  0.54789341120E+03  0.17249074575E+03 0.  0.
         24    2    3    3    0    0  0.27889456976E+02  0.12203278742E+03  0.16273190729E+03  0.22190497658E+03  0.84204049572E+02 0.  0.
         -6    2    1    2    0  502 -0.20917987293E+02 -0.20254906848E+03  0.17464995289E+03  0.31881234275E+03  0.17226437970E+03 0.  0.
        -24    2    5    5    0    0  0.36541055876E+02 -0.14456410353E+03  0.16572881427E+03  0.23655983813E+03  0.79123247805E+02 0.  0.
          5    1    3    3  501    0 -0.69714696821E+01  0.80516281056E+02  0.31577665621E+03  0.32598843463E+03  0.47000000000E+01 0. -1.
        -11    1    4    4    0    0 -0.21912065280E+02  0.80184989213E+02  0.11165010549E+03  0.13919596674E+03  0.00000000000E+00 0.  1.
         12    1    4    4    0    0  0.49801522255E+02  0.41847798208E+02  0.51081801793E+02  0.82709009837E+02  0.00000000000E+00 0. -1.
         -5    1    5    5    0  502 -0.57459043170E+02 -0.57984964947E+02  0.89211386163E+01  0.82252504619E+02  0.47000000000E+01 0.  1.
         11    1    6    6    0    0 -0.21574130427E+02 -0.72439917374E+02  0.84396748695E+02  0.11329517167E+03  0.00000000000E+00 0. -1.
        -12    1    6    6    0    0  0.58115186303E+02 -0.72124186156E+02  0.81332065577E+02  0.12326466647E+03  0.00000000000E+00 0.  1.
</event>
<event>
12    1  0.1061634E+000  0.2050173E+03  0.7818608E-02  0.1145721E+00
         21   -1    0    0  503  502  0.00000000000E+00  0.00000000000E+00  0.62928229606E+02  0.62928229606E+02  0.00000000000E+00 0.  1.
         21   -1    0    0  501  503 -0.00000000000E+00 -0.00000000000E+00 -0.78255964574E+03  0.78255964574E+03  0.00000000000E+00 0.  1.
          6    2    1    2  501    0  0.85270533073E+02 -0.68809320728E+02 -0.52271342718E+03  0.56121898506E+03  0.17242863975E+03 0.  0.
         24    2    3    3    0    0  0.47968504883E+02 -0.56349423520E+02 -0.50652484485E+03  0.51843054569E+03  0.82015713521E+02 0.  0.
         -6    2    1    2    0  502 -0.85270533073E+02  0.68809320728E+02 -0.19691798895E+03  0.28426889029E+03  0.17328104681E+03 0.  0.
        -24    2    5    5    0    0 -0.50663471739E+02 -0.77890384440E+01 -0.34864103074E+02  0.10165314822E+03  0.80563021118E+02 0.  0.
          5    1    3    3  501    0  0.37302028191E+02 -0.12459897209E+02 -0.16188582332E+02  0.42788439368E+02  0.47000000000E+01 0. -1.
        -11    1    4    4    0    0  0.37334093562E+02 -0.74074306170E+02 -0.31301116959E+03  0.32381604294E+03  0.00000000000E+00 0.  1.
         12    1    4    4    0    0  0.10634411320E+02  0.17724882650E+02 -0.19351367526E+03  0.19461450275E+03  0.00000000000E+00 0. -1.
         -5    1    5    5    0  502 -0.34607061335E+02  0.76598359172E+02 -0.16205388588E+03  0.18261574206E+03  0.47000000000E+01 0.  1.
         11    1    6    6    0    0 -0.66942672225E+02 -0.21193667888E+02 -0.38765316546E+02  0.80207497717E+02  0.00000000000E+00 0. -1.
        -12    1    6    6    0    0  0.16279200486E+02  0.13404629444E+02  0.39012134720E+01  0.21445650504E+02  0.00000000000E+00 0.  1.
</event>
<event>
12    1  0.1061634E+000  0.2962888E+03  0.7818608E-02  0.1087325E+00
         21   -1    0    0  501  502  0.00000000000E+00  0.00000000000E+00  0.28924319897E+04  0.28924319897E+04  0.00000000000E+00 0. -1.
         21   -1    0    0  502  503 -0.00000000000E+00 -0.00000000000E+00 -0.32840206040E+02  0.32840206040E+02  0.00000000000E+00 0. -1.
         -6    2    1    2    0  503  0.20465999202E+03 -0.12158302173E+03  0.18424684761E+04  0.18658729037E+04  0.17356112433E+03 0.  0.
        -24    2    3    3    0    0  0.16210974306E+03 -0.13828510228E+03  0.17196628687E+04  0.17347516225E+04  0.81978481478E+02 0.  0.
          6    2    1    2  501    0 -0.20465999202E+03  0.12158302173E+03  0.10171233075E+04  0.10593992920E+04  0.17640548081E+03 0.  0.
         24    2    5    5    0    0 -0.16126115540E+03  0.17511806663E+02  0.70404507763E+03  0.72660153830E+03  0.77191324120E+02 0.  0.
          5    1    5    5  501    0 -0.43398836620E+02  0.10407121507E+03  0.31307822991E+03  0.33279775370E+03  0.47000000000E+01 0. -1.
        -11    1    6    6    0    0 -0.64449328440E+02 -0.11732983885E+02  0.42025209240E+03  0.42532716821E+03  0.00000000000E+00 0.  1.
         12    1    6    6    0    0 -0.96811826955E+02  0.29244790548E+02  0.28379298523E+03  0.30127437009E+03  0.00000000000E+00 0. -1.
         -5    1    3    3    0  503  0.42550248956E+02  0.16702080549E+02  0.12280560737E+03  0.13112128119E+03  0.47000000000E+01 0.  1.
         13    1    4    4    0    0  0.32994603036E+02 -0.78798212742E+02  0.58029377530E+03  0.58654809505E+03  0.00000000000E+00 0. -1.
        -14    1    4    4    0    0  0.12911514002E+03 -0.59486889542E+02  0.11393690934E+04  0.11482035275E+04  0.00000000000E+00 0.  1.
</event>
<event>
12    1  0.1061634E+000  0.1851842E+03  0.7818608E-02  0.1163203E+00
         21   -1    0    0  501  502  0.00000000000E+00  0.00000000000E+00  0.18245641101E+04  0.18245641101E+04  0.00000000000E+00 0.  1.
         21   -1    0    0  502  503 -0.00000000000E+00 -0.00000000000E+00 -0.28437057954E+02  0.28437057954E+02  0.00000000000E+00 0.  1.
         -6    2    1    2    0  503  0.77488166620E+01 -0.67617267984E+02  0.14392545318E+04  0.14509424806E+04  0.17072883617E+03 0.  0.
        -24    2    3    3    0    0 -0.13961172872E+02 -0.10998473614E+03  0.10643192695E+04  0.10729677897E+04  0.78694433134E+02 0.  0.
          6    2    1    2  501    0 -0.77488166620E+01  0.67617267984E+02  0.35687252028E+03  0.40205868742E+03  0.17222384653E+03 0.  0.
         24    2    5    5    0    0  0.24861750050E+02  0.66263915322E+02  0.35281191321E+03  0.36883431151E+03  0.80953629679E+02 0.  0.
          5    1    5    5  501    0 -0.32610566712E+02  0.13533526627E+01  0.40606070662E+01  0.33224375908E+02  0.47000000000E+01 0. -1.
        -13    1    6    6    0    0  0.28011524627E+02  0.20183673222E+02  0.40913125345E+02  0.53534194700E+02  0.00000000000E+00 0.  1.
         14    1    6    6    0    0 -0.31497745764E+01  0.46080242099E+02  0.31189878786E+03  0.31530011681E+03  0.00000000000E+00 0. -1.
         -5    1    3    3    0  503  0.21709989534E+02  0.42367468156E+02  0.37493526236E+03  0.37797469091E+03  0.47000000000E+01 0.  1.
         11    1    4    4    0    0 -0.97584023496E+01 -0.31376531339E+02  0.67339971253E+03  0.67420092403E+03  0.00000000000E+00 0. -1.
        -12    1    4    4    0    0 -0.42027705227E+01 -0.78608204801E+02  0.39091955694E+03  0.39876686565E+03  0.00000000000E+00 0.  1.
</event>
<event>
12    1  0.1061634E+000  0.2829896E+03  0.7818608E-02  0.1094267E+00
         21   -1    0    0  503  502  0.00000000000E+00  0.00000000000E+00  0.17535384298E+04  0.17535384298E+04  0.00000000000E+00 0.  1.
         21   -1    0    0  501  503 -0.00000000000E+00 -0.00000000000E+00 -0.89978338347E+02  0.89978338347E+02  0.00000000000E+00 0. -1.
          6    2    1    2  501    0 -0.22244654264E+03  0.70249725598E+01  0.18210980913E+03  0.33528004062E+03  0.17238592892E+03 0.  0.
         24    2    3    3    0    0 -0.12028615995E+03  0.64455382345E+02  0.13928940117E+03  0.21041742373E+03  0.79061358094E+02 0.  0.
         -6    2    1    2    0  502  0.22244654264E+03 -0.70249725598E+01  0.14814502823E+04  0.15082367275E+04  0.17478922359E+03 0.  0.
        -24    2    5    5    0    0  0.14424581904E+03 -0.88349816633E+01  0.57500849117E+03  0.59841397552E+03  0.81114782709E+02 0.  0.
          5    1    3    3  501    0 -0.10216038269E+03 -0.57430409785E+02  0.42820407962E+02  0.12486261689E+03  0.47000000000E+01 0. -1.
        -13    1    4    4    0    0 -0.31257892184E+02  0.28681370702E+02  0.96398326896E+02  0.10532005639E+03  0.00000000000E+00 0.  1.
         14    1    4    4    0    0 -0.89028267767E+02  0.35774011643E+02  0.42891074270E+02  0.10509736734E+03  0.00000000000E+00 0. -1.
         -5    1    5    5    0  502  0.78200723594E+02  0.18100091035E+01  0.90644179118E+03  0.90982275202E+03  0.47000000000E+01 0.  1.
         11    1    6    6    0    0  0.75252623740E+02  0.16861285325E+02  0.16872686829E+03  0.18551554222E+03  0.00000000000E+00 0. -1.
        -12    1    6    6    0    0  0.68993195304E+02 -0.25696266989E+02  0.40628162288E+03  0.41289843330E+03  0.00000000000E+00 0.  1.
</event>
<event>
12    1  0.1061634E+000  0.2437548E+03  0.7818608E-02  0.1117330E+00
         21   -1    0    0  501  502  0.00000000000E+00  0.00000000000E+00  0.11550446467E+03  0.11550446467E+03  0.00000000000E+00 0.  1.
         21   -1    0    0  502  503 -0.00000000000E+00 -0.00000000000E+00 -0.73727683682E+03  0.73727683682E+03  0.00000000000E+00 0.  1.
         -6    2    1    2    0  503  0.19948623230E+02  0.17117177466E+03 -0.76400829602E+02  0.25544762704E+03  0.17239106528E+03 0.  0.
        -24    2    3    3    0    0  0.77553863568E+02  0.93666650871E+02 -0.60376252381E+02  0.15744617295E+03  0.79724289188E+02 0.  0.
          6    2    1    2  501    0 -0.19948623230E+02 -0.17117177466E+03 -0.54537154255E+03  0.59733367444E+03  0.17227790106E+03 0.  0.
         24    2    5    5    0    0  0.28497494397E+02 -0.69408535095E+02 -0.33502974731E+03  0.35865283302E+03  0.10371726528E+03 0.  0.
          5    1    5    5  501    0 -0.48446117627E+02 -0.10176323956E+03 -0.21034179524E+03  0.23868084143E+03  0.47000000000E+01 0. -1.
        -13    1    6    6    0    0  0.34185707900E+02 -0.93417574950E+02 -0.29792210162E+03  0.31409088584E+03  0.00000000000E+00 0.  1.
         14    1    6    6    0    0 -0.56882135029E+01  0.24009039855E+02 -0.37107645692E+02  0.44561947179E+02  0.00000000000E+00 0. -1.
         -5    1    3    3    0  503 -0.57605240338E+02  0.77505123789E+02 -0.16024577221E+02  0.98001454086E+02  0.47000000000E+01 0.  1.
         13    1    4    4    0    0 -0.13039852502E+02 -0.24007648043E+01 -0.38222576685E+01  0.13798952084E+02  0.00000000000E+00 0. -1.
        -14    1    4    4    0    0  0.90593716070E+02  0.96067415675E+02 -0.56553994712E+02  0.14364722087E+03  0.00000000000E+00 0.  1.
</event>
<event>
12    1  0.1061634E+000  0.1910587E+03  0.7818608E-02  0.1159898E+00
         21   -1    0    0  503  502  0.00000000000E+00  0.00000000000E+00  0.35523881801E+03  0.35523881801E+03  0.00000000000E+00 0. -1.
         21   -1    0    0  501  503 -0.00000000000E+00 -0.00000000000E+00 -0.98555190006E+02  0.98555190006E+02  0.00000000000E+00 0. -1.
          6    2    1    2  501    0  0.52300210293E+02 -0.16822591764E+02  0.15076750937E+03  0.23534113560E+03  0.17215195797E+03 0.  0.
         24    2    3    3    0    0  0.88216931184E+02 -0.28778097371E+02  0.64012227864E+02  0.14057028659E+03  0.83976391438E+02 0.  0.
         -6    2    1    2    0  502 -0.52300210293E+02  0.16822591764E+02  0.10591611863E+03  0.21845287241E+03  0.18298940321E+03 0.  0.
        -24    2    5    5    0    0  0.41944473177E+02  0.15613164684E+01  0.23586139068E+02  0.92297086097E+02  0.78744330632E+02 0.  0.
          5    1    3    3  501    0 -0.35916720891E+02  0.11955505607E+02  0.86755281505E+02  0.94770849014E+02  0.47000000000E+01 0. -1.
        -13    1    4    4    0    0  0.39655065720E+02 -0.40453008215E+02  0.70241603392E+02  0.90237757939E+02  0.00000000000E+00 0.  1.
         14    1    4    4    0    0  0.48561865464E+02  0.11674910843E+02 -0.62293755279E+01  0.50332528647E+02  0.00000000000E+00 0. -1.
         -5    1    5    5    0  502 -0.94244683469E+02  0.15261275295E+02  0.82329979564E+02  0.12615578632E+03  0.47000000000E+01 0.  1.
         11    1    6    6    0    0  0.71389883842E+01 -0.30191439045E+02  0.31852356912E+02  0.44464151713E+02  0.00000000000E+00 0. -1.
        -12    1    6    6    0    0  0.34805484792E+02  0.31752755513E+02 -0.82662178441E+01  0.47832934384E+02  0.00000000000E+00 0.  1.
</event>
<event>
12    1  0.1061634E+000  0.2059632E+03  0.7818608E-02  0.1145267E+00
         21   -1    0    0  503  502  0.00000000000E+00  0.00000000000E+00  0.92026605240E+02  0.92026605240E+02  0.00000000000E+00 0.  1.
         21   -1    0    0  501  503 -0.00000000000E+00 -0.00000000000E+00 -0.58169945037E+03  0.58169945037E+03  0.00000000000E+00 0.  1.
          6    2    1    2  501    0 -0.84576863684E+02 -0.74868403482E+02 -0.40256112760E+03  0.45219057554E+03  0.17222755714E+03 0.  0.
         24    2    3    3    0    0 -0.72455669770E+02 -0.52314259968E+01 -0.34282765727E+03  0.35952769487E+03  0.80325393823E+02 0.  0.
         -6    2    1    2    0  502  0.84576863684E+02  0.74868403482E+02 -0.87111717530E+02  0.22153548007E+03  0.16950219435E+03 0.  0.
        -24    2    5    5    0    0  0.31814772856E+02  0.67594479640E+02  0.12740231605E+02  0.10826920114E+03  0.77322137613E+02 0.  0.
          5    1    3    3  501    0 -0.12121193914E+02 -0.69636977485E+02 -0.59733470332E+02  0.92662880665E+02  0.47000000000E+01 0. -1.
        -13    1    4    4    0    0  0.11319821670E+02  0.17975765844E+02 -0.60606606945E+02  0.64221704475E+02  0.00000000000E+00 0.  1.
         14    1    4    4    0    0 -0.83775491440E+02 -0.23207191841E+02 -0.28222105032E+03  0.29530599040E+03  0.00000000000E+00 0. -1.
         -5    1    5    5    0  502  0.52762090828E+02  0.72739238417E+01 -0.99851949135E+02  0.11326627893E+03  0.47000000000E+01 0.  1.
         11    1    6    6    0    0  0.26028677440E+02  0.11483265469E+01 -0.21055169812E+02  0.33498222027E+02  0.00000000000E+00 0. -1.
        -12    1    6    6    0    0  0.57860954154E+01  0.66446153093E+02  0.33795401417E+02  0.74770979116E+02  0.00000000000E+00 0.  1.
</event>
<event>
12    1  0.1061634E+000  0.1787624E+03  0.7818608E-02  0.1169085E+00
         21   -1    0    0  503  502  0.00000000000E+00  0.00000000000E+00  0.23722951188E+03  0.23722951188E+03  0.00000000000E+00 0.  1.
         21   -1    0    0  501  503 -0.00000000000E+00 -0.00000000000E+00 -0.13463560033E+03  0.13463560033E+03  0.00000000000E+00 0.  1.
          6    2    1    2  501    0  0.52702681750E+02  0.76337852642E+00  0.58008161211E+02  0.18793869227E+03  0.17081525071E+03 0.  0.
         24    2    3    3    0    0  0.40294369252E+02 -0.49627842227E+02  0.80990926328E+02  0.13098661733E+03  0.80693276389E+02 0.  0.
         -6    2    1    2    0  502 -0.52702681750E+02 -0.76337852642E+00  0.44585750339E+02  0.18392641993E+03  0.17047839571E+03 0.  0.
        -24    2    5    5    0    0 -0.66740489707E+02  0.47481076378E+01 -0.29792264640E+02  0.10788948388E+03  0.79219468610E+02 0.  0.
          5    1    3    3  501    0  0.12408312498E+02  0.50391220753E+02 -0.22982765118E+02  0.56952074945E+02  0.47000000000E+01 0. -1.
        -11    1    4    4    0    0  0.10380353064E+02 -0.67085910584E+02  0.59156072156E+02  0.90042834260E+02  0.00000000000E+00 0.  1.
         12    1    4    4    0    0  0.29914016189E+02  0.17458068357E+02  0.21834854173E+02  0.40943783070E+02  0.00000000000E+00 0. -1.
         -5    1    5    5    0  502  0.14037807957E+02 -0.55114861642E+01  0.74378014980E+02  0.76036936053E+02  0.47000000000E+01 0.  1.
         11    1    6    6    0    0 -0.64959885925E+02 -0.27942697162E+02 -0.16921930208E+02  0.72711297788E+02  0.00000000000E+00 0. -1.
        -12    1    6    6    0    0 -0.17806037822E+01  0.32690804800E+02 -0.12870334433E+02  0.35178186091E+02  0.00000000000E+00 0.  1.
</event>
<event>
12    1  0.1061634E+000  0.2504149E+03  0.7818608E-02  0.1113712E+00
         21   -1    0    0  501  502  0.00000000000E+00  0.00000000000E+00  0.28063957929E+03  0.28063957929E+03  0.00000000000E+00 0. -1.
         21   -1    0    0  502  503 -0.00000000000E+00 -0.00000000000E+00 -0.23495396398E+03  0.23495396398E+03  0.00000000000E+00 0. -1.
         -6    2    1    2    0  503  0.14433568893E+03  0.11055182693E+03 -0.43004789426E+02  0.24993659468E+03  0.16602527491E+03 0.  0.
        -24    2    3    3    0    0  0.66206365681E+02  0.25603794345E+02 -0.75467968207E+02  0.12995198163E+03  0.78442757244E+02 0.  0.
          6    2    1    2  501    0 -0.14433568893E+03 -0.11055182693E+03  0.88690404735E+02  0.26565694859E+03  0.17220083887E+03 0.  0.
         24    2    5    5    0    0 -0.86284183399E+02 -0.12846960560E+03  0.10461480992E+03  0.20267519911E+03  0.78635729867E+02 0.  0.
          5    1    5    5  501    0 -0.58051505528E+02  0.17917778678E+02 -0.15924405183E+02  0.62981749478E+02  0.47000000000E+01 0. -1.
        -13    1    6    6    0    0 -0.18786931431E+02 -0.78820105778E+02  0.19719120279E+02  0.83393054699E+02  0.00000000000E+00 0.  1.
         14    1    6    6    0    0 -0.67497251969E+02 -0.49649499825E+02  0.84895689639E+02  0.11928214441E+03  0.00000000000E+00 0. -1.
         -5    1    3    3    0  503  0.78129323247E+02  0.84948032580E+02  0.32463178781E+02  0.11998461304E+03  0.47000000000E+01 0.  1.
         13    1    4    4    0    0  0.24169795116E+02  0.38753518016E+02 -0.72653401400E+02  0.85816845022E+02  0.00000000000E+00 0. -1.
        -14    1    4    4    0    0  0.42036570565E+02 -0.13149723671E+02 -0.28145668070E+01  0.44135136613E+02  0.00000000000E+00 0.  1.
</event>
<event>
12    1  0.1061634E+000  0.1830944E+03  0.7818608E-02  0.1164952E+00
         21   -1    0    0  503  502  0.00000000000E+00  0.00000000000E+00  0.52789599973E+03  0.52789599973E+03  0.00000000000E+00 0.  1.
         21   -1    0    0  501  503 -0.00000000000E+00 -0.00000000000E+00 -0.97269025066E+02  0.97269025066E+02  0.00000000000E+00 0.  1.
          6    2    1    2  501    0 -0.20127904164E+01  0.62103106872E+02  0.30884408799E+02  0.18568088158E+03  0.17222861513E+03 0.  0.
         24    2    3    3    0    0 -0.68546820564E+02  0.44228727666E+02  0.22189863294E+02  0.11608234912E+03  0.79547940157E+02 0.  0.
         -6    2    1    2    0  502  0.20127904164E+01 -0.62103106872E+02  0.39974256587E+03  0.43948414322E+03  0.17173044565E+03 0.  0.
        -24    2    5    5    0    0  0.89031443265E+01 -0.13372000897E+02  0.37589645160E+03  0.38459402724E+03  0.79726702393E+02 0.  0.
          5    1    3    3  501    0  0.66534030147E+02  0.17874379207E+02  0.86945455043E+01  0.69598532464E+02  0.47000000000E+01 0. -1.
        -13    1    4    4    0    0 -0.45209762048E+01 -0.16306352889E+02 -0.12861038503E+02  0.21254239148E+02  0.00000000000E+00 0.  1.
         14    1    4    4    0    0 -0.64025844359E+02  0.60535080555E+02  0.35050901797E+02  0.94828109970E+02  0.00000000000E+00 0. -1.
         -5    1    5    5    0  502 -0.68903539101E+01 -0.48731105975E+02  0.23846114269E+02  0.54890115980E+02  0.47000000000E+01 0.  1.
         13    1    6    6    0    0 -0.12315519343E+02 -0.33724297737E+02  0.85763659527E+02  0.92975295483E+02  0.00000000000E+00 0. -1.
        -14    1    6    6    0    0  0.21218663670E+02  0.20352296840E+02  0.29013279207E+03  0.29161873176E+03  0.00000000000E+00 0.  1.
</event>
<event>
12    1  0.1061634E+000  0.2067924E+03  0.7818608E-02  0.1144272E+00
         21   -1    0    0  501  502  0.00000000000E+00  0.00000000000E+00  0.70643226218E+03  0.70643226218E+03  0.00000000000E+00 0.  1.
         21   -1    0    0  502  503 -0.00000000000E+00 -0.00000000000E+00 -0.92342279257E+02  0.92342279257E+02  0.00000000000E+00 0.  1.
         -6    2    1    2    0  503  0.96343558050E+02 -0.61246283115E+02  0.54253141871E+03  0.58060611011E+03  0.17242368295E+03 0.  0.
        -24    2    3    3    0    0  0.47853098092E+02 -0.21725335405E+02  0.12405207979E+03  0.15745096467E+03  0.81486063711E+02 0.  0.
          6    2    1    2  501    0 -0.96343558050E+02  0.61246283115E+02  0.71558564220E+02  0.21816843133E+03  0.17159151477E+03 0.  0.
         24    2    5    5    0    0 -0.64261027633E+02 -0.28391307425E+02  0.58184345991E+02  0.12191280236E+03  0.80881192190E+02 0.  0.
          5    1    5    5  501    0 -0.32082530416E+02  0.89637590540E+02  0.13374218229E+02  0.96255628973E+02  0.47000000000E+01 0. -1.
        -13    1    6    6    0    0 -0.28575341661E+02  0.14812295595E+02 -0.99558899254E+01  0.33690859236E+02  0.00000000000E+00 0.  1.
         14    1    6    6    0    0 -0.35685685972E+02 -0.43203603020E+02  0.68140235916E+02  0.88221943120E+02  0.00000000000E+00 0. -1.
         -5    1    3    3    0  503  0.48490459957E+02 -0.39520947709E+02  0.41847933892E+03  0.42315514544E+03  0.47000000000E+01 0.  1.
         11    1    4    4    0    0 -0.16076343755E+02  0.14971069934E+02  0.18569950670E+02  0.28764993158E+02  0.00000000000E+00 0. -1.
        -12    1    4    4    0    0  0.63929441847E+02 -0.36696405340E+02  0.10548212912E+03  0.12868597151E+03  0.00000000000E+00 0.  1.
</event>
<event>
12    1  0.1061634E+000  0.1768911E+03  0.7818608E-02  0.1171061E+00
         21   -1    0    0  503  502  0.00000000000E+00  0.00000000000E+00  0.12847751803E+03  0.12847751803E+03  0.00000000000E+00 0.  1.
         21   -1    0    0  501  503 -0.00000000000E+00 -0.00000000000E+00 -0.24624821449E+03  0.24624821449E+03  0.00000000000E+00 0.  1.
          6    2    1    2  501    0  0.36629198773E+02  0.62655474911E+01 -0.82575537010E+02  0.19521575326E+03  0.17294367789E+03 0.  0.
         24    2    3    3    0    0 -0.34600413910E+02  0.42681631356E+02 -0.46657490716E+02  0.10739784543E+03  0.79614480242E+02 0.  0.
         -6    2    1    2    0  502 -0.36629198773E+02 -0.62655474911E+01 -0.35195159445E+02  0.17950997926E+03  0.17205864731E+03 0.  0.
        -24    2    5    5    0    0 -0.83820680176E+02  0.97129146960E+01 -0.42457274322E+02  0.12894145660E+03  0.87766918317E+02 0.  0.
          5    1    3    3  501    0  0.71229612683E+02 -0.36416083865E+02 -0.35918046294E+02  0.87817907836E+02  0.47000000000E+01 0. -1.
        -13    1    4    4    0    0 -0.45966253826E+02  0.38549862145E+02 -0.82559524001E+00  0.59997249684E+02  0.00000000000E+00 0.  1.
         14    1    4    4    0    0  0.11365839915E+02  0.41317692117E+01 -0.45831895476E+02  0.47400595742E+02  0.00000000000E+00 0. -1.
         -5    1    5    5    0  502  0.47191481403E+02 -0.15978462187E+02  0.72621148766E+01  0.50568522653E+02  0.47000000000E+01 0.  1.
         13    1    6    6    0    0 -0.74393006213E+02  0.25856656294E+02  0.40038890780E+01  0.78860111437E+02  0.00000000000E+00 0. -1.
        -14    1    6    6    0    0 -0.94276739628E+01 -0.16143741598E+02 -0.46461163400E+02  0.50081345165E+02  0.00000000000E+00 0.  1.
</event>
<event>
12    1  0.1061634E+000  0.2197173E+03  0.7818608E-02  0.1134313E+00
         21   -1    0    0  501  502  0.00000000000E+00  0.00000000000E+00  0.42226279035E+03  0.42226279035E+03  0.00000000000E+00 0. -1.
         21   -1    0    0  502  503 -0.00000000000E+00 -0.00000000000E+00 -0.21184444371E+03  0.21184444371E+03  0.00000000000E+00 0. -1.
         -6    2    1    2    0  503  0.81297820184E+02 -0.10748480682E+03 -0.11072338355E+03  0.24499578510E+03  0.17204925978E+03 0.  0.
        -24    2    3    3    0    0  0.11114703942E+03 -0.10639956246E+03 -0.12280526694E+03  0.21243483378E+03  0.79830406194E+02 0.  0.
          6    2    1    2  501    0 -0.81297820184E+02  0.10748480682E+03  0.32114173018E+03  0.38911144896E+03  0.17353209958E+03 0.  0.
         24    2    5    5    0    0 -0.85112409923E+02  0.12841990557E+03  0.19553987457E+03  0.26163303671E+03  0.80499744621E+02 0.  0.
          5    1    5    5  501    0  0.38145897391E+01 -0.20935098756E+02  0.12560185561E+03  0.12747841224E+03  0.47000000000E+01 0. -1.
        -11    1    6    6    0    0 -0.74156545699E+02  0.69002050047E+02  0.16579256657E+03  0.19428754801E+03  0.00000000000E+00 0.  1.
         12    1    6    6    0    0 -0.10955864223E+02  0.59417855526E+02  0.29747308000E+02  0.67345488708E+02  0.00000000000E+00 0. -1.
         -5    1    3    3    0  503 -0.29849219240E+02 -0.10852443605E+01  0.12081883390E+02  0.32560951319E+02  0.47000000000E+01 0.  1.
         13    1    4    4    0    0  0.20450609685E+02 -0.19622840954E+01 -0.54344022892E+02  0.58097769488E+02  0.00000000000E+00 0. -1.
        -14    1    4    4    0    0  0.90696429739E+02 -0.10443727836E+03 -0.68461244044E+02  0.15433706429E+03  0.00000000000E+00 0.  1.
</event>
<event>
12    1  0.1061634E+000  0.2747076E+03  0.7818608E-02  0.1098648E+00
         21   -1    0    0  501  502  0.00000000000E+00  0.00000000000E+00  0.14593093809E+04  0.14593093809E+04  0.00000000000E+00 0.  1.
         21   -1    0    0  502  503 -0.00000000000E+00 -0.00000000000E+00 -0.61245015137E+02  0.61245015137E+02  0.00000000000E+00 0.  1.
         -6    2    1    2    0  503  0.17729280269E+03  0.12086697227E+03  0.99992336300E+03  0.10369720290E+04  0.17153044669E+03 0.  0.
        -24    2    3    3    0    0  0.15751374726E+03  0.11014322345E+03  0.99054226761E+03  0.10121465426E+04  0.79526910913E+02 0.  0.
          6    2    1    2  501    0 -0.17729280269E+03 -0.12086697227E+03  0.39814100273E+03  0.48358236702E+03  0.17115514823E+03 0.  0.
         24    2    5    5    0    0 -0.28193431168E+02 -0.11507007663E+02  0.17737262119E+03  0.19557022711E+03  0.76546627605E+02 0.  0.
          5    1    5    5  501    0 -0.14909937152E+03 -0.10935996461E+03  0.22076838154E+03  0.28801213991E+03  0.47000000000E+01 0. -1.
        -11    1    6    6    0    0  0.22231802375E+02  0.11370253143E+02  0.76859986801E+02  0.80814560968E+02  0.00000000000E+00 0.  1.
         12    1    6    6    0    0 -0.50425233544E+02 -0.22877260806E+02  0.10051263439E+03  0.11475566614E+03  0.00000000000E+00 0. -1.
         -5    1    3    3    0  503  0.19779055435E+02  0.10723748823E+02  0.93810953947E+01  0.24825486370E+02  0.47000000000E+01 0.  1.
         13    1    4    4    0    0  0.67849335784E+02  0.80408534962E+02  0.37823011184E+03  0.39259022194E+03  0.00000000000E+00 0. -1.
        -14    1    4    4    0    0  0.89664411474E+02  0.29734688489E+02  0.61231215576E+03  0.61955632067E+03  0.00000000000E+00 0.  1.
</event>
<event>
12    1  0.1061634E+000  0.2879205E+03  0.7818608E-02  0.1091640E+00
         21   -1    0    0  503  502  0.00000000000E+00  0.00000000000E+00  0.46395265997E+03  0.46395265997E+03  0.00000000000E+00 0.  1.
         21   -1    0    0  501  503 -0.00000000000E+00 -0.00000000000E+00 -0.24004576635E+03  0.24004576635E+03  0.00000000000E+00 0.  1.
          6    2    1    2  501    0 -0.89555763941E+02 -0.21142896134E+03 -0.67597933423E+02  0.29427502380E+03  0.17118956885E+03 0.  0.
         24    2    3    3    0    0  0.10684694556E+02 -0.72157581686E+02 -0.57504793996E+02  0.12231971515E+03  0.79589145548E+02 0.  0.
         -6    2    1    2    0  502  0.89555763941E+02  0.21142896134E+03  0.29150482705E+03  0.40972340252E+03  0.17371172048E+03 0.  0.
        -24    2    5    5    0    0  0.48614853599E+02  0.22235560956E+03  0.26979721440E+03  0.36188136841E+03  0.79763192091E+02 0.  0.
          5    1    3    3  501    0 -0.10024045850E+03 -0.13927137965E+03 -0.10093139427E+02  0.17195530865E+03  0.47000000000E+01 0. -1.
        -13    1    4    4    0    0  0.17966318079E+02  0.13171683978E+02 -0.13281535548E+02  0.25936095131E+02  0.00000000000E+00 0.  1.
         14    1    4    4    0    0 -0.72816235221E+01 -0.85329265665E+02 -0.44223258448E+02  0.96383620018E+02  0.00000000000E+00 0. -1.
         -5    1    5    5    0  502  0.40940910343E+02 -0.10926648220E+02  0.21707612651E+02  0.47842034112E+02  0.47000000000E+01 0.  1.
         11    1    6    6    0    0 -0.18774469155E+02  0.50361370602E+02  0.39759696130E+02  0.66854930838E+02  0.00000000000E+00 0. -1.
        -12    1    6    6    0    0  0.67389322754E+02  0.17199423895E+03  0.23003751827E+03  0.29502643757E+03  0.00000000000E+00 0.  1.
</event>
<event>
12    1  0.1061634E+000  0.2079130E+03  0.7818608E-02  0.1143469E+00
         21   -1    0    0  503  502  0.00000000000E+00  0.00000000000E+00  0.62634005112E+02  0.62634005112E+02  0.00000000000E+00 0. -1.
         21   -1    0    0  501  503 -0.00000000000E+00 -0.00000000000E+00 -0.91448934204E+03  0.91448934204E+03  0.00000000000E+00 0.  1.
          6    2    1    2  501    0 -0.76388470453E+02 -0.89653757282E+02 -0.18091846713E+03  0.27471028343E+03  0.16988600137E+03 0.  0.
         24    2    3    3    0    0 -0.70293878654E+02 -0.12452592757E+03 -0.16690728895E+03  0.23634864343E+03  0.86917789516E+02 0.  0.
         -6    2    1    2    0  502  0.76388470453E+02  0.89653757282E+02 -0.67093686979E+03  0.70241306372E+03  0.17133252528E+03 0.  0.
        -24    2    5    5    0    0  0.19597655939E+02  0.10696292090E+03 -0.32221908087E+03  0.34864620536E+03  0.76836878332E+02 0.  0.
          5    1    3    3  501    0 -0.60945917988E+01  0.34872170286E+02 -0.14011178186E+02  0.38361640004E+02  0.47000000000E+01 0. -1.
        -11    1    4    4    0    0 -0.46601352648E+02 -0.21179240272E+02 -0.96004066699E+02  0.10879810251E+03  0.00000000000E+00 0.  1.
         12    1    4    4    0    0 -0.23692526006E+02 -0.10334668730E+03 -0.70903222248E+02  0.12755054092E+03  0.00000000000E+00 0. -1.
         -5    1    5    5    0  502  0.56790814513E+02 -0.17309163616E+02 -0.34871778893E+03  0.35376685836E+03  0.47000000000E+01 0.  1.
         13    1    6    6    0    0  0.46235154789E+02  0.90762114018E+02 -0.24047077169E+03  0.26115444265E+03  0.00000000000E+00 0. -1.
        -14    1    6    6    0    0 -0.26637498850E+02  0.16200806879E+02 -0.81748309177E+02  0.87491762709E+02  0.00000000000E+00 0.  1.
</event>
<event>
12    1  0.1061634E+000  0.2281632E+03  0.7818608E-02  0.1128490E+00
         21   -1    0    0  501  502  0.00000000000E+00  0.00000000000E+00  0.45922950125E+02  0.45922950125E+02  0.00000000000E+00 0.  1.
         21   -1    0    0  502  503 -0.00000000000E+00 -0.00000000000E+00 -0.11416834507E+04  0.11416834507E+04  0.00000000000E+00 0.  1.
         -6    2    1    2    0  503 -0.13610133223E+03 -0.52676986017E+02 -0.63637865531E+03  0.67604455886E+03  0.17538533332E+03 0.  0.
        -24    2    3    3    0    0 -0.12368645546E+03 -0.93921125486E+02 -0.57477591634E+03  0.60073057839E+03  0.79939706866E+02 0.  0.
          6    2    1    2  501    0  0.13610133223E+03  0.52676986017E+02 -0.45938184524E+03  0.51156184194E+03  0.17136335927E+03 0.  0.
         24    2    5    5    0    0  0.58195041849E+02 -0.40673828157E+02 -0.21523151853E+03  0.23877027935E+03  0.75137317884E+02 0.  0.
          5    1    5    5  501    0  0.77906290376E+02  0.93350814174E+02 -0.24415032672E+03  0.27279156259E+03  0.47000000000E+01 0. -1.
        -11    1    6    6    0    0  0.19574484968E+02  0.22239323702E+00 -0.37445829604E+01  0.19930675404E+02  0.00000000000E+00 0.  1.
         12    1    6    6    0    0  0.38620556881E+02 -0.40896221394E+02 -0.21148693557E+03  0.21883960394E+03  0.00000000000E+00 0. -1.
         -5    1    3    3    0  503 -0.12414876768E+02  0.41244139469E+02 -0.61602738966E+02  0.75313980467E+02  0.47000000000E+01 0.  1.
         11    1    4    4    0    0 -0.82965351100E+02 -0.35059609952E+02 -0.20236449842E+03  0.22150353486E+03  0.00000000000E+00 0. -1.
        -12    1    4    4    0    0 -0.40721104357E+02 -0.58861515535E+02 -0.37241141792E+03  0.37922704354E+03  0.00000000000E+00 0.  1.
</event>
<event>
12    1  0.1061634E+000  0.2026679E+03  0.7818608E-02  0.1149845E+00
         21   -1    0    0  503  502  0.00000000000E+00  0.00000000000E+00  0.14687770430E+03  0.14687770430E+03  0.00000000000E+00 0. -1.
         21   -1    0    0  501  503 -0.00000000000E+00 -0.00000000000E+00 -0.26475287667E+03  0.26475287667E+03  0.00000000000E+00 0. -1.
          6    2    1    2  501    0 -0.59440001111E+01 -0.84630078742E+02 -0.56544139660E+02  0.19988599236E+03  0.17192902270E+03 0.  0.
         24    2    3    3    0    0 -0.86858001969E+01 -0.11349868348E+03 -0.81284811449E+02  0.16147890124E+03  0.80689656697E+02 0.  0.
         -6    2    1    2    0  502  0.59440001111E+01  0.84630078742E+02 -0.61331032715E+02  0.21174458861E+03  0.18405622475E+03 0.  0.
        -24    2    5    5    0    0  0.42156231979E+02  0.12346413696E+01 -0.85349122340E+02  0.11759001708E+03  0.69023671291E+02 0.  0.
          5    1    3    3  501    0  0.27418000858E+01  0.28868604738E+02  0.24740671789E+02  0.38407091113E+02  0.47000000000E+01 0. -1.
        -13    1    4    4    0    0  0.31845401337E+02 -0.25162224099E+02 -0.12706985414E+02  0.42529220381E+02  0.00000000000E+00 0.  1.
         14    1    4    4    0    0 -0.40531201534E+02 -0.88336459381E+02 -0.68577826035E+02  0.11894968086E+03  0.00000000000E+00 0. -1.
         -5    1    5    5    0  502 -0.36212231868E+02  0.83395437372E+02  0.24018089626E+02  0.94154571533E+02  0.47000000000E+01 0.  1.
         11    1    6    6    0    0  0.98515221135E+01 -0.31329115789E+02 -0.49360221119E+02  0.59287413614E+02  0.00000000000E+00 0. -1.
        -12    1    6    6    0    0  0.32304709865E+02  0.32563757159E+02 -0.35988901221E+02  0.58302603466E+02  0.00000000000E+00 0.  1.
</event>
<event>
12    1  0.1061634E+000  0.1785084E+03  0.7818608E-02  0.1173522E+00
         21   -1    0    0  501  502  0.00000000000E+00  0.00000000000E+00  0.48305924471E+03  0.48305924471E+03  0.00000000000E+00 0.  1.
         21   -1    0    0  502  503 -0.00000000000E+00 -0.00000000000E+00 -0.61706789293E+02  0.61706789293E+02  0.00000000000E+00 0.  1.
         -6    2    1    2    0  503  0.32674025413E+02  0.30298684757E+02  0.24614210859E+03  0.29463825797E+03  0.15569252776E+03 0.  0.
        -24    2    3    3    0    0 -0.15933504595E+02  0.12244979857E+01  0.77405577969E+02  0.11658740266E+03  0.85706609976E+02 0.  0.
          6    2    1    2  501    0 -0.32674025413E+02 -0.30298684757E+02  0.17521034682E+03  0.25012777603E+03  0.17285727198E+03 0.  0.
         24    2    5    5    0    0 -0.29043225421E+02 -0.18911612593E+02  0.13117667152E+02  0.87527115138E+02  0.79295426471E+02 0.  0.
          5    1    5    5  501    0 -0.36307999919E+01 -0.11387072164E+02  0.16209267967E+03  0.16260066090E+03  0.47000000000E+01 0. -1.
        -11    1    6    6    0    0 -0.37961386662E+02 -0.27820548323E+02  0.37434958280E+02  0.60136726613E+02  0.00000000000E+00 0.  1.
         12    1    6    6    0    0  0.89181612406E+01  0.89089357299E+01 -0.24317291128E+02  0.27390388525E+02  0.00000000000E+00 0. -1.
         -5    1    3    3    0  503  0.48607530008E+02  0.29074186772E+02  0.16873653062E+03  0.17805085531E+03  0.47000000000E+01 0.  1.
         11    1    4    4    0    0 -0.20176690047E+02  0.40994491414E+02  0.51921508483E+02  0.69162780385E+02  0.00000000000E+00 0. -1.
        -12    1    4    4    0    0  0.42431854517E+01 -0.39769993428E+02  0.25484069486E+02  0.47424622272E+02  0.00000000000E+00 0.  1.
</event>
<event>
12    1  0.1061634E+000  0.2207527E+03  0.7818608E-02  0.1133406E+00
         21   -1    0    0  501  502  0.00000000000E+00  0.00000000000E+00  0.45332667720E+02  0.45332667720E+02  0.00000000000E+00 0. -1.
         21   -1    0    0  502  503 -0.00000000000E+00 -0.00000000000E+00 -0.23345727071E+04  0.23345727071E+04  0.00000000000E+00 0. -1.
         -6    2    1    2    0  503  0.10223524272E+03  0.92656524825E+02 -0.20189013412E+04  0.20308856818E+04  0.17174618141E+03 0.  0.
        -24    2    3    3    0    0  0.75569643360E+02  0.11135514925E+03 -0.10719723754E+04  0.10833851547E+04  0.80547374156E+02 0.  0.
          6    2    1    2  501    0 -0.10223524272E+03 -0.92656524825E+02 -0.27033869821E+03  0.34901969299E+03  0.17232079938E+03 0.  0.
         24    2    5    5    0    0 -0.10852958155E+03 -0.53217133487E+02 -0.27283719183E+03  0.30872804670E+03  0.79133685662E+02 0.  0.
          5    1    5    5  501    0  0.62943388303E+01 -0.39439391338E+02  0.24984936190E+01  0.40291646290E+02  0.47000000000E+01 0. -1.
        -13    1    6    6    0    0 -0.25448651827E+02 -0.50069934551E+02 -0.71662075771E+02  0.91049905709E+02  0.00000000000E+00 0.  1.
         14    1    6    6    0    0 -0.83080929726E+02 -0.31471989361E+01 -0.20117511605E+03  0.21767814099E+03  0.00000000000E+00 0. -1.
         -5    1    3    3    0  503  0.26665599362E+02 -0.18698624426E+02 -0.94692896573E+03  0.94750052712E+03  0.47000000000E+01 0.  1.
         13    1    4    4    0    0  0.20101917340E+01 -0.10465138712E+02 -0.32148411715E+02  0.33868575034E+02  0.00000000000E+00 0. -1.
        -14    1    4    4    0    0  0.73559451626E+02  0.12182028796E+03 -0.10398239637E+04  0.10495165797E+04  0.00000000000E+00 0.  1.
</event>
<event>
12    1  0.1061634E+000  0.2930768E+03  0.7818608E-02  0.1090374E+00
         21   -1    0    0  501  502  0.00000000000E+00  0.00000000000E+00  0.76630939722E+03  0.76630939722E+03  0.00000000000E+00 0. -1.
         21   -1    0    0  502  503 -0.00000000000E+00 -0.00000000000E+00 -0.14634094116E+03  0.14634094116E+03  0.00000000000E+00 0. -1.
         -6    2    1    2    0  503  0.22074412329E+03  0.18088276395E+02  0.55011490426E+03  0.62331408383E+03  0.19193458652E+03 0.  0.
        -24    2    3    3    0    0  0.79922648450E+02 -0.61823012406E+02  0.28577694969E+03  0.31329288120E+03  0.79210162471E+02 0.  0.
          6    2    1    2  501    0 -0.22074412329E+03 -0.18088276395E+02  0.69853551795E+02  0.28933625455E+03  0.17257113254E+03 0.  0.
         24    2    5    5    0    0 -0.15928500904E+03 -0.23388395734E+02  0.11416897332E+03  0.21323592226E+03  0.80723434720E+02 0.  0.
          5    1    5    5  501    0 -0.61459114252E+02  0.53001193394E+01 -0.44315421525E+02  0.76100332290E+02  0.47000000000E+01 0. -1.
        -13    1    6    6    0    0 -0.55096097286E+02 -0.45106325442E+02  0.28836804856E+02  0.76822664919E+02  0.00000000000E+00 0.  1.
         14    1    6    6    0    0 -0.10418891176E+03  0.21717929708E+02  0.85332168465E+02  0.13641325734E+03  0.00000000000E+00 0. -1.
         -5    1    3    3    0  503  0.14082147484E+03  0.79911288801E+02  0.26433795457E+03  0.31002120263E+03  0.47000000000E+01 0.  1.
         13    1    4    4    0    0  0.93219186067E+02 -0.37895824864E+02  0.21416355838E+03  0.23662616071E+03  0.00000000000E+00 0. -1.
        -14    1    4    4    0    0 -0.13296537617E+02 -0.23927187542E+02  0.71613391310E+02  0.76666720493E+02  0.00000000000E+00 0.  1.
</event>
<event>
12    1  0.1061634E+000  0.2055559E+03  0.7818608E-02  0.1145249E+00
         21   -1    0    0  503  502  0.00000000000E+00  0.00000000000E+00  0.16372606852E+02  0.16372606852E+02  0.00000000000E+00 0.  1.
         21   -1    0    0  501  503 -0.00000000000E+00 -0.00000000000E+00 -0.28333632922E+04  0.28333632922E+04  0.00000000000E+00 0.  1.
          6    2    1    2  501    0 -0.69315736207E+02 -0.84760860383E+02 -0.18381284823E+04  0.18495236911E+04  0.17329885084E+03 0.  0.
         24    2    3    3    0    0  0.19550465944E+02 -0.12154274437E+02 -0.10227510485E+04  0.10260970897E+04  0.79533535791E+02 0.  0.
         -6    2    1    2    0  502  0.69315736207E+02  0.84760860383E+02 -0.97886220306E+03  0.10002122080E+04  0.17396601298E+03 0.  0.
        -24    2    5    5    0    0  0.29290137550E+02 -0.24274049217E+02 -0.41354033446E+03  0.42306269080E+03  0.80742123465E+02 0.  0.
          5    1    3    3  501    0 -0.88866202151E+02 -0.72606585946E+02 -0.81537743384E+03  0.82342660135E+03  0.47000000000E+01 0. -1.
        -13    1    4    4    0    0  0.36827085303E+01 -0.38443545071E+02 -0.27306738706E+03  0.27578481898E+03  0.00000000000E+00 0.  1.
         14    1    4    4    0    0  0.15867757414E+02  0.26289270634E+02 -0.74968366139E+03  0.75031227074E+03  0.00000000000E+00 0. -1.
         -5    1    5    5    0  502  0.40025598656E+02  0.10903490960E+03 -0.56532186860E+03  0.57714951718E+03  0.47000000000E+01 0.  1.
         11    1    6    6    0    0  0.41788652383E+02 -0.17217036644E+02 -0.10658128747E+03  0.11576825410E+03  0.00000000000E+00 0. -1.
        -12    1    6    6    0    0 -0.12498514832E+02 -0.70570125736E+01 -0.30695904699E+03  0.30729443670E+03  0.00000000000E+00 0.  1.
</event>
<event>
12    1  0.1061634E+000  0.1733161E+03  0.7818608E-02  0.1175836E+00
         21   -1    0    0  501  502  0.00000000000E+00  0.00000000000E+00  0.30773328563E+03  0.30773328563E+03  0.00000000000E+00 0.  1.
         21   -1    0    0  502  503 -0.00000000000E+00 -0.00000000000E+00 -0.11167882458E+03  0.11167882458E+03  0.00000000000E+00 0.  1.
         -6    2    1    2    0  503  0.79609695327E+01 -0.20064201237E+02  0.17875295207E+03  0.24523457403E+03  0.16649753518E+03 0.  0.
        -24    2    3    3    0    0 -0.14948766983E+01  0.12531626540E+02  0.18788638675E+02  0.81641870723E+02  0.78441735012E+02 0.  0.
          6    2    1    2  501    0 -0.79609695327E+01  0.20064201237E+02  0.17301508981E+02  0.17417753619E+03  0.17196663249E+03 0.  0.
         24    2    5    5    0    0  0.45112700144E+02  0.57451047500E+02  0.79660774574E+01  0.10842169258E+03  0.79724691652E+02 0.  0.
          5    1    5    5  501    0 -0.53073669676E+02 -0.37386846263E+02  0.93354315233E+01  0.65755843604E+02  0.47000000000E+01 0. -1.
        -13    1    6    6    0    0 -0.20787548803E+02  0.25332435200E+01  0.85932923413E+01  0.22635904692E+02  0.00000000000E+00 0.  1.
         14    1    6    6    0    0  0.65900248947E+02  0.54917803980E+02 -0.62721488389E+00  0.85785787889E+02  0.00000000000E+00 0. -1.
         -5    1    3    3    0  503  0.94558462310E+01 -0.32595827777E+02  0.15996431339E+03  0.16359270331E+03  0.47000000000E+01 0.  1.
         13    1    4    4    0    0 -0.31636311426E+02  0.30725692759E+02  0.80178860406E+01  0.44824222165E+02  0.00000000000E+00 0. -1.
        -14    1    4    4    0    0  0.30141434728E+02 -0.18194066219E+02  0.10770752634E+02  0.36817648558E+02  0.00000000000E+00 0.  1.
</event>
<event>
12    1  0.1061634E+000  0.2035326E+03  0.7818608E-02  0.1146900E+00
         21   -1    0    0  501  502  0.00000000000E+00  0.00000000000E+00  0.19250938631E+02  0.19250938631E+02  0.00000000000E+00 0.  1.
         21   -1    0    0  502  503 -0.00000000000E+00 -0.00000000000E+00 -0.29390930449E+04  0.29390930449E+04  0.00000000000E+00 0.  1.
         -6    2    1    2    0  503  0.57187243081E+02 -0.92394288713E+02 -0.22295062236E+04  0.22387772416E+04  0.17210011975E+03 0.  0.
        -24    2    3    3    0    0  0.18528198100E+01 -0.84131474950E+02 -0.19599037411E+04  0.19633906750E+04  0.81232570020E+02 0.  0.
          6    2    1    2  501    0 -0.57187243081E+02  0.92394288713E+02 -0.69033588265E+03  0.71956674188E+03  0.17148055222E+03 0.  0.
         24    2    5    5    0    0  0.18952404721E+02  0.64737509515E+02 -0.52168997594E+03  0.53241526512E+03  0.82191512671E+02 0.  0.
          5    1    5    5  501    0 -0.76139647802E+02  0.27656779198E+02 -0.16864590671E+03  0.18715147676E+03  0.47000000000E+01 0. -1.
        -11    1    6    6    0    0 -0.51841160900E+01 -0.18165604346E+02 -0.67652233475E+02  0.70240223057E+02  0.00000000000E+00 0.  1.
         12    1    6    6    0    0  0.24136520811E+02  0.82903113862E+02 -0.45403774247E+03  0.46217504207E+03  0.00000000000E+00 0. -1.
         -5    1    3    3    0  503  0.55334423271E+02 -0.82628137625E+01 -0.26960248255E+03  0.27538656664E+03  0.47000000000E+01 0.  1.
         11    1    4    4    0    0  0.34851058760E+02 -0.45716401367E+02 -0.14066152760E+04  0.14077894446E+04  0.00000000000E+00 0. -1.
        -12    1    4    4    0    0 -0.32998238950E+02 -0.38415073584E+02 -0.55328846511E+03  0.55560123045E+03  0.00000000000E+00 0.  1.
</event>
<event>
12    1  0.1061634E+000  0.1907361E+03  0.7818608E-02  0.1158119E+00
         21   -1    0    0  503  502  0.00000000000E+00  0.00000000000E+00  0.37933472926E+03  0.37933472926E+03  0.00000000000E+00 0.  1.
         21   -1    0    0  501  503 -0.00000000000E+00 -0.00000000000E+00 -0.15461148524E+03  0.15461148524E+03  0.00000000000E+00 0.  1.
          6    2    1    2  501    0  0.36269133197E+02  0.77057949577E+02 -0.52883996253E+02  0.19793171062E+03  0.17066595264E+03 0.  0.
         24    2    3    3    0    0 -0.14530043848E+02  0.39247869558E+02 -0.86884249770E+02  0.12590209324E+03  0.80937919333E+02 0.  0.
         -6    2    1    2    0  502 -0.36269133197E+02 -0.77057949577E+02  0.27760724027E+03  0.33601450388E+03  0.16907569119E+03 0.  0.
        -24    2    5    5    0    0 -0.32779648851E+02 -0.91804366791E+02  0.28971663363E+03  0.31605552773E+03  0.80329457027E+02 0.  0.
          5    1    3    3  501    0  0.50799177045E+02  0.37810080019E+02  0.34000253517E+02  0.72029617372E+02  0.47000000000E+01 0. -1.
        -13    1    4    4    0    0  0.64035649518E+01 -0.80666914570E+01  0.11071947302E+02  0.15121678882E+02  0.00000000000E+00 0.  1.
         14    1    4    4    0    0 -0.20933608800E+02  0.47314561015E+02 -0.97956197072E+02  0.11078041436E+03  0.00000000000E+00 0. -1.
         -5    1    5    5    0  502 -0.34894843459E+01  0.14746417214E+02 -0.12109393354E+02  0.19958976152E+02  0.47000000000E+01 0.  1.
         13    1    6    6    0    0 -0.30024788134E+02 -0.12325246831E+02  0.29156255242E+02  0.43628967804E+02  0.00000000000E+00 0. -1.
        -14    1    6    6    0    0 -0.27548607164E+01 -0.79479119961E+02  0.26056037839E+03  0.27242655992E+03  0.00000000000E+00 0.  1.
</event>
<event>
12    1  0.1061634E+000  0.2571633E+03  0.7818608E-02  0.1108912E+00
         21   -1    0    0  503  502  0.00000000000E+00  0.00000000000E+00  0.50082019308E+03  0.50082019308E+03  0.00000000000E+00 0. -1.
         21   -1    0    0  501  503 -0.00000000000E+00 -0.00000000000E+00 -0.16118860648E+03  0.16118860648E+03  0.00000000000E+00 0. -1.
          6    2    1    2  501    0  0.18390367556E+03 -0.51338665223E+02  0.31106548857E+03  0.40360218690E+03  0.17226945945E+03 0.  0.
         24    2    3    3    0    0  0.15830433524E+03  0.17352936738E+02  0.17921171927E+03  0.25266720460E+03  0.79765211623E+02 0.  0.
         -6    2    1    2    0  502 -0.18390367556E+03  0.51338665223E+02  0.28566098028E+02  0.25840661266E+03  0.17176069131E+03 0.  0.
        -24    2    5    5    0    0 -0.15588067806E+03  0.86688139935E+02  0.53527919243E+02  0.20663735277E+03  0.89555223320E+02 0.  0.
          5    1    3    3  501    0  0.25599340321E+02 -0.68691601962E+02  0.13185376930E+03  0.15093498230E+03  0.47000000000E+01 0. -1.
        -13    1    4    4    0    0  0.11444391132E+03  0.34750561157E+02  0.16421968867E+03  0.20315786100E+03  0.00000000000E+00 0.  1.
         14    1    4    4    0    0  0.43860423925E+02 -0.17397624418E+02  0.14992030604E+02  0.49509343602E+02  0.00000000000E+00 0. -1.
         -5    1    5    5    0  502 -0.28022997503E+02 -0.35349474711E+02 -0.24961821215E+02  0.51769259892E+02  0.47000000000E+01 0.  1.
         13    1    6    6    0    0 -0.38673543334E+02  0.61902707100E+02  0.46684092201E+02  0.86642902565E+02  0.00000000000E+00 0. -1.
        -14    1    6    6    0    0 -0.11720713472E+03  0.24785432834E+02  0.68438270418E+01  0.11999445020E+03  0.00000000000E+00 0.  1.
</event>
<event>
12    1  0.1061634E+000  0.1945220E+03  0.7818608E-02  0.1154491E+00
         21   -1    0    0  501  502  0.00000000000E+00  0.00000000000E+00  0.45210764434E+02  0.45210764434E+02  0.00000000000E+00 0.  1.
         21   -1    0    0  502  503 -0.00000000000E+00 -0.00000000000E+00 -0.85905771374E+03  0.85905771374E+03  0.00000000000E+00 0.  1.
         -6    2    1    2    0  503 -0.46571104150E+02  0.78867824350E+02 -0.33267563422E+03  0.38526495107E+03  0.17136803512E+03 0.  0.
        -24    2    3    3    0    0  0.35118847251E+02  0.68354257180E+02 -0.21997579150E+03  0.24559703134E+03  0.77607441958E+02 0.  0.
          6    2    1    2  501    0  0.46571104150E+02 -0.78867824350E+02 -0.48117131509E+03  0.51900352711E+03  0.17160951379E+03 0.  0.
         24    2    5    5    0    0 -0.29472588792E+02 -0.85715323525E+01 -0.27682006483E+03  0.28986222705E+03  0.80303534952E+02 0.  0.
          5    1    5    5  501    0  0.76043692942E+02 -0.70296291997E+02 -0.20435125027E+03  0.22914130005E+03  0.47000000000E+01 0. -1.
        -11    1    6    6    0    0 -0.29259129620E+02 -0.34216372078E+02 -0.24446528670E+03  0.24857621202E+03  0.00000000000E+00 0.  1.
         12    1    6    6    0    0 -0.21345917265E+00  0.25644839725E+02 -0.32354778128E+02  0.41286015030E+02  0.00000000000E+00 0. -1.
         -5    1    3    3    0  503 -0.81689951401E+02  0.10513567170E+02 -0.11269984271E+03  0.13966791973E+03  0.47000000000E+01 0.  1.
         11    1    4    4    0    0  0.79697184830E+01 -0.68891971668E+01 -0.10503051848E+03  0.10555750690E+03  0.00000000000E+00 0. -1.
        -12    1    4    4    0    0  0.27149128768E+02  0.75243454347E+02 -0.11494527302E+03  0.14003952444E+03  0.00000000000E+00 0.  1.
</event>
<event>
12    1  0.1061634E+000  0.4635508E+03  0.7818608E-02  0.1023758E+00
         21   -1    0    0  501  502  0.00000000000E+00  0.00000000000E+00  0.73835515195E+03  0.73835515195E+03  0.00000000000E+00 0.  1.
         21   -1    0    0  502  503 -0.00000000000E+00 -0.00000000000E+00 -0.44307908556E+03  0.44307908556E+03  0.00000000000E+00 0.  1.
         -6    2    1    2    0  503 -0.42835515353E+03  0.42865656739E+02  0.49369888655E+03  0.67720115881E+03  0.17186394858E+03 0.  0.
        -24    2    3    3    0    0 -0.44028411648E+03  0.37032350867E+02  0.47447502112E+03  0.65336894077E+03  0.80888372847E+02 0.  0.
          6    2    1    2  501    0  0.42835515353E+03 -0.42865656739E+02 -0.19842282016E+03  0.50423307870E+03  0.17191212875E+03 0.  0.
         24    2    5    5    0    0  0.24761893844E+03 -0.54918431460E+02 -0.17761336435E+03  0.32184346201E+03  0.87781171432E+02 0.  0.
          5    1    5    5  501    0  0.18073621509E+03  0.12052774721E+02 -0.20809455810E+02  0.18238961669E+03  0.47000000000E+01 0. -1.
        -13    1    6    6    0    0  0.24141912565E+03 -0.70223953081E+02 -0.17094594009E+03  0.30403472211E+03  0.00000000000E+00 0.  1.
         14    1    6    6    0    0  0.61998127921E+01  0.15305521621E+02 -0.66674242546E+01  0.17808739903E+02  0.00000000000E+00 0. -1.
         -5    1    3    3    0  503  0.11928962946E+02  0.58333058722E+01  0.19223865432E+02  0.23832218036E+02  0.47000000000E+01 0.  1.
         13    1    4    4    0    0 -0.14173498971E+03  0.38332529472E+02  0.19770843674E+03  0.24626574281E+03  0.00000000000E+00 0. -1.
        -14    1    4    4    0    0 -0.29854912677E+03 -0.13001786049E+01  0.27676658438E+03  0.40710319796E+03  0.00000000000E+00 0.  1.
</event>
<event>
12    1  0.1061634E+000  0.1832007E+03  0.7818608E-02  0.1165539E+00
         21   -1    0    0  501  502  0.00000000000E+00  0.00000000000E+00  0.12826727969E+03  0.12826727969E+03  0.00000000000E+00 0.  1.
         21   -1    0    0  502  503 -0.00000000000E+00 -0.00000000000E+00 -0.41514046563E+03  0.41514046563E+03  0.00000000000E+00 0.  1.
         -6    2    1    2    0  503  0.74811843383E+01 -0.55219350557E+02 -0.31035880895E+03  0.35870776498E+03  0.17100738454E+03 0.  0.
        -24    2    3    3    0    0  0.62786065575E+02 -0.35685873413E+01 -0.20430418320E+03  0.22833865487E+03  0.80271521631E+02 0.  0.
          6    2    1    2  501    0 -0.74811843383E+01  0.55219350557E+02  0.23485623011E+02  0.18469998034E+03  0.17452038120E+03 0.  0.
         24    2    5    5    0    0 -0.25409866677E+02  0.60664739575E+02  0.76195792856E+02  0.12856138473E+03  0.79977239525E+02 0.  0.
          5    1    5    5  501    0  0.17928682339E+02 -0.54453890175E+01 -0.52710169845E+02  0.56138595610E+02  0.47000000000E+01 0. -1.
        -13    1    6    6    0    0  0.13584166684E+02  0.39510974629E+02  0.72966282670E+02  0.84081657377E+02  0.00000000000E+00 0.  1.
         14    1    6    6    0    0 -0.38994033361E+02  0.21153764946E+02  0.32295101854E+01  0.44479727350E+02  0.00000000000E+00 0. -1.
         -5    1    3    3    0  503 -0.55304881237E+02 -0.51650763216E+02 -0.10605462575E+03  0.13036911011E+03  0.47000000000E+01 0.  1.
         11    1    4    4    0    0  0.53211508485E+02 -0.36238744437E+02 -0.10297846779E+03  0.12144659758E+03  0.00000000000E+00 0. -1.
        -12    1    4    4    0    0  0.95745570899E+01  0.32670157096E+02 -0.10132571541E+03  0.10689205729E+03  0.00000000000E+00 0.  1.
</event>
<event>
12    1  0.1061634E+000  0.4398152E+03  0.7818608E-02  0.1030816E+00
         21   -1    0    0  503  502  0.00000000000E+00  0.00000000000E+00  0.60757652011E+03  0.60757652011E+03  0.00000000000E+00 0.  1.
         21   -1    0    0  501  503 -0.00000000000E+00 -0.00000000000E+00 -0.36089940254E+03  0.36089940254E+03  0.00000000000E+00 0.  1.
          6    2    1    2  501    0 -0.28333992082E+03 -0.28911325293E+03 -0.43095614565E+02  0.44192148636E+03  0.17195750743E+03 0.  0.
         24    2    3    3    0    0 -0.10147590553E+03 -0.97542730803E+02 -0.69173658341E+02  0.17644843806E+03  0.80852412150E+02 0.  0.
         -6    2    1    2    0  502  0.28333992082E+03  0.28911325293E+03  0.28977273213E+03  0.52655443629E+03  0.17153237111E+03 0.  0.
        -24    2    5    5    0    0  0.29048504126E+03  0.27048578179E+03  0.23617459638E+03  0.46917076629E+03  0.82453930313E+02 0.  0.
          5    1    3    3  501    0 -0.18186401530E+03 -0.19157052213E+03  0.26078043777E+02  0.26547304830E+03  0.47000000000E+01 0. -1.
        -11    1    4    4    0    0 -0.10462858812E+03 -0.67568678412E+02 -0.32006140351E+02  0.12859650374E+03  0.00000000000E+00 0.  1.
         12    1    4    4    0    0  0.31526825955E+01 -0.29974052391E+02 -0.37167517990E+02  0.47851934317E+02  0.00000000000E+00 0. -1.
         -5    1    5    5    0  502 -0.71451204316E+01  0.18627471143E+02  0.53598135745E+02  0.57383669999E+02  0.47000000000E+01 0.  1.
         11    1    6    6    0    0  0.12141990562E+03  0.62839779819E+02  0.94835277370E+02  0.16638918607E+03  0.00000000000E+00 0. -1.
        -12    1    6    6    0    0  0.16906513564E+03  0.20764600197E+03  0.14133931901E+03  0.30278158022E+03  0.00000000000E+00 0.  1.
</event>
<event>
12    1  0.1061634E+000  0.1774316E+03  0.7818608E-02  0.1170843E+00
         21   -1    0    0  501  502  0.00000000000E+00  0.00000000000E+00  0.54976511893E+02  0.54976511893E+02  0.00000000000E+00 0.  1.
         21   -1    0    0  502  503 -0.00000000000E+00 -0.00000000000E+00 -0.71736506720E+03  0.71736506720E+03  0.00000000000E+00 0.  1.
         -6    2    1    2    0  503 -0.26186974827E+02 -0.10170646074E+02 -0.51030169429E+03  0.54026825938E+03  0.17519353070E+03 0.  0.
        -24    2    3    3    0    0 -0.57147340841E+01  0.37293240002E+02 -0.45770542435E+03  0.46637380265E+03  0.81159253238E+02 0.  0.
          6    2    1    2  501    0  0.26186974827E+02  0.10170646074E+02 -0.15208686101E+03  0.23207331971E+03  0.17302720231E+03 0.  0.
         24    2    5    5    0    0  0.13532578671E+02 -0.17308043397E+01 -0.37084872848E+01  0.82607570950E+02  0.81388767844E+02 0.  0.
          5    1    5    5  501    0  0.12654396155E+02  0.11901450414E+02 -0.14837837372E+03  0.14946574876E+03  0.47000000000E+01 0. -1.
        -11    1    6    6    0    0  0.48960303006E+01 -0.38433258318E+02 -0.17429335683E+02  0.42483740419E+02  0.00000000000E+00 0.  1.
         12    1    6    6    0    0  0.86365483705E+01  0.36702453978E+02  0.13720848398E+02  0.40123830532E+02  0.00000000000E+00 0. -1.
         -5    1    3    3    0  503 -0.20472240743E+02 -0.47463886077E+02 -0.52596269945E+02  0.73894456725E+02  0.47000000000E+01 0.  1.
         13    1    4    4    0    0 -0.33463144171E+02  0.84563400507E+01 -0.88284846123E+02  0.94791907670E+02  0.00000000000E+00 0. -1.
        -14    1    4    4    0    0  0.27748410087E+02  0.28836899951E+02 -0.36942057823E+03  0.37158189498E+03  0.00000000000E+00 0.  1.
</event>
<event>
12    1  0.1061634E+000  0.2648672E+03  0.7818608E-02  0.1104294E+00
         21   -1    0    0  503  502  0.00000000000E+00  0.00000000000E+00  0.82339274566E+02  0.82339274566E+02  0.00000000000E+00 0. -1.
         21   -1    0    0  501  503 -0.00000000000E+00 -0.00000000000E+00 -0.91313897019E+03  0.91313897019E+03  0.00000000000E+00 0. -1.
          6    2    1    2  501    0  0.19772251277E+03  0.33494381396E+02 -0.54489306407E+03  0.60573828197E+03  0.17261039752E+03 0.  0.
         24    2    3    3    0    0  0.98568210941E+02  0.89474063015E+00 -0.43804415412E+03  0.45629567858E+03  0.81280825349E+02 0.  0.
         -6    2    1    2    0  502 -0.19772251277E+03 -0.33494381396E+02 -0.28590663156E+03  0.38973996279E+03  0.17302765960E+03 0.  0.
        -24    2    5    5    0    0 -0.14185498681E+03  0.27260433821E+02 -0.12111443816E+03  0.20537379173E+03  0.81509009697E+02 0.  0.
          5    1    3    3  501    0  0.99154301827E+02  0.32599640765E+02 -0.10684890995E+03  0.14944260339E+03  0.47000000000E+01 0. -1.
        -11    1    4    4    0    0  0.66585410058E+02  0.36211336533E+02 -0.20826133779E+03  0.22162504945E+03  0.00000000000E+00 0.  1.
         12    1    4    4    0    0  0.31982800883E+02 -0.35316595903E+02 -0.22978281633E+03  0.23467062913E+03  0.00000000000E+00 0. -1.
         -5    1    5    5    0  502 -0.55867525956E+02 -0.60754815216E+02 -0.16479219339E+03  0.18436617106E+03  0.47000000000E+01 0.  1.
         11    1    6    6    0    0 -0.25167192781E+02 -0.22465518084E+02 -0.63675450259E+01  0.34331220848E+02  0.00000000000E+00 0. -1.
        -12    1    6    6    0    0 -0.11668779403E+03  0.49725951905E+02 -0.11474689314E+03  0.17104257088E+03  0.00000000000E+00 0.  1.
</event>
<event>
12    1  0.1061634E+000  0.2394847E+03  0.7818608E-02  0.1120366E+00
         21   -1    0    0  503  502  0.00000000000E+00  0.00000000000E+00  0.28336056865E+02  0.28336056865E+02  0.00000000000E+00 0. -1.
         21   -1    0    0  501  503 -0.00000000000E+00 -0.00000000000E+00 -0.20202560622E+04  0.20202560622E+04  0.00000000000E+00 0. -1.
          6    2    1    2  501    0  0.16520671139E+03  0.61908466988E+01 -0.93523326456E+03  0.96540881173E+03  0.17326664581E+03 0.  0.
         24    2    3    3    0    0  0.22191212132E+02  0.36463682688E+02 -0.43241037448E+03  0.44174591786E+03  0.79615789491E+02 0.  0.
         -6    2    1    2    0  502 -0.16520671139E+03 -0.61908466988E+01 -0.10566867408E+04  0.10831833073E+04  0.17136984885E+03 0.  0.
        -24    2    5    5    0    0 -0.10353827299E+03  0.23379884729E+02 -0.92505554097E+03  0.93477074987E+03  0.82473074106E+02 0.  0.
          5    1    3    3  501    0  0.14301549925E+03 -0.30272835989E+02 -0.50282289008E+03  0.52366289386E+03  0.47000000000E+01 0. -1.
        -11    1    4    4    0    0  0.11228051336E+02 -0.12531363706E+02 -0.19336601476E+02  0.25632174503E+02  0.00000000000E+00 0.  1.
         12    1    4    4    0    0  0.10963160796E+02  0.48995046394E+02 -0.41307377301E+03  0.41611374336E+03  0.00000000000E+00 0. -1.
         -5    1    5    5    0  502 -0.61668438395E+02 -0.29570731428E+02 -0.13163119980E+03  0.14841255746E+03  0.47000000000E+01 0.  1.
         13    1    6    6    0    0 -0.43930409547E+02  0.21315153924E+02 -0.15735566191E+03  0.16475746115E+03  0.00000000000E+00 0. -1.
        -14    1    6    6    0    0 -0.59607863444E+02  0.20647308053E+01 -0.76769987906E+03  0.77001328872E+03  0.00000000000E+00 0.  1.
</event>
<event>
12    1  0.1061634E+000  0.4082689E+03  0.7818608E-02  0.1041004E+00
         21   -1    0    0  501  502  0.00000000000E+00  0.00000000000E+00  0.17602474826E+03  0.17602474826E+03  0.00000000000E+00 0.  1.
         21   -1    0    0  502  503 -0.00000000000E+00 -0.00000000000E+00 -0.95260671476E+03  0.95260671476E+03  0.00000000000E+00 0.  1.
         -6    2    1    2    0  503 -0.47783292885E+02 -0.36758460324E+03 -0.34002664415E+03  0.53132063014E+03  0.17111928492E+03 0.  0.
        -24    2    3    3    0    0  0.31319338071E+02 -0.20751043183E+03 -0.14909112718E+03  0.26986427008E+03  0.80975797678E+02 0.  0.
          6    2    1    2  501    0  0.47783292885E+02  0.36758460324E+03 -0.43655532236E+03  0.59731083287E+03  0.16969972885E+03 0.  0.
         24    2    5    5    0    0  0.15214857088E+02  0.32553140468E+03 -0.42670416952E+03  0.54301249283E+03  0.81141430695E+02 0.  0.
          5    1    5    5  501    0  0.32568435796E+02  0.42053198559E+02 -0.98511528406E+01  0.54298340044E+02  0.47000000000E+01 0. -1.
        -11    1    6    6    0    0 -0.27351807932E+02  0.74085997005E+02 -0.12629115828E+03  0.14895070665E+03  0.00000000000E+00 0.  1.
         12    1    6    6    0    0  0.42566665020E+02  0.25144540767E+03 -0.30041301123E+03  0.39406178618E+03  0.00000000000E+00 0. -1.
         -5    1    3    3    0  503 -0.79102630956E+02 -0.16007417141E+03 -0.19093551697E+03  0.26145636006E+03  0.47000000000E+01 0.  1.
         13    1    4    4    0    0  0.73252328665E+01 -0.45446103456E+02 -0.79500581586E+02  0.91865933993E+02  0.00000000000E+00 0. -1.
        -14    1    4    4    0    0  0.23994105205E+02 -0.16206432837E+03 -0.69590545593E+02  0.17799833609E+03  0.00000000000E+00 0.  1.
</event>
<event>
12    1  0.1061634E+000  0.2201486E+03  0.7818608E-02  0.1133864E+00
         21   -1    0    0  501  502  0.00000000000E+00  0.00000000000E+00  0.20234360288E+03  0.20234360288E+03  0.00000000000E+00 0.  1.
         21   -1    0    0  502  503 -0.00000000000E+00 -0.00000000000E+00 -0.27270985207E+03  0.27270985207E+03  0.00000000000E+00 0.  1.
         -6    2    1    2    0  503  0.11754092501E+03  0.71129906747E+02  0.48312727225E+02  0.22538753299E+03  0.17201769597E+03 0.  0.
        -24    2    3    3    0    0  0.42308003939E+02  0.43535681113E+01 -0.33458559571E+02  0.95665888073E+02  0.78889582199E+02 0.  0.
          6    2    1    2  501    0 -0.11754092501E+03 -0.71129906747E+02 -0.11867897641E+03  0.24966592196E+03  0.17138564835E+03 0.  0.
         24    2    5    5    0    0 -0.14596592817E+02 -0.51642828784E+01 -0.38887543784E+01  0.81892610208E+02  0.80321521752E+02 0.  0.
          5    1    5    5  501    0 -0.10294433220E+03 -0.65965623868E+02 -0.11479022203E+03  0.16777331176E+03  0.47000000000E+01 0. -1.
        -13    1    6    6    0    0  0.71067645689E+01  0.36973754087E+01 -0.38922842651E+02  0.39738701131E+02  0.00000000000E+00 0.  1.
         14    1    6    6    0    0 -0.21703357386E+02 -0.88616582872E+01  0.35034088272E+02  0.42153909077E+02  0.00000000000E+00 0. -1.
         -5    1    3    3    0  503  0.75232921074E+02  0.66776338635E+02  0.81771286796E+02  0.12972164491E+03  0.47000000000E+01 0.  1.
         13    1    4    4    0    0  0.21175095826E+02 -0.37133395720E+02 -0.11996508950E+02  0.44398085408E+02  0.00000000000E+00 0. -1.
        -14    1    4    4    0    0  0.21132908113E+02  0.41486963831E+02 -0.21462050622E+02  0.51267802665E+02  0.00000000000E+00 0.  1.
</event>
<event>
12    1  0.1061634E+000  0.1823147E+03  0.7818608E-02  0.1165801E+00
         21   -1    0    0  501  502  0.00000000000E+00  0.00000000000E+00  0.22007648184E+02  0.22007648184E+02  0.00000000000E+00 0.  1.
         21   -1    0    0  502  503 -0.00000000000E+00 -0.00000000000E+00 -0.15367822358E+04  0.15367822358E+04  0.00000000000E+00 0.  1.
         -6    2    1    2    0  503 -0.10799221009E+02 -0.57711994291E+02 -0.87157453726E+03  0.89025046255E+03  0.17162871150E+03 0.  0.
        -24    2    3    3    0    0  0.40508197917E+02  0.23500797376E+01 -0.29475135422E+03  0.30802457986E+03  0.79714139363E+02 0.  0.
          6    2    1    2  501    0  0.10799221009E+02  0.57711994291E+02 -0.64320005037E+03  0.66853942145E+03  0.17260172587E+03 0.  0.
         24    2    5    5    0    0  0.12667060747E+02 -0.15652876015E+02 -0.50747066194E+03  0.51416827808E+03  0.80231405953E+02 0.  0.
          5    1    5    5  501    0 -0.18678397379E+01  0.73364870307E+02 -0.13572938843E+03  0.15437114337E+03  0.47000000000E+01 0. -1.
        -11    1    6    6    0    0 -0.32400544336E+02 -0.60615941521E+01 -0.14042911015E+03  0.14424587749E+03  0.00000000000E+00 0.  1.
         12    1    6    6    0    0  0.45067605083E+02 -0.95912818631E+01 -0.36704155179E+03  0.36992240059E+03  0.00000000000E+00 0. -1.
         -5    1    3    3    0  503 -0.51307418926E+02 -0.60062074029E+02 -0.57682318304E+03  0.58222588268E+03  0.47000000000E+01 0.  1.
         11    1    4    4    0    0  0.20084556403E+02 -0.29510816978E+02 -0.23210773579E+03  0.23483670654E+03  0.00000000000E+00 0. -1.
        -12    1    4    4    0    0  0.20423641514E+02  0.31860896715E+02 -0.62643618426E+02  0.73187873324E+02  0.00000000000E+00 0.  1.
</event>
<event>
12    1  0.1061634E+000  0.3464523E+03  0.7818608E-02  0.1064124E+00
         21   -1    0    0  503  502  0.00000000000E+00  0.00000000000E+00  0.41689519390E+03  0.41689519390E+03  0.00000000000E+00 0.  1.
         21   -1    0    0  501  503 -0.00000000000E+00 -0.00000000000E+00 -0.33300478368E+03  0.33300478368E+03  0.00000000000E+00 0.  1.
          6    2    1    2  501    0  0.13259205316E+03  0.27018864282E+03 -0.96540303299E+02  0.35965153167E+03  0.17160022961E+03 0.  0.
         24    2    3    3    0    0  0.16578386622E+03  0.22952184782E+03 -0.89033566188E+02  0.30641690223E+03  0.76156241620E+02 0.  0.
         -6    2    1    2    0  502 -0.13259205316E+03 -0.27018864282E+03  0.18043071352E+03  0.39024844592E+03  0.17075143305E+03 0.  0.
        -24    2    5    5    0    0 -0.14914805068E+03 -0.27411048837E+03  0.15077604536E+03  0.35573799431E+03  0.80214736072E+02 0.  0.
          5    1    3    3  501    0 -0.33191813062E+02  0.40666795001E+02 -0.75067371119E+01  0.53234629445E+02  0.47000000000E+01 0. -1.
        -13    1    4    4    0    0  0.15379786717E+02 -0.16713493551E+01 -0.13288954544E+02  0.20394302170E+02  0.00000000000E+00 0.  1.
         14    1    4    4    0    0  0.15040407950E+03  0.23119319717E+03 -0.75744611644E+02  0.28602260006E+03  0.00000000000E+00 0. -1.
         -5    1    5    5    0  502  0.16555997523E+02  0.39218455501E+01  0.29654668160E+02  0.34510451608E+02  0.47000000000E+01 0.  1.
         13    1    6    6    0    0 -0.52994380042E+02 -0.71829960039E+02  0.68852989898E+01  0.89528513991E+02  0.00000000000E+00 0. -1.
        -14    1    6    6    0    0 -0.96153670637E+02 -0.20228052833E+03  0.14389074637E+03  0.26620948032E+03  0.00000000000E+00 0.  1.
</event>
<event>
12    1  0.1061634E+000  0.1812844E+03  0.7818608E-02  0.1170023E+00
         21   -1    0    0  501  502  0.00000000000E+00  0.00000000000E+00  0.28741627121E+03  0.28741627121E+03  0.00000000000E+00 0. -1.
         21   -1    0    0  502  503 -0.00000000000E+00 -0.00000000000E+00 -0.10705263958E+03  0.10705263958E+03  0.00000000000E+00 0. -1.
         -6    2    1    2    0  503 -0.10651617326E+02  0.55582784112E+02  0.11511692089E+03  0.21474618679E+03  0.17222402976E+03 0.  0.
        -24    2    3    3    0    0 -0.23870552316E+01 -0.35339347506E+02  0.76187070387E+02  0.11538442219E+03  0.79085571859E+02 0.  0.
          6    2    1    2  501    0  0.10651617326E+02 -0.55582784112E+02  0.65246710742E+02  0.17972272399E+03  0.15760780887E+03 0.  0.
         24    2    5    5    0    0  0.28544342727E+02 -0.83517687232E+02  0.80021160537E+02  0.14310465740E+03  0.79281607278E+02 0.  0.
          5    1    5    5  501    0 -0.17892725401E+02  0.27934903120E+02 -0.14774449795E+02  0.36618066598E+02  0.47000000000E+01 0. -1.
        -13    1    6    6    0    0  0.52868299784E+02 -0.34073629867E+02  0.35219430338E+02  0.72086598253E+02  0.00000000000E+00 0.  1.
         14    1    6    6    0    0 -0.24323957057E+02 -0.49444057365E+02  0.44801730199E+02  0.71018059143E+02  0.00000000000E+00 0. -1.
         -5    1    3    3    0  503 -0.82645620943E+01  0.90922131617E+02  0.38929850501E+02  0.99361764600E+02  0.47000000000E+01 0.  1.
         13    1    4    4    0    0 -0.40367041825E+01 -0.48345893980E+01 -0.16569755982E+02  0.17726394123E+02  0.00000000000E+00 0. -1.
        -14    1    4    4    0    0  0.16496489509E+01 -0.30504758108E+02  0.92756826368E+02  0.97658028072E+02  0.00000000000E+00 0.  1.
</event>
<event>
12    1  0.1061634E+000  0.2232555E+03  0.7818608E-02  0.1131829E+00
         21   -1    0    0  503  502  0.00000000000E+00  0.00000000000E+00  0.64276198476E+02  0.64276198476E+02  0.00000000000E+00 0.  1.
         21   -1    0    0  501  503 -0.00000000000E+00 -0.00000000000E+00 -0.86310801464E+03  0.86310801464E+03  0.00000000000E+00 0.  1.
          6    2    1    2  501    0 -0.42857237939E+02 -0.13346872637E+03 -0.24770285336E+03  0.33346623720E+03  0.17375955809E+03 0.  0.
         24    2    3    3    0    0 -0.75444396207E+02 -0.88228806569E+02 -0.96501608435E+02  0.17224440340E+03  0.82942117437E+02 0.  0.
         -6    2    1    2    0  502  0.42857237939E+02  0.13346872637E+03 -0.55112896280E+03  0.59391797591E+03  0.17130319526E+03 0.  0.
        -24    2    5    5    0    0  0.38912591164E+02  0.16454038949E+03 -0.49414122350E+03  0.52872057629E+03  0.82353928285E+02 0.  0.
          5    1    3    3  501    0  0.32587158268E+02 -0.45239919802E+02 -0.15120124492E+03  0.16122183380E+03  0.47000000000E+01 0. -1.
        -13    1    4    4    0    0  0.71642519422E+01 -0.40843717032E+01 -0.41174935208E+02  0.41992664686E+02  0.00000000000E+00 0.  1.
         14    1    4    4    0    0 -0.82608648149E+02 -0.84144434865E+02 -0.55326673227E+02  0.13025173871E+03  0.00000000000E+00 0. -1.
         -5    1    5    5    0  502  0.39446467753E+01 -0.31071663115E+02 -0.56987739298E+02  0.65197399620E+02  0.47000000000E+01 0.  1.
         13    1    6    6    0    0  0.40243479335E+02  0.25366066918E+02 -0.15484327995E+03  0.16198585224E+03  0.00000000000E+00 0. -1.
        -14    1    6    6    0    0 -0.13308881711E+01  0.13917432257E+03 -0.33929794356E+03  0.36673472406E+03  0.00000000000E+00 0.  1.
</event>
<event>
12    1  0.1061634E+000  0.2864587E+03  0.7818608E-02  0.1092519E+00
         21   -1    0    0  503  502  0.00000000000E+00  0.00000000000E+00  0.44019532324E+03  0.44019532324E+03  0.00000000000E+00 0. -1.
         21   -1    0    0  501  503 -0.00000000000E+00 -0.00000000000E+00 -0.30320604623E+03  0.30320604623E+03  0.00000000000E+00 0. -1.
          6    2    1    2  501    0  0.11824381940E+02  0.22600073956E+03  0.30082524116E+03  0.41539668223E+03  0.17562012298E+03 0.  0.
         24    2    3    3    0    0  0.84729252199E+01  0.19068035188E+03  0.31512126004E+03  0.37685802367E+03  0.79308098050E+02 0.  0.
         -6    2    1    2    0  502 -0.11824381940E+02 -0.22600073956E+03 -0.16383596415E+03  0.32800468725E+03  0.17183917312E+03 0.  0.
        -24    2    5    5    0    0 -0.49740701786E+02 -0.15494883992E+03 -0.80731960988E+02  0.21218420074E+03  0.10964125644E+03 0.  0.
          5    1    3    3  501    0  0.33514567196E+01  0.35320387677E+02 -0.14296018881E+02  0.38538658560E+02  0.47000000000E+01 0. -1.
        -13    1    4    4    0    0 -0.22582989836E+02  0.12145688004E+03  0.24085211705E+03  0.27068710244E+03  0.00000000000E+00 0.  1.
         14    1    4    4    0    0  0.31055915056E+02  0.69223471839E+02  0.74269142988E+02  0.10617092122E+03  0.00000000000E+00 0. -1.
         -5    1    5    5    0  502  0.37916319847E+02 -0.71051899644E+02 -0.83104003159E+02  0.11582048651E+03  0.47000000000E+01 0.  1.
         11    1    6    6    0    0 -0.11025391943E+02  0.98750894595E+01  0.12079288450E+02  0.19104603340E+02  0.00000000000E+00 0. -1.
        -12    1    6    6    0    0 -0.38715309843E+02 -0.16482392937E+03 -0.92811249437E+02  0.19307959740E+03  0.00000000000E+00 0.  1.
</event>
<event>
12    1  0.1061634E+000  0.4575806E+03  0.7818608E-02  0.1025498E+00
         21   -1    0    0  503  502  0.00000000000E+00  0.00000000000E+00  0.28079459809E+03  0.28079459809E+03  0.00000000000E+00 0.  1.
         21   -1    0    0  501  503 -0.00000000000E+00 -0.00000000000E+00 -0.74539425154E+03  0.74539425154E+03  0.00000000000E+00 0.  1.
          6    2    1    2  501    0  0.41797141694E+03 -0.69616837332E+02 -0.23376901170E+03  0.51368248854E+03  0.17226473457E+03 0.  0.
         24    2    3    3    0    0  0.80300040489E+02  0.17387557712E+01 -0.32985146155E+02  0.11437079348E+03  0.74441512350E+02 0.  0.
         -6    2    1    2    0  502 -0.41797141694E+03  0.69616837332E+02 -0.23083064176E+03  0.51250636109E+03  0.17272340768E+03 0.  0.
        -24    2    5    5    0    0 -0.35962686063E+03  0.18332451147E+02 -0.23113352865E+03  0.43468375988E+03  0.76548712526E+02 0.  0.
          5    1    3    3  501    0  0.33767137645E+03 -0.71355593103E+02 -0.20078386554E+03  0.39931169505E+03  0.47000000000E+01 0. -1.
        -13    1    4    4    0    0  0.18652273721E+02 -0.31627602416E+02 -0.23597081721E+02  0.43646704518E+02  0.00000000000E+00 0.  1.
         14    1    4    4    0    0  0.61647766768E+02  0.33366358187E+02 -0.93880644341E+01  0.70724088965E+02  0.00000000000E+00 0. -1.
         -5    1    5    5    0  502 -0.58344556319E+02  0.51284386185E+02  0.30288689546E+00  0.77822601209E+02  0.47000000000E+01 0.  1.
         13    1    6    6    0    0 -0.32048335266E+03  0.27334244222E+02 -0.17655018183E+03  0.36691512226E+03  0.00000000000E+00 0. -1.
        -14    1    6    6    0    0 -0.39143507961E+02 -0.90017930757E+01 -0.54583346824E+02  0.67768637618E+02  0.00000000000E+00 0.  1.
</event>
<event>
12    1  0.1061634E+000  0.2643970E+03  0.7818608E-02  0.1104532E+00
         21   -1    0    0  503  502  0.00000000000E+00  0.00000000000E+00  0.17694415572E+03  0.17694415572E+03  0.00000000000E+00 0.  1.
         21   -1    0    0  501  503 -0.00000000000E+00 -0.00000000000E+00 -0.45721112059E+03  0.45721112059E+03  0.00000000000E+00 0.  1.
          6    2    1    2  501    0 -0.11322617973E+03  0.16539633368E+03 -0.23220288099E+02  0.26541470340E+03  0.17242293359E+03 0.  0.
         24    2    3    3    0    0 -0.37809965430E+02  0.16102690339E+02 -0.33280653216E+02  0.97785653802E+02  0.82252915383E+02 0.  0.
         -6    2    1    2    0  502  0.11322617973E+03 -0.16539633368E+03 -0.25704667677E+03  0.36874057291E+03  0.17239634886E+03 0.  0.
        -24    2    5    5    0    0  0.62462022962E+02 -0.31515733290E+02 -0.57977922648E+02  0.12348259925E+03  0.83616786871E+02 0.  0.
          5    1    3    3  501    0 -0.75416214304E+02  0.14929364334E+03  0.10060365118E+02  0.16762904960E+03  0.47000000000E+01 0. -1.
        -13    1    4    4    0    0 -0.23981502230E+02 -0.24617549828E+02  0.10974743246E+02  0.36077433363E+02  0.00000000000E+00 0.  1.
         14    1    4    4    0    0 -0.13828463200E+02  0.40720240168E+02 -0.44255396462E+02  0.61708220439E+02  0.00000000000E+00 0. -1.
         -5    1    5    5    0  502  0.50764156772E+02 -0.13388060039E+03 -0.19906875412E+03  0.24525797365E+03  0.47000000000E+01 0.  1.
         11    1    6    6    0    0  0.44712088196E+02 -0.60346313892E+02 -0.41896168260E+02  0.86000798520E+02  0.00000000000E+00 0. -1.
        -12    1    6    6    0    0  0.17749934766E+02  0.28830580603E+02 -0.16081754389E+02  0.37481800735E+02  0.00000000000E+00 0.  1.
</event>
<event>
12    1  0.1061634E+000  0.5930087E+03  0.7818608E-02  0.9920153E-01
         21   -1    0    0  503  502  0.00000000000E+00  0.00000000000E+00  0.31076769624E+04  0.31076769624E+04  0.00000000000E+00 0. -1.
         21   -1    0    0  501  503 -0.00000000000E+00 -0.00000000000E+00 -0.11798211834E+03  0.11798211834E+03  0.00000000000E+00 0. -1.
          6    2    1    2  501    0 -0.56664839294E+03  0.30980931293E+02  0.18229350650E+04  0.19169641581E+04  0.17207298718E+03 0.  0.
         24    2    3    3    0    0 -0.56163980797E+03  0.26291723196E+02  0.18222060752E+04  0.19086157438E+04  0.79047760087E+02 0.  0.
         -6    2    1    2    0  502  0.56664839294E+03 -0.30980931293E+02  0.11667597790E+04  0.13086949226E+04  0.17118352475E+03 0.  0.
        -24    2    5    5    0    0  0.13685666436E+03  0.31491427355E+01  0.23629505178E+03  0.28318407888E+03  0.74954702057E+02 0.  0.
          5    1    3    3  501    0 -0.50085849696E+01  0.46892080964E+01  0.72898984906E+00  0.83484143506E+01  0.47000000000E+01 0. -1.
        -13    1    4    4    0    0 -0.20870322864E+03  0.48096179910E+02  0.68530302747E+03  0.71799061249E+03  0.00000000000E+00 0.  1.
         14    1    4    4    0    0 -0.35293657934E+03 -0.21804456713E+02  0.11369030477E+04  0.11906251313E+04  0.00000000000E+00 0. -1.
         -5    1    5    5    0  502  0.42979172859E+03 -0.34130074028E+02  0.93046472722E+03  0.10255108437E+04  0.47000000000E+01 0.  1.
         13    1    6    6    0    0  0.13985158740E+03  0.17766586645E+02  0.21740098388E+03  0.25910867583E+03  0.00000000000E+00 0. -1.
        -14    1    6    6    0    0 -0.29949230418E+01 -0.14617443910E+02  0.18894067896E+02  0.24075403053E+02  0.00000000000E+00 0.  1.
</event>
<event>
12    1  0.1061634E+000  0.1977956E+03  0.7818608E-02  0.1152145E+00
         21   -1    0    0  501  502  0.00000000000E+00  0.00000000000E+00  0.31106665752E+02  0.31106665752E+02  0.00000000000E+00 0. -1.
         21   -1    0    0  502  503 -0.00000000000E+00 -0.00000000000E+00 -0.12454066641E+04  0.12454066641E+04  0.00000000000E+00 0. -1.
         -6    2    1    2    0  503 -0.18443833237E+02 -0.94930177579E+02 -0.57006389696E+03  0.60259696438E+03  0.16970074029E+03 0.  0.
        -24    2    3    3    0    0  0.41784707625E+02 -0.32134704211E+02 -0.21219512148E+03  0.23427251627E+03  0.84132284480E+02 0.  0.
          6    2    1    2  501    0  0.18443833237E+02  0.94930177579E+02 -0.64423610140E+03  0.67391636549E+03  0.17254332711E+03 0.  0.
         24    2    5    5    0    0  0.47397235898E+02  0.46554548796E+02 -0.57651681978E+03  0.58567526345E+03  0.78930645162E+02 0.  0.
          5    1    5    5  501    0 -0.28953402661E+02  0.48375628783E+02 -0.67719281616E+02  0.88241102035E+02  0.47000000000E+01 0. -1.
        -11    1    6    6    0    0 -0.66612540187E+01 -0.16820992361E+01 -0.29193250661E+03  0.29201333905E+03  0.00000000000E+00 0.  1.
         12    1    6    6    0    0  0.54058489917E+02  0.48236648032E+02 -0.28458431317E+03  0.29366192441E+03  0.00000000000E+00 0. -1.
         -5    1    3    3    0  503 -0.60228540862E+02 -0.62795473367E+02 -0.35786877548E+03  0.36832444811E+03  0.47000000000E+01 0.  1.
         13    1    4    4    0    0  0.39887285087E+02 -0.93470952518E+01 -0.20674577000E+03  0.21076569245E+03  0.00000000000E+00 0. -1.
        -14    1    4    4    0    0  0.18974225381E+01 -0.22787608960E+02 -0.54493514810E+01  0.23506823817E+02  0.00000000000E+00 0.  1.
</event>
<event>
12    1  0.1061634E+000  0.2908536E+03  0.7818608E-02  0.1089909E+00
         21   -1    0    0  503  502  0.00000000000E+00  0.00000000000E+00  0.13663031483E+04  0.13663031483E+04  0.00000000000E+00 0.  1.
         21   -1    0    0  501  503 -0.00000000000E+00 -0.00000000000E+00 -0.83449956819E+02  0.83449956819E+02  0.00000000000E+00 0.  1.
          6    2    1    2  501    0  0.15439943595E+03  0.17669077454E+03  0.10097440451E+04  0.10507991580E+04  0.17186337104E+03 0.  0.
         24    2    3    3    0    0  0.16490049223E+03  0.15979813134E+03  0.99816169909E+03  0.10273071527E+04  0.79407765709E+02 0.  0.
         -6    2    1    2    0  502 -0.15439943595E+03 -0.17669077454E+03  0.27310914639E+03  0.39895394708E+03  0.17180462863E+03 0.  0.
        -24    2    5    5    0    0 -0.17162274546E+02 -0.11100039487E+03  0.14170115756E+03  0.19785841262E+03  0.80331202288E+02 0.  0.
          5    1    3    3  501    0 -0.10501056274E+02  0.16892643204E+02  0.11582345974E+02  0.23492005354E+02  0.47000000000E+01 0. -1.
        -11    1    4    4    0    0  0.16475089300E+02  0.72575618363E+01  0.21461133107E+03  0.21536509512E+03  0.00000000000E+00 0.  1.
         12    1    4    4    0    0  0.14842540293E+03  0.15254056950E+03  0.78355036802E+03  0.81194205754E+03  0.00000000000E+00 0. -1.
         -5    1    5    5    0  502 -0.13723716141E+03 -0.65690379670E+02  0.13140798883E+03  0.20109553447E+03  0.47000000000E+01 0.  1.
         13    1    6    6    0    0 -0.40113134420E+01 -0.38515915803E+02  0.11186496032E+03  0.11837793609E+03  0.00000000000E+00 0. -1.
        -14    1    6    6    0    0 -0.13150961104E+02 -0.72484479067E+02  0.29836197241E+02  0.79480476529E+02  0.00000000000E+00 0.  1.
</event>
<event>
12    1  0.1061634E+000  0.1757724E+03  0.7818608E-02  0.1172064E+00
         21   -1    0    0  501  502  0.00000000000E+00  0.00000000000E+00  0.16564746013E+03  0.16564746013E+03  0.00000000000E+00 0. -1.
         21   -1    0    0  502  503 -0.00000000000E+00 -0.00000000000E+00 -0.18608180390E+03  0.18608180390E+03  0.00000000000E+00 0. -1.
         -6    2    1    2    0  503  0.71727059933E+01  0.41432567879E+02 -0.88077247734E+01  0.17557276787E+03  0.17023547048E+03 0.  0.
        -24    2    3    3    0    0 -0.27055740984E+02 -0.19605214320E+02  0.34359884231E+02  0.93215437261E+02  0.79950850844E+02 0.  0.
          6    2    1    2  501    0 -0.71727059933E+01 -0.41432567879E+02 -0.11626619003E+02  0.17615649616E+03  0.17066876538E+03 0.  0.
         24    2    5    5    0    0 -0.58388083856E+02 -0.66373964074E+02 -0.33840098213E+01  0.11840600889E+03  0.78701079881E+02 0.  0.
          5    1    5    5  501    0  0.51215377863E+02  0.24941396195E+02 -0.82426091818E+01  0.57750487270E+02  0.47000000000E+01 0. -1.
        -11    1    6    6    0    0 -0.19349360716E+02  0.16167189281E+02 -0.93776654594E+01  0.26901977229E+02  0.00000000000E+00 0.  1.
         12    1    6    6    0    0 -0.39038723140E+02 -0.82541153355E+02  0.59936556381E+01  0.91504031657E+02  0.00000000000E+00 0. -1.
         -5    1    3    3    0  503  0.34228446977E+02  0.61037782199E+02 -0.43167609004E+02  0.82357330611E+02  0.47000000000E+01 0.  1.
         13    1    4    4    0    0 -0.11672865487E+02 -0.43929320684E+02 -0.35802988618E+01  0.45594512217E+02  0.00000000000E+00 0. -1.
        -14    1    4    4    0    0 -0.15382875497E+02  0.24324106364E+02  0.37940183092E+02  0.47620925044E+02  0.00000000000E+00 0.  1.
</event>
<event>
12    1  0.1061634E+000  0.2779007E+03  0.7818608E-02  0.1097045E+00
         21   -1    0    0  501  502  0.00000000000E+00  0.00000000000E+00  0.56341657929E+03  0.56341657929E+03  0.00000000000E+00 0.  1.
         21   -1    0    0  502  503 -0.00000000000E+00 -0.00000000000E+00 -0.13902344666E+03  0.13902344666E+03  0.00000000000E+00 0.  1.
         -6    2    1    2    0  503 -0.13928457167E+03  0.16696078619E+03  0.26149435700E+03  0.38158627601E+03  0.17306845832E+03 0.  0.
        -24    2    3    3    0    0 -0.15616072521E+03  0.14630558899E+03  0.27126042846E+03  0.35279551566E+03  0.71350951997E+02 0.  0.
          6    2    1    2  501    0  0.13928457167E+03 -0.16696078619E+03  0.16289877563E+03  0.32085374994E+03  0.17068984069E+03 0.  0.
         24    2    5    5    0    0  0.27366528622E+02 -0.12998159791E+03  0.57274467363E+02  0.16251331536E+03  0.74068011807E+02 0.  0.
          5    1    5    5  501    0  0.11191804305E+03 -0.36979188283E+02  0.10562430827E+03  0.15834043458E+03  0.47000000000E+01 0. -1.
        -11    1    6    6    0    0  0.30876556821E+02 -0.48370652985E+02  0.56919107211E+02  0.80826150453E+02  0.00000000000E+00 0.  1.
         12    1    6    6    0    0 -0.35100281989E+01 -0.81610944925E+02  0.35536015179E+00  0.81687164906E+02  0.00000000000E+00 0. -1.
         -5    1    3    3    0  503  0.16876153538E+02  0.20655197201E+02 -0.97660714654E+01  0.28790760350E+02  0.47000000000E+01 0.  1.
         13    1    4    4    0    0 -0.93770577806E+02  0.93595993734E+02  0.11067401388E+03  0.17263217734E+03  0.00000000000E+00 0. -1.
        -14    1    4    4    0    0 -0.62390147405E+02  0.52709595260E+02  0.16058641459E+03  0.18016333832E+03  0.00000000000E+00 0.  1.
</event>
<event>
12    1  0.1061634E+000  0.2347825E+03  0.7818608E-02  0.1123468E+00
         21   -1    0    0  501  502  0.00000000000E+00  0.00000000000E+00  0.68602865569E+03  0.68602865569E+03  0.00000000000E+00 0.  1.
         21   -1    0    0  502  503 -0.00000000000E+00 -0.00000000000E+00 -0.10431103575E+03  0.10431103575E+03  0.00000000000E+00 0.  1.
         -6    2    1    2    0  503 -0.15992070782E+03 -0.36511972333E+01  0.99872275869E+02  0.25433805779E+03  0.17066168909E+03 0.  0.
        -24    2    3    3    0    0 -0.18730225783E+03  0.34046564148E+01  0.76760068396E+02  0.21751688880E+03  0.79547227107E+02 0.  0.
          6    2    1    2  501    0  0.15992070782E+03  0.36511972333E+01  0.48184534407E+03  0.53600163364E+03  0.17185706744E+03 0.  0.
         24    2    5    5    0    0  0.40628755668E+02 -0.18206800532E+02  0.10245509268E+03  0.13767087313E+03  0.80461418831E+02 0.  0.
          5    1    5    5  501    0  0.11929195215E+03  0.21857997765E+02  0.37939025139E+03  0.39833076050E+03  0.47000000000E+01 0. -1.
        -11    1    6    6    0    0  0.17963214245E+02 -0.24780740120E+02  0.10897147185E+03  0.11318809047E+03  0.00000000000E+00 0.  1.
         12    1    6    6    0    0  0.22665541423E+02  0.65739395883E+01 -0.65163791654E+01  0.24482782667E+02  0.00000000000E+00 0. -1.
         -5    1    3    3    0  503  0.27381550010E+02 -0.70558536481E+01  0.23112207473E+02  0.36821168992E+02  0.47000000000E+01 0.  1.
         11    1    4    4    0    0 -0.16977073852E+03  0.13092765983E+02  0.90880428745E+02  0.19300978345E+03  0.00000000000E+00 0. -1.
        -12    1    4    4    0    0 -0.17531519313E+02 -0.96881095687E+01 -0.14120360349E+02  0.24507105354E+02  0.00000000000E+00 0.  1.
</event>
<event>
12    1  0.1061634E+000  0.2013546E+03  0.7818608E-02  0.1148737E+00
         21   -1    0    0  503  502  0.00000000000E+00  0.00000000000E+00  0.28531087706E+03  0.28531087706E+03  0.00000000000E+00 0.  1.
         21   -1    0    0  501  503 -0.00000000000E+00 -0.00000000000E+00 -0.14732423755E+03  0.14732423755E+03  0.00000000000E+00 0.  1.
          6    2    1    2  501    0  0.10371435926E+03 -0.14165259336E+02  0.11135036478E+03  0.22952640820E+03  0.17124878228E+03 0.  0.
         24    2    3    3    0    0  0.39773970638E+02 -0.64698031845E+02  0.32970838427E+02  0.11635673670E+03  0.81755794439E+02 0.  0.
         -6    2    1    2    0  502 -0.10371435926E+03  0.14165259336E+02  0.26636274723E+02  0.20310870641E+03  0.17200678068E+03 0.  0.
        -24    2    5    5    0    0  0.74721159222E+01 -0.25230039456E+01  0.16366267750E+02  0.90110947857E+02  0.88260580886E+02 0.  0.
          5    1    3    3  501    0  0.63940388626E+02  0.50532772509E+02  0.78379526356E+02  0.11316967150E+03  0.47000000000E+01 0. -1.
        -13    1    4    4    0    0  0.61073932855E+02 -0.24298094954E+02  0.16134277692E+02  0.67681146632E+02  0.00000000000E+00 0.  1.
         14    1    4    4    0    0 -0.21299962217E+02 -0.40399936891E+02  0.16836560735E+02  0.48675590070E+02  0.00000000000E+00 0. -1.
         -5    1    5    5    0  502 -0.11118647519E+03  0.16688263282E+02  0.10270006972E+02  0.11299775856E+03  0.47000000000E+01 0.  1.
         11    1    6    6    0    0 -0.25333448106E+02 -0.42501264829E+01  0.41459711399E+02  0.48772480328E+02  0.00000000000E+00 0. -1.
        -12    1    6    6    0    0  0.32805564028E+02  0.17271225373E+01 -0.25093443649E+02  0.41338467529E+02  0.00000000000E+00 0.  1.
</event>
<event>
12    1  0.1061634E+000  0.2280777E+03  0.7818608E-02  0.1128032E+00
         21   -1    0    0  503  502  0.00000000000E+00  0.00000000000E+00  0.74533851164E+02  0.74533851164E+02  0.00000000000E+00 0. -1.
         21   -1    0    0  501  503 -0.00000000000E+00 -0.00000000000E+00 -0.10915556842E+04  0.10915556842E+04  0.00000000000E+00 0. -1.
          6    2    1    2  501    0 -0.11591417483E+03 -0.94169225291E+02 -0.85900087626E+03  0.88876427926E+03  0.17238184287E+03 0.  0.
         24    2    3    3    0    0 -0.10930685289E+02  0.65876920461E+01 -0.25352555980E+03  0.26603164136E+03  0.79591124898E+02 0.  0.
         -6    2    1    2    0  502  0.11591417483E+03  0.94169225291E+02 -0.15802095681E+03  0.27732525614E+03  0.17214742514E+03 0.  0.
        -24    2    5    5    0    0 -0.44142515579E+01  0.99860130018E+01 -0.58430684126E+02  0.99825803065E+02  0.80198753342E+02 0.  0.
          5    1    3    3  501    0 -0.10498348954E+03 -0.10075691734E+03 -0.60547531646E+03  0.62273263790E+03  0.47000000000E+01 0. -1.
        -13    1    4    4    0    0 -0.15908531116E+02 -0.32519564788E+02 -0.16801594769E+03  0.17187193528E+03  0.00000000000E+00 0.  1.
         14    1    4    4    0    0  0.49778458274E+01  0.39107256834E+02 -0.85509612107E+02  0.94159706079E+02  0.00000000000E+00 0. -1.
         -5    1    5    5    0  502  0.12032842639E+03  0.84183212289E+02 -0.99590272679E+02  0.17749945307E+03  0.47000000000E+01 0.  1.
         11    1    6    6    0    0 -0.35476142896E+02 -0.50262667540E+01 -0.49324348894E+01  0.36168342320E+02  0.00000000000E+00 0. -1.
        -12    1    6    6    0    0  0.31061891338E+02  0.15012279756E+02 -0.53498249237E+02  0.63657460744E+02  0.00000000000E+00 0.  1.
</event>
<event>
12    1  0.1061634E+000  0.2272943E+03  0.7818608E-02  0.1128652E+00
         21   -1    0    0  501  502  0.00000000000E+00  0.00000000000E+00  0.15084366363E+03  0.15084366363E+03  0.00000000000E+00 0. -1.
         21   -1    0    0  502  503 -0.00000000000E+00 -0.00000000000E+00 -0.34171129189E+03  0.34171129189E+03  0.00000000000E+00 0. -1.
         -6    2    1    2    0  503 -0.81719622482E+02  0.12556704759E+03 -0.96529334783E+02  0.24646068072E+03  0.17023446926E+03 0.  0.
        -24    2    3    3    0    0  0.22525410743E+02  0.61369130482E+02 -0.27676747518E+02  0.10592183098E+03  0.78612134043E+02 0.  0.
          6    2    1    2  501    0  0.81719622482E+02 -0.12556704759E+03 -0.94338293476E+02  0.24609427481E+03  0.17093126787E+03 0.  0.
         24    2    5    5    0    0  0.12283895146E+03 -0.73469944571E+02 -0.65163351064E+02  0.17344322785E+03  0.73137201309E+02 0.  0.
          5    1    5    5  501    0 -0.41119328976E+02 -0.52097103023E+02 -0.29174942413E+02  0.72651046955E+02  0.47000000000E+01 0. -1.
        -11    1    6    6    0    0  0.86977586382E+02 -0.53091941051E+02 -0.70029817907E+01  0.10214155125E+03  0.00000000000E+00 0.  1.
         12    1    6    6    0    0  0.35861365076E+02 -0.20378003520E+02 -0.58160369273E+02  0.71301676604E+02  0.00000000000E+00 0. -1.
         -5    1    3    3    0  503 -0.10424503322E+03  0.64197917112E+02 -0.68852587265E+02  0.14053884974E+03  0.47000000000E+01 0.  1.
         11    1    4    4    0    0  0.33721709915E+02  0.18699090544E+02  0.17883064844E+02  0.42504278784E+02  0.00000000000E+00 0. -1.
        -12    1    4    4    0    0 -0.11196299172E+02  0.42670039938E+02 -0.45559812362E+02  0.63417552191E+02  0.00000000000E+00 0.  1.
</event>
<event>
12    1  0.1061634E+000  0.3000752E+03  0.7818608E-02  0.1085888E+00
         21   -1    0    0  501  502  0.00000000000E+00  0.00000000000E+00  0.91143251743E+03  0.91143251743E+03  0.00000000000E+00 0. -1.
         21   -1    0    0  502  503 -0.00000000000E+00 -0.00000000000E+00 -0.99028117759E+02  0.99028117759E+02  0.00000000000E+00 0. -1.
         -6    2    1    2    0  503 -0.13218167986E+03  0.20105498749E+03  0.48186839711E+03  0.56766387414E+03  0.17930425926E+03 0.  0.
        -24    2    3    3    0    0 -0.14927123965E+03  0.17423784363E+03  0.47146497725E+03  0.53387728799E+03  0.10052365252E+03 0.  0.
          6    2    1    2  501    0  0.13218167986E+03 -0.20105498749E+03  0.33053600257E+03  0.44279676105E+03  0.17005827860E+03 0.  0.
         24    2    5    5    0    0  0.32427732490E+02 -0.13729682269E+03  0.25384960338E+03  0.30166261418E+03  0.81601080254E+02 0.  0.
          5    1    5    5  501    0  0.99753947367E+02 -0.63758164804E+02  0.76686399182E+02  0.14113414687E+03  0.47000000000E+01 0. -1.
        -11    1    6    6    0    0  0.20143120040E+02 -0.11904259835E+03  0.13635331645E+03  0.18212389304E+03  0.00000000000E+00 0.  1.
         12    1    6    6    0    0  0.12284612450E+02 -0.18254224337E+02  0.11749628693E+03  0.11953872114E+03  0.00000000000E+00 0. -1.
         -5    1    3    3    0  503  0.17089559798E+02  0.26817143860E+02  0.10403419853E+02  0.33786586148E+02  0.47000000000E+01 0.  1.
         11    1    4    4    0    0 -0.41939784026E+02  0.31556305380E+02  0.37172999479E+02  0.64316232660E+02  0.00000000000E+00 0. -1.
        -12    1    4    4    0    0 -0.10733145563E+03  0.14268153825E+03  0.43429197778E+03  0.46956105533E+03  0.00000000000E+00 0.  1.
</event>
<event>
12    1  0.1061634E+000  0.1781800E+03  0.7818608E-02  0.1172539E+00
         21   -1    0    0  503  502  0.00000000000E+00  0.00000000000E+00  0.88856153411E+03  0.88856153411E+03  0.00000000000E+00 0. -1.
         21   -1    0    0  501  503 -0.00000000000E+00 -0.00000000000E+00 -0.35350275845E+02  0.35350275845E+02  0.00000000000E+00 0. -1.
          6    2    1    2  501    0 -0.32120781740E+02  0.14866089055E+02  0.54784042362E+03  0.57608786970E+03  0.17462920329E+03 0.  0.
         24    2    3    3    0    0 -0.50076207447E+02 -0.48878765442E+02  0.39895631120E+03  0.41307138980E+03  0.81025147732E+02 0.  0.
         -6    2    1    2    0  502  0.32120781740E+02 -0.14866089055E+02  0.30537083465E+03  0.34782394025E+03  0.16271878053E+03 0.  0.
        -24    2    5    5    0    0  0.39543048039E+01 -0.63390110538E+02  0.24406510345E+03  0.26458684659E+03  0.80028007764E+02 0.  0.
          5    1    3    3  501    0  0.17955425706E+02  0.63744854497E+02  0.14888411242E+03  0.16301647990E+03  0.47000000000E+01 0. -1.
        -13    1    4    4    0    0  0.21515530992E+02 -0.19615791703E+02  0.90579994852E+02  0.95144273740E+02  0.00000000000E+00 0.  1.
         14    1    4    4    0    0 -0.71591738439E+02 -0.29262973738E+02  0.30837631635E+03  0.31792711606E+03  0.00000000000E+00 0. -1.
         -5    1    5    5    0  502  0.28166476936E+02  0.48524021482E+02  0.61305731193E+02  0.83237093660E+02  0.47000000000E+01 0.  1.
         13    1    6    6    0    0 -0.33820462795E+02 -0.76327162943E+01  0.89827079628E+02  0.96285961055E+02  0.00000000000E+00 0. -1.
        -14    1    6    6    0    0  0.37774767599E+02 -0.55757394243E+02  0.15423802383E+03  0.16830088554E+03  0.00000000000E+00 0.  1.
</event>
<event>
12    1  0.1061634E+000  0.1989532E+03  0.7818608E-02  0.1150769E+00
         21   -1    0    0  503  502  0.00000000000E+00  0.00000000000E+00  0.14058888565E+04  0.14058888565E+04  0.00000000000E+00 0.  1.
         21   -1    0    0  501  503 -0.00000000000E+00 -0.00000000000E+00 -0.34693429260E+02  0.34693429260E+02  0.00000000000E+00 0.  1.
          6    2    1    2  501    0 -0.90392572180E+02  0.35641003328E+02  0.99963042845E+03  0.10191052023E+04  0.17283900527E+03 0.  0.
         24    2    3    3    0    0 -0.59851472024E+02  0.41169062513E+02  0.97012133848E+03  0.97602162510E+03  0.78776334568E+02 0.  0.
         -6    2    1    2    0  502  0.90392572180E+02 -0.35641003328E+02  0.37156499877E+03  0.42147708339E+03  0.17361245719E+03 0.  0.
        -24    2    5    5    0    0  0.10334941556E+03 -0.62211420528E+02  0.36229562489E+03  0.39014214837E+03  0.80008834394E+02 0.  0.
          5    1    3    3  501    0 -0.30541100156E+02 -0.55280591845E+01  0.29509089972E+02  0.43083577243E+02  0.47000000000E+01 0. -1.
        -13    1    4    4    0    0  0.68187774833E+01  0.38390207926E+02  0.28421051983E+03  0.28687266056E+03  0.00000000000E+00 0.  1.
         14    1    4    4    0    0 -0.66670249507E+02  0.27788545863E+01  0.68591081864E+03  0.68914896454E+03  0.00000000000E+00 0. -1.
         -5    1    5    5    0  502 -0.12956843380E+02  0.26570417200E+02  0.92693738757E+01  0.31334935018E+02  0.47000000000E+01 0.  1.
         11    1    6    6    0    0  0.85914420407E+01  0.12053726099E+02  0.10540794698E+03  0.10644219312E+03  0.00000000000E+00 0. -1.
        -12    1    6    6    0    0  0.94757973519E+02 -0.74265146627E+02  0.25688767791E+03  0.28369995525E+03  0.00000000000E+00 0.  1.
</event>
<event>
12    1  0.1061634E+000  0.2278970E+03  0.7818608E-02  0.1128983E+00
         21   -1    0    0  501  502  0.00000000000E+00  0.00000000000E+00  0.13583927429E+03  0.13583927429E+03  0.00000000000E+00 0. -1.
         21   -1    0    0  502  503 -0.00000000000E+00 -0.00000000000E+00 -0.37536838817E+03  0.37536838817E+03  0.00000000000E+00 0. -1.
         -6    2    1    2    0  503  0.74449383739E+02 -0.12247992560E+03 -0.10568093725E+03  0.24691161812E+03  0.17103462735E+03 0.  0.
        -24    2    3    3    0    0 -0.17145126466E+02 -0.73005318726E+02 -0.19873363568E+02  0.11192154172E+03  0.80670620416E+02 0.  0.
          6    2    1    2  501    0 -0.74449383739E+02  0.12247992560E+03 -0.13384817663E+03  0.26429604433E+03  0.17718076010E+03 0.  0.
         24    2    5    5    0    0 -0.10540889207E+03  0.59061318276E+02 -0.48192145524E+02  0.15321293771E+03  0.80947189878E+02 0.  0.
          5    1    5    5  501    0  0.30959508329E+02  0.63418607323E+02 -0.85656031111E+02  0.11108310662E+03  0.47000000000E+01 0. -1.
        -11    1    6    6    0    0 -0.94169607954E+00  0.38411925528E+02 -0.18603379847E+02  0.42690145888E+02  0.00000000000E+00 0.  1.
         12    1    6    6    0    0 -0.10446719599E+03  0.20649392748E+02 -0.29588765677E+02  0.11052279183E+03  0.00000000000E+00 0. -1.
         -5    1    3    3    0  503  0.91594510206E+02 -0.49474606873E+02 -0.85807573683E+02  0.13499007640E+03  0.47000000000E+01 0.  1.
         13    1    4    4    0    0  0.59184412174E+01 -0.34540679293E+02  0.29073715865E+02  0.45534244549E+02  0.00000000000E+00 0. -1.
        -14    1    4    4    0    0 -0.23063567684E+02 -0.38464639434E+02 -0.48947079433E+02  0.66387297174E+02  0.00000000000E+00 0.  1.
</event>
<event>
12    1  0.1061634E+000  0.2705018E+03  0.7818608E-02  0.1101019E+00
         21   -1    0    0  503  502  0.00000000000E+00  0.00000000000E+00  0.30501900817E+03  0.30501900817E+03  0.00000000000E+00 0.  1.
         21   -1    0    0  501  503 -0.00000000000E+00 -0.00000000000E+00 -0.25409043120E+03  0.25409043120E+03  0.00000000000E+00 0.  1.
          6    2    1    2  501    0 -0.20120621675E+03 -0.43888731934E+02  0.91918463991E+02  0.28551964973E+03  0.17510655016E+03 0.  0.
         24    2    3    3    0    0 -0.99579617436E+02  0.36471017042E+02  0.12054938879E+02  0.13325038958E+03  0.79775368875E+02 0.  0.
         -6    2    1    2    0  502  0.20120621675E+03  0.43888731934E+02 -0.40989887011E+02  0.27358978964E+03  0.17538825419E+03 0.  0.
        -24    2    5    5    0    0  0.17093499073E+03  0.66777523431E+00 -0.82599566347E+02  0.20622619682E+03  0.80544018497E+02 0.  0.
          5    1    3    3  501    0 -0.10162659931E+03 -0.80359748976E+02  0.79863525111E+02  0.15226926015E+03  0.47000000000E+01 0. -1.
        -11    1    4    4    0    0 -0.54466013091E+02  0.58311021352E+02  0.20593067242E+02  0.82406287452E+02  0.00000000000E+00 0.  1.
         12    1    4    4    0    0 -0.45113604346E+02 -0.21840004310E+02 -0.85381283625E+01  0.50844102129E+02  0.00000000000E+00 0. -1.
         -5    1    5    5    0  502  0.30271226018E+02  0.43220956699E+02  0.41609679335E+02  0.67363592816E+02  0.47000000000E+01 0.  1.
         11    1    6    6    0    0  0.50515656251E+02 -0.34243785156E+02 -0.11535357350E+02  0.62109039740E+02  0.00000000000E+00 0. -1.
        -12    1    6    6    0    0  0.12041933448E+03  0.34911560390E+02 -0.71064208997E+02  0.14411715708E+03  0.00000000000E+00 0.  1.
</event>
<event>
12    1  0.1061634E+000  0.2487056E+03  0.7818608E-02  0.1114768E+00
         21   -1    0    0  503  502  0.00000000000E+00  0.00000000000E+00  0.34143717175E+03  0.34143717175E+03  0.00000000000E+00 0. -1.
         21   -1    0    0  501  503 -0.00000000000E+00 -0.00000000000E+00 -0.25951857730E+03  0.25951857730E+03  0.00000000000E+00 0. -1.
          6    2    1    2  501    0 -0.16073789462E+03  0.74769522963E+02 -0.12695173026E+03  0.27923329538E+03  0.17443434038E+03 0.  0.
         24    2    3    3    0    0 -0.15667713368E+03  0.68954669083E+02 -0.41792543792E+02  0.19365012330E+03  0.80319878803E+02 0.  0.
         -6    2    1    2    0  502  0.16073789462E+03 -0.74769522963E+02  0.20887032471E+03  0.32172245367E+03  0.16867534592E+03 0.  0.
        -24    2    5    5    0    0  0.11545044085E+03 -0.78961951165E+02  0.70075463640E+02  0.17559020746E+03  0.79734285766E+02 0.  0.
          5    1    3    3  501    0 -0.40607609436E+01  0.58148538808E+01 -0.85159186467E+02  0.85583172089E+02  0.47000000000E+01 0. -1.
        -11    1    4    4    0    0 -0.78425868344E+00 -0.70783925255E+01 -0.17012040551E+02  0.18442565606E+02  0.00000000000E+00 0.  1.
         12    1    4    4    0    0 -0.15589287499E+03  0.76033061608E+02 -0.24780503241E+02  0.17520755769E+03  0.00000000000E+00 0. -1.
         -5    1    5    5    0  502  0.45287453765E+02  0.41924282020E+01  0.13879486107E+03  0.14613224621E+03  0.47000000000E+01 0.  1.
         13    1    6    6    0    0  0.12566255227E+03 -0.62234296851E+02  0.68106113801E+02  0.15589300011E+03  0.00000000000E+00 0. -1.
        -14    1    6    6    0    0 -0.10212111417E+02 -0.16727654314E+02  0.19693498390E+01  0.19697207346E+02  0.00000000000E+00 0.  1.
</event>
<event>
12    1  0.1061634E+000  0.2316323E+03  0.7818608E-02  0.1125567E+00
         21   -1    0    0  503  502  0.00000000000E+00  0.00000000000E+00  0.51253921687E+03  0.51253921687E+03  0.00000000000E+00 0.  1.
         21   -1    0    0  501  503 -0.00000000000E+00 -0.00000000000E+00 -0.12179704953E+03  0.12179704953E+03  0.00000000000E+00 0.  1.
          6    2    1    2  501    0  0.11808369904E+03  0.99992039863E+02  0.75692123291E+02  0.24329910320E+03  0.17182254822E+03 0.  0.
         24    2    3    3    0    0  0.25043657208E+02  0.10779295399E+03  0.29815225231E+02  0.13916417428E+03  0.78938039322E+02 0.  0.
         -6    2    1    2    0  502 -0.11808369904E+03 -0.99992039863E+02  0.31505004405E+03  0.39103716320E+03  0.17236984868E+03 0.  0.
        -24    2    5    5    0    0 -0.55985519429E+02 -0.11201110684E+03  0.13950902097E+03  0.20438941297E+03  0.81433400781E+02 0.  0.
          5    1    3    3  501    0  0.93040041834E+02 -0.78009141267E+01  0.45876898060E+02  0.10413492892E+03  0.47000000000E+01 0. -1.
        -11    1    4    4    0    0  0.19780590076E+02  0.17143647987E+01  0.26226646225E+02  0.32894494413E+02  0.00000000000E+00 0.  1.
         12    1    4    4    0    0  0.52630671318E+01  0.10607858919E+03  0.35885790057E+01  0.10626967987E+03  0.00000000000E+00 0. -1.
         -5    1    5    5    0  502 -0.62098179613E+02  0.12019066975E+02  0.17554102307E+03  0.18664775023E+03  0.47000000000E+01 0.  1.
         11    1    6    6    0    0  0.17237591828E+02 -0.20295555944E+02  0.50513049885E+02  0.57101772055E+02  0.00000000000E+00 0. -1.
        -12    1    6    6    0    0 -0.73223111258E+02 -0.91715550895E+02  0.88995971086E+02  0.14728764092E+03  0.00000000000E+00 0.  1.
</event>
<event>
12    1  0.1061634E+000  0.1968950E+03  0.7818608E-02  0.1152895E+00
         21   -1    0    0  501  502  0.00000000000E+00  0.00000000000E+00  0.85651027084E+02  0.85651027084E+02  0.00000000000E+00 0. -1.
         21   -1    0    0  502  503 -0.00000000000E+00 -0.00000000000E+00 -0.45140843714E+03  0.45140843714E+03  0.00000000000E+00 0. -1.
         -6    2    1    2    0  503  0.97396453427E+01  0.89978455270E+02 -0.15594663588E+03  0.24933006526E+03  0.17220669295E+03 0.  0.
        -24    2    3    3    0    0 -0.11131723537E+02  0.60254149049E+02 -0.17992501280E+03  0.20555563233E+03  0.78266404069E+02 0.  0.
          6    2    1    2  501    0 -0.97396453427E+01 -0.89978455270E+02 -0.20981077417E+03  0.28772939896E+03  0.17486183964E+03 0.  0.
         24    2    5    5    0    0 -0.25083999120E+02 -0.11437732426E+03 -0.21613306882E+03  0.25784938205E+03  0.77855128725E+02 0.  0.
          5    1    5    5  501    0  0.15344353778E+02  0.24398868988E+02  0.63222946507E+01  0.29880016908E+02  0.47000000000E+01 0. -1.
        -13    1    6    6    0    0 -0.52233076202E+02 -0.58556189820E+02 -0.11646790837E+03  0.14043466558E+03  0.00000000000E+00 0.  1.
         14    1    6    6    0    0  0.27149077082E+02 -0.55821134439E+02 -0.99665160452E+02  0.11741471647E+03  0.00000000000E+00 0. -1.
         -5    1    3    3    0  503  0.20871368879E+02  0.29724306221E+02  0.23978376915E+02  0.43774432934E+02  0.47000000000E+01 0.  1.
         13    1    4    4    0    0 -0.42024032152E+01  0.77734107100E+02 -0.12261811905E+03  0.14524274412E+03  0.00000000000E+00 0. -1.
        -14    1    4    4    0    0 -0.69293203217E+01 -0.17479958051E+02 -0.57306893747E+02  0.60312888212E+02  0.00000000000E+00 0.  1.
</event>
<event>
12    1  0.1061634E+000  0.1780548E+03  0.7818608E-02  0.1170959E+00
         21   -1    0    0  501  502  0.00000000000E+00  0.00000000000E+00  0.55826211690E+02  0.55826211690E+02  0.00000000000E+00 0. -1.
         21   -1    0    0  502  503 -0.00000000000E+00 -0.00000000000E+00 -0.55892388642E+03  0.55892388642E+03  0.00000000000E+00 0. -1.
         -6    2    1    2    0  503  0.83820443736E+01  0.43253238050E+02 -0.28245234951E+03  0.33122257240E+03  0.16729602941E+03 0.  0.
        -24    2    3    3    0    0 -0.44365784792E+02  0.43655194050E+02 -0.10444904203E+03  0.14550837659E+03  0.79931135675E+02 0.  0.
          6    2    1    2  501    0 -0.83820443736E+01 -0.43253238050E+02 -0.22064532521E+03  0.28352752570E+03  0.17251781654E+03 0.  0.
         24    2    5    5    0    0  0.84420811609E+01 -0.85276321605E+02 -0.20219906250E+03  0.23442207428E+03  0.82011756907E+02 0.  0.
          5    1    5    5  501    0 -0.16824125535E+02  0.42023083555E+02 -0.18446262709E+02  0.49105451423E+02  0.47000000000E+01 0. -1.
        -11    1    6    6    0    0  0.17346623382E+02 -0.41364391055E+02 -0.24394234361E+02  0.51058758897E+02  0.00000000000E+00 0.  1.
         12    1    6    6    0    0 -0.89045422215E+01 -0.43911930551E+02 -0.17780482814E+03  0.18336331538E+03  0.00000000000E+00 0. -1.
         -5    1    3    3    0  503  0.52747829166E+02 -0.40195600029E+00 -0.17800330748E+03  0.18571419581E+03  0.47000000000E+01 0.  1.
         13    1    4    4    0    0 -0.36474774292E+02  0.52757689440E+02 -0.11354861995E+03  0.13041116535E+03  0.00000000000E+00 0. -1.
        -14    1    4    4    0    0 -0.78910105002E+01 -0.91024953898E+01  0.90995779218E+01  0.15097211246E+02  0.00000000000E+00 0.  1.
</event>
<event>
12    1  0.1061634E+000  0.2742893E+03  0.7818608E-02  0.1098936E+00
         21   -1    0    0  501  502  0.00000000000E+00  0.00000000000E+00  0.80640576614E+02  0.80640576614E+02  0.00000000000E+00 0. -1.
         21   -1    0    0  502  503 -0.00000000000E+00 -0.00000000000E+00 -0.12366493007E+04  0.12366493007E+04  0.00000000000E+00 0. -1.
         -6    2    1    2    0  503 -0.20865075583E+03  0.43302400925E+02 -0.90600140100E+03  0.94661140140E+03  0.17269733875E+03 0.  0.
        -24    2    3    3    0    0 -0.16511086689E+03  0.57014880103E+02 -0.46404539162E+03  0.50227936537E+03  0.80213094162E+02 0.  0.
          6    2    1    2  501    0  0.20865075583E+03 -0.43302400925E+02 -0.25000732305E+03  0.37067847587E+03  0.17172255258E+03 0.  0.
         24    2    5    5    0    0  0.50137588943E+02 -0.33942614493E+02 -0.15731595430E+03  0.18675509639E+03  0.80394512543E+02 0.  0.
          5    1    5    5  501    0  0.15851316689E+03 -0.93597864317E+01 -0.92691368745E+02  0.18392337948E+03  0.47000000000E+01 0. -1.
        -11    1    6    6    0    0  0.56172691546E+02 -0.42382906675E+02 -0.71517897804E+02  0.10033190799E+03  0.00000000000E+00 0.  1.
         12    1    6    6    0    0 -0.60351026031E+01  0.84402921825E+01 -0.85798056498E+02  0.86423188406E+02  0.00000000000E+00 0. -1.
         -5    1    3    3    0  503 -0.43539888942E+02 -0.13712479178E+02 -0.44195600938E+03  0.44433203603E+03  0.47000000000E+01 0.  1.
         13    1    4    4    0    0 -0.39927921736E+01  0.27679151109E+02 -0.81085575788E+02  0.85772655295E+02  0.00000000000E+00 0. -1.
        -14    1    4    4    0    0 -0.16111807472E+03  0.29335728994E+02 -0.38295981583E+03  0.41650671008E+03  0.00000000000E+00 0.  1.
</event>
<event>
12    1  0.1061634E+000  0.1818182E+03  0.7818608E-02  0.1166211E+00
         21   -1    0    0  503  502  0.00000000000E+00  0.00000000000E+00  0.32846577229E+02  0.32846577229E+02  0.00000000000E+00 0. -1.
         21   -1    0    0  501  503 -0.00000000000E+00 -0.00000000000E+00 -0.11250670036E+04  0.11250670036E+04  0.00000000000E+00 0. -1.
          6    2    1    2  501    0 -0.48557733323E+02 -0.37568985405E+02 -0.35614610374E+03  0.39987238274E+03  0.17113910466E+03 0.  0.
         24    2    3    3    0    0 -0.17891915804E+01  0.41141378398E+02 -0.16269934671E+03  0.18580147003E+03  0.79720101735E+02 0.  0.
         -6    2    1    2    0  502  0.48557733323E+02  0.37568985405E+02 -0.73607432268E+03  0.75804119814E+03  0.17044579030E+03 0.  0.
        -24    2    5    5    0    0 -0.16976981275E+02  0.42184317316E+02 -0.21205581097E+03  0.22989955925E+03  0.76278475715E+02 0.  0.
          5    1    3    3  501    0 -0.46768541743E+02 -0.78710363803E+02 -0.19344675703E+03  0.21407091271E+03  0.47000000000E+01 0. -1.
        -11    1    4    4    0    0  0.42824830098E+01  0.44434833565E+02 -0.16999265149E+03  0.17575635310E+03  0.00000000000E+00 0.  1.
         12    1    4    4    0    0 -0.60716745902E+01 -0.32934551668E+01  0.72933047844E+01  0.10045116920E+02  0.00000000000E+00 0. -1.
         -5    1    5    5    0  502  0.65534714598E+02 -0.46153319105E+01 -0.52401851172E+03  0.52814163889E+03  0.47000000000E+01 0.  1.
         13    1    6    6    0    0 -0.24697473916E+02  0.38356477776E+02 -0.21575245605E+03  0.22052280357E+03  0.00000000000E+00 0. -1.
        -14    1    6    6    0    0  0.77204926409E+01  0.38278395396E+01  0.36966450802E+01  0.93767556760E+01  0.00000000000E+00 0.  1.
</event>
<event>
12    1  0.1061634E+000  0.3160204E+03  0.7818608E-02  0.1077569E+00
         21   -1    0    0  503  502  0.00000000000E+00  0.00000000000E+00  0.87694069885E+02  0.87694069885E+02  0.00000000000E+00 0.  1.
         21   -1    0    0  501  503 -0.00000000000E+00 -0.00000000000E+00 -0.11486903314E+04  0.11486903314E+04  0.00000000000E+00 0. -1.
          6    2    1    2  501    0  0.25150758443E+03 -0.83052189022E+02 -0.46755920360E+03  0.56434076309E+03  0.17238084838E+03 0.  0.
         24    2    3    3    0    0  0.21663091786E+03 -0.11151257613E+03 -0.44461473740E+03  0.51359715231E+03  0.82071681732E+02 0.  0.
         -6    2    1    2    0  502 -0.25150758443E+03  0.83052189022E+02 -0.59343705791E+03  0.67204363819E+03  0.17123486444E+03 0.  0.
        -24    2    5    5    0    0 -0.26191066308E+03  0.96404116762E+02 -0.58347468837E+03  0.65184866786E+03  0.81074192318E+02 0.  0.
          5    1    3    3  501    0  0.34876666577E+02  0.28460387108E+02 -0.22944466200E+02  0.50743610780E+02  0.47000000000E+01 0. -1.
        -13    1    4    4    0    0  0.10704800710E+03 -0.97918015807E+01 -0.19254288859E+03  0.22051738967E+03  0.00000000000E+00 0.  1.
         14    1    4    4    0    0  0.10958291076E+03 -0.10172077455E+03 -0.25207184881E+03  0.29307976264E+03  0.00000000000E+00 0. -1.
         -5    1    5    5    0  502  0.10403078648E+02 -0.13351927740E+02 -0.99623695433E+01  0.20194970330E+02  0.47000000000E+01 0.  1.
         11    1    6    6    0    0 -0.59918621209E+02  0.81771061603E+00 -0.71912133000E+02  0.93606969243E+02  0.00000000000E+00 0. -1.
        -12    1    6    6    0    0 -0.20199204187E+03  0.95586406146E+02 -0.51156255537E+03  0.55824169862E+03  0.00000000000E+00 0.  1.
</event>
<event>
12    1  0.1061634E+000  0.1946660E+03  0.7818608E-02  0.1154329E+00
         21   -1    0    0  503  502  0.00000000000E+00  0.00000000000E+00  0.11247636353E+03  0.11247636353E+03  0.00000000000E+00 0.  1.
         21   -1    0    0  501  503 -0.00000000000E+00 -0.00000000000E+00 -0.37570081432E+03  0.37570081432E+03  0.00000000000E+00 0. -1.
          6    2    1    2  501    0  0.58051609875E+02  0.68605373504E+02 -0.53115268739E+02  0.20178222413E+03  0.17267931989E+03 0.  0.
         24    2    3    3    0    0 -0.23177719069E+02  0.42129023924E+02 -0.66273629473E+02  0.11521182835E+03  0.81052514518E+02 0.  0.
         -6    2    1    2    0  502 -0.58051609875E+02 -0.68605373504E+02 -0.21010918205E+03  0.28639495373E+03  0.17262535867E+03 0.  0.
        -24    2    5    5    0    0 -0.13999351643E+02  0.13048224477E+02 -0.37176712369E+02  0.90089985405E+02  0.79798869161E+02 0.  0.
          5    1    3    3  501    0  0.81229328944E+02  0.26476349581E+02  0.13158360735E+02  0.86570395777E+02  0.47000000000E+01 0. -1.
        -13    1    4    4    0    0  0.28690440570E+01 -0.26746873306E+01  0.16825573960E+02  0.17276727271E+02  0.00000000000E+00 0.  1.
         14    1    4    4    0    0 -0.26046763126E+02  0.44803711254E+02 -0.83099203434E+02  0.97935101076E+02  0.00000000000E+00 0. -1.
         -5    1    5    5    0  502 -0.44052258233E+02 -0.81653597981E+02 -0.17293246968E+03  0.19630496833E+03  0.47000000000E+01 0.  1.
         11    1    6    6    0    0 -0.25119024891E+01  0.79960566106E+01 -0.61846463030E+02  0.62411790271E+02  0.00000000000E+00 0. -1.
        -12    1    6    6    0    0 -0.11487449154E+02  0.50521678663E+01  0.24669750661E+02  0.27678195135E+02  0.00000000000E+00 0.  1.
</event>
<event>
12    1  0.1061634E+000  0.2222218E+03  0.7818608E-02  0.1132296E+00
         21   -1    0    0  503  502  0.00000000000E+00  0.00000000000E+00  0.54352941433E+02  0.54352941433E+02  0.00000000000E+00 0.  1.
         21   -1    0    0  501  503 -0.00000000000E+00 -0.00000000000E+00 -0.93194792803E+03  0.93194792803E+03  0.00000000000E+00 0.  1.
          6    2    1    2  501    0  0.72584839523E+02  0.12060766843E+03 -0.51877123928E+03  0.56423805958E+03  0.17154072565E+03 0.  0.
         24    2    3    3    0    0  0.10243386868E+03  0.94053908689E+02 -0.48617725893E+03  0.51246427999E+03  0.83141301237E+02 0.  0.
         -6    2    1    2    0  502 -0.72584839523E+02 -0.12060766843E+03 -0.35882374731E+03  0.42206280988E+03  0.17195279945E+03 0.  0.
        -24    2    5    5    0    0 -0.83750713642E+02 -0.92464663392E+02 -0.15045950036E+03  0.21145783633E+03  0.80699809696E+02 0.  0.
          5    1    3    3  501    0 -0.29849029155E+02  0.26553759741E+02 -0.32593980356E+02  0.51773779593E+02  0.47000000000E+01 0. -1.
        -13    1    4    4    0    0  0.47540019931E+02 -0.55752204425E+01 -0.12793037709E+03  0.13659179317E+03  0.00000000000E+00 0.  1.
         14    1    4    4    0    0  0.54893848746E+02  0.99629129132E+02 -0.35824688184E+03  0.37587248682E+03  0.00000000000E+00 0. -1.
         -5    1    5    5    0  502  0.11165874119E+02 -0.28143005038E+02 -0.20836424695E+03  0.21060497355E+03  0.47000000000E+01 0.  1.
         11    1    6    6    0    0 -0.21460749355E+02 -0.29203158664E+02  0.59439621080E+00  0.36245572773E+02  0.00000000000E+00 0. -1.
        -12    1    6    6    0    0 -0.62289964287E+02 -0.63261504729E+02 -0.15105389657E+03  0.17521226356E+03  0.00000000000E+00 0.  1.
</event>
<event>
12    1  0.1628689E+000  0.3203091E+03  0.7818608E-02  0.1075758E+00
         21   -1    0    0  501  502  0.00000000000E+00  0.00000000000E+00  0.45978617030E+03  0.45978617030E+03  0.00000000000E+00 0.  1.
         21   -1    0    0  502  503 -0.00000000000E+00 -0.00000000000E+00 -0.51389608131E+03  0.51389608131E+03  0.00000000000E+00 0.  1.
         -6    2    1    2    0  503 -0.26249629198E+03  0.58648353711E+02  0.34012944159E+03  0.46572304126E+03  0.16989991594E+03 0.  0.
        -24    2    3    3    0    0 -0.98982956415E+02  0.53145235505E+00  0.70514429613E+02  0.14505416249E+03  0.79186597167E+02 0.  0.
          6    2    1    2  501    0  0.26249629198E+03 -0.58648353711E+02 -0.39423935260E+03  0.50795921035E+03  0.17393665383E+03 0.  0.
         24    2    5    5    0    0  0.63115209431E+02 -0.22090294491E+02 -0.78532088618E+02  0.13274930336E+03  0.83567803778E+02 0.  0.
          5    1    5    5  501    0  0.19938108255E+03 -0.36558059221E+02 -0.31570726398E+03  0.37520990698E+03  0.47000000000E+01 0. -1.
        -11    1    6    6    0    0 -0.89806060341E+01  0.80277027580E+01 -0.46955727488E+02  0.48476134750E+02  0.00000000000E+00 0.  1.
         12    1    6    6    0    0  0.72095815465E+02 -0.30117997249E+02 -0.31576361129E+02  0.84273168613E+02  0.00000000000E+00 0. -1.
         -5    1    3    3    0  503 -0.16351333556E+03  0.58116901356E+02  0.26961501197E+03  0.32066887877E+03  0.47000000000E+01 0.  1.
         13    1    4    4    0    0 -0.98281293529E+02  0.18456112932E+02  0.76756139859E+02  0.12606088120E+03  0.00000000000E+00 0. -1.
        -14    1    4    4    0    0 -0.70166288653E+00 -0.17924660577E+02 -0.62417102463E+01  0.18993281296E+02  0.00000000000E+00 0.  1.
</event>
<event>
12    1  0.1061634E+000  0.1804659E+03  0.7818608E-02  0.1167741E+00
         21   -1    0    0  501  502  0.00000000000E+00  0.00000000000E+00  0.83506779968E+02  0.83506779968E+02  0.00000000000E+00 0. -1.
         21   -1    0    0  502  503 -0.00000000000E+00 -0.00000000000E+00 -0.59157850297E+03  0.59157850297E+03  0.00000000000E+00 0. -1.
         -6    2    1    2    0  503  0.43407843572E+02 -0.29581514115E+02 -0.45348815170E+03  0.48807728845E+03  0.17265175617E+03 0.  0.
        -24    2    3    3    0    0 -0.34358780230E+01 -0.55701059896E+02 -0.14130259005E+03  0.17128322312E+03  0.79101878844E+02 0.  0.
          6    2    1    2  501    0 -0.43407843572E+02  0.29581514115E+02 -0.54583571302E+02  0.18700799449E+03  0.17097753328E+03 0.  0.
         24    2    5    5    0    0  0.17140509781E+02 -0.15582546348E+02  0.79543641530E+01  0.88829693309E+02  0.85386355339E+02 0.  0.
          5    1    5    5  501    0 -0.60548353353E+02  0.45164060463E+02 -0.62537935455E+02  0.98178301178E+02  0.47000000000E+01 0. -1.
        -13    1    6    6    0    0 -0.29658330674E+02  0.54830768266E+01  0.19902560886E+02  0.36135752928E+02  0.00000000000E+00 0.  1.
         14    1    6    6    0    0  0.46798840455E+02 -0.21065623175E+02 -0.11948196733E+02  0.52693940381E+02  0.00000000000E+00 0. -1.
         -5    1    3    3    0  503  0.46843721595E+02  0.26119545781E+02 -0.31218556165E+03  0.31679406533E+03  0.47000000000E+01 0.  1.
         13    1    4    4    0    0  0.17607434398E+02  0.14934946420E+02 -0.34971370756E+02  0.41905502541E+02  0.00000000000E+00 0. -1.
        -14    1    4    4    0    0 -0.21043312421E+02 -0.70636006317E+02 -0.10633121929E+03  0.12937772058E+03  0.00000000000E+00 0.  1.
</event>
<event>
12    1  0.1061634E+000  0.5316103E+03  0.7818608E-02  0.1005845E+00
         21   -1    0    0  503  502  0.00000000000E+00  0.00000000000E+00  0.51423648582E+03  0.51423648582E+03  0.00000000000E+00 0.  1.
         21   -1    0    0  501  503 -0.00000000000E+00 -0.00000000000E+00 -0.55340286234E+03  0.55340286234E+03  0.00000000000E+00 0.  1.
          6    2    1    2  501    0  0.50266627714E+03 -0.97031164373E+01 -0.64224571118E+02  0.53547582358E+03  0.17274844562E+03 0.  0.
         24    2    3    3    0    0  0.10348512982E+03  0.12102274931E+02 -0.28080197238E+02  0.13404143388E+03  0.79517113685E+02 0.  0.
         -6    2    1    2    0  502 -0.50266627714E+03  0.97031164373E+01  0.25058194591E+02  0.53216352458E+03  0.17263420038E+03 0.  0.
        -24    2    5    5    0    0 -0.47650263143E+03  0.30823811786E+02  0.54940504680E+02  0.48693452299E+03  0.77986572517E+02 0.  0.
          5    1    3    3  501    0  0.39918114732E+03 -0.21805391368E+02 -0.36144373880E+02  0.40143438970E+03  0.47000000000E+01 0. -1.
        -11    1    4    4    0    0  0.26117710946E+02 -0.31626712015E+02 -0.17313523308E+02  0.44521251412E+02  0.00000000000E+00 0.  1.
         12    1    4    4    0    0  0.77367418874E+02  0.43728986946E+02 -0.10766673930E+02  0.89520182473E+02  0.00000000000E+00 0. -1.
         -5    1    5    5    0  502 -0.26163645707E+02 -0.21120695349E+02 -0.29882310089E+02  0.45229001591E+02  0.47000000000E+01 0.  1.
         13    1    6    6    0    0 -0.10864555503E+03  0.39880871283E+02  0.84745384302E+01  0.11604377762E+03  0.00000000000E+00 0. -1.
        -14    1    6    6    0    0 -0.36785707640E+03 -0.90570594965E+01  0.46465966249E+02  0.37089074537E+03  0.00000000000E+00 0.  1.
</event>
<event>
12    1  0.1061634E+000  0.1771534E+03  0.7818608E-02  0.1171367E+00
         21   -1    0    0  503  502  0.00000000000E+00  0.00000000000E+00  0.21946221130E+02  0.21946221130E+02  0.00000000000E+00 0.  1.
         21   -1    0    0  501  503 -0.00000000000E+00 -0.00000000000E+00 -0.14931790313E+04  0.14931790313E+04  0.00000000000E+00 0.  1.
          6    2    1    2  501    0 -0.31967729323E+02  0.53279995080E+01 -0.55754446627E+03  0.58501209641E+03  0.17416370970E+03 0.  0.
         24    2    3    3    0    0  0.38485279290E+02  0.26391688434E+02 -0.22582134314E+03  0.24520387721E+03  0.83378800907E+02 0.  0.
         -6    2    1    2    0  502  0.31967729323E+02 -0.53279995080E+01 -0.91368834388E+03  0.93011315601E+03  0.17097885815E+03 0.  0.
        -24    2    5    5    0    0  0.65175603616E+02  0.93200768329E+00 -0.33472337380E+03  0.35014377993E+03  0.79449365703E+02 0.  0.
          5    1    3    3  501    0 -0.70453008613E+02 -0.21063688926E+02 -0.33172312314E+03  0.33980821920E+03  0.47000000000E+01 0. -1.
        -11    1    4    4    0    0  0.25138485869E+02 -0.27048492172E+02 -0.12471734702E+03  0.13006913949E+03  0.00000000000E+00 0.  1.
         12    1    4    4    0    0  0.13346793421E+02  0.53440180605E+02 -0.10110399612E+03  0.11513473771E+03  0.00000000000E+00 0. -1.
         -5    1    5    5    0  502 -0.33207874293E+02 -0.62600071912E+01 -0.57896497008E+03  0.57996937608E+03  0.47000000000E+01 0.  1.
         11    1    6    6    0    0  0.17249959286E+02 -0.34355322591E+02 -0.82848888653E+02  0.91333387305E+02  0.00000000000E+00 0. -1.
        -12    1    6    6    0    0  0.47925644331E+02  0.35287330274E+02 -0.25187448515E+03  0.25881039262E+03  0.00000000000E+00 0.  1.
</event>
<event>
12    1  0.1061634E+000  0.2312031E+03  0.7818608E-02  0.1125954E+00
         21   -1    0    0  501  502  0.00000000000E+00  0.00000000000E+00  0.18184919330E+03  0.18184919330E+03  0.00000000000E+00 0.  1.
         21   -1    0    0  502  503 -0.00000000000E+00 -0.00000000000E+00 -0.32912607425E+03  0.32912607425E+03  0.00000000000E+00 0.  1.
         -6    2    1    2    0  503 -0.96252480569E+02 -0.11964777553E+03  0.11106438332E+02  0.23146966778E+03  0.17284306154E+03 0.  0.
        -24    2    3    3    0    0 -0.61233422074E+02 -0.11993392864E+03 -0.45140878903E+02  0.16504477005E+03  0.84073764967E+02 0.  0.
          6    2    1    2  501    0  0.96252480569E+02  0.11964777553E+03 -0.15838331928E+03  0.27950559977E+03  0.17163325514E+03 0.  0.
         24    2    5    5    0    0  0.71321957521E+01  0.10785266779E+03 -0.12554430295E+03  0.18368263423E+03  0.79340229051E+02 0.  0.
          5    1    5    5  501    0  0.89120284817E+02  0.11795107741E+02 -0.32839016327E+02  0.95822965545E+02  0.47000000000E+01 0. -1.
        -11    1    6    6    0    0  0.15230478564E+02  0.22071789682E+02 -0.83711718647E+02  0.87902122932E+02  0.00000000000E+00 0.  1.
         12    1    6    6    0    0 -0.80982828115E+01  0.85780878113E+02 -0.41832584307E+02  0.95780511296E+02  0.00000000000E+00 0. -1.
         -5    1    3    3    0  503 -0.35019058495E+02  0.28615310759E+00  0.56247317235E+02  0.66424897724E+02  0.47000000000E+01 0.  1.
         11    1    4    4    0    0  0.16633903632E+02 -0.13198490843E+01 -0.24012523485E+01  0.16858077129E+02  0.00000000000E+00 0. -1.
        -12    1    4    4    0    0 -0.77867325706E+02 -0.11861407956E+03 -0.42739626554E+02  0.14818669293E+03  0.00000000000E+00 0.  1.
</event>
<event>
12    1  0.1061634E+000  0.2234269E+03  0.7818608E-02  0.1131471E+00
         21   -1    0    0  501  502  0.00000000000E+00  0.00000000000E+00  0.90681716006E+03  0.90681716006E+03  0.00000000000E+00 0. -1.
         21   -1    0    0  502  503 -0.00000000000E+00 -0.00000000000E+00 -0.59388803530E+02  0.59388803530E+02  0.00000000000E+00 0.  1.
         -6    2    1    2    0  503  0.97045731486E+02 -0.10528729896E+03  0.29021815983E+03  0.36587040912E+03  0.17067889927E+03 0.  0.
        -24    2    3    3    0    0  0.18821459691E+02 -0.18224522128E+02  0.20397269815E+03  0.22040792781E+03  0.79299511367E+02 0.  0.
          6    2    1    2  501    0 -0.97045731486E+02  0.10528729896E+03  0.55721019670E+03  0.60033555447E+03  0.17151176441E+03 0.  0.
         24    2    5    5    0    0  0.17261539854E+02  0.35091601620E+02  0.21468766422E+03  0.23245328598E+03  0.80089673092E+02 0.  0.
          5    1    5    5  501    0 -0.11430727134E+03  0.70195697338E+02  0.34252253248E+03  0.36788226848E+03  0.47000000000E+01 0. -1.
        -13    1    6    6    0    0 -0.12095219643E+02  0.53136472201E+02  0.12438062683E+03  0.13579513742E+03  0.00000000000E+00 0.  1.
         14    1    6    6    0    0  0.29356759497E+02 -0.18044870581E+02  0.90307037391E+02  0.96658148569E+02  0.00000000000E+00 0. -1.
         -5    1    3    3    0  503  0.78224271795E+02 -0.87062776830E+02  0.86245461685E+02  0.14546248131E+03  0.47000000000E+01 0.  1.
         11    1    4    4    0    0  0.43587474896E+02 -0.52295036820E-01  0.16567675848E+03  0.17131450319E+03  0.00000000000E+00 0. -1.
        -12    1    4    4    0    0 -0.24766015205E+02 -0.18172227091E+02  0.38295939666E+02  0.49093424625E+02  0.00000000000E+00 0.  1.
</event>
<event>
12    1  0.1061634E+000  0.1733787E+03  0.7818608E-02  0.1174560E+00
         21   -1    0    0  501  502  0.00000000000E+00  0.00000000000E+00  0.21030807039E+04  0.21030807039E+04  0.00000000000E+00 0.  1.
         21   -1    0    0  502  503 -0.00000000000E+00 -0.00000000000E+00 -0.14327596695E+02  0.14327596695E+02  0.00000000000E+00 0.  1.
         -6    2    1    2    0  503 -0.89688112897E+01  0.10612352918E+02  0.11286960673E+04  0.11418214626E+04  0.17207085327E+03 0.  0.
        -24    2    3    3    0    0 -0.29741843243E+02 -0.13825404819E+02  0.29344653244E+03  0.30594312318E+03  0.80091248968E+02 0.  0.
          6    2    1    2  501    0  0.89688112897E+01 -0.10612352918E+02  0.96005703996E+03  0.97558683804E+03  0.17282099685E+03 0.  0.
         24    2    5    5    0    0  0.48744307809E+02 -0.43382930755E+02  0.42278415123E+03  0.43582740286E+03  0.83312666055E+02 0.  0.
          5    1    5    5  501    0 -0.39775496519E+02  0.32770577838E+02  0.53727288873E+03  0.53975943518E+03  0.47000000000E+01 0. -1.
        -13    1    6    6    0    0  0.30272009051E+02 -0.60780056316E+02  0.19201393376E+03  0.20366629700E+03  0.00000000000E+00 0.  1.
         14    1    6    6    0    0  0.18472298758E+02  0.17397125561E+02  0.23077021748E+03  0.23216110586E+03  0.00000000000E+00 0. -1.
         -5    1    3    3    0  503  0.20773031953E+02  0.24437757737E+02  0.83524953482E+03  0.83587833940E+03  0.47000000000E+01 0.  1.
         13    1    4    4    0    0  0.18343815925E+02 -0.15178786743E+02  0.30811298687E+02  0.38938763161E+02  0.00000000000E+00 0. -1.
        -14    1    4    4    0    0 -0.48085659168E+02  0.13533819232E+01  0.26263523375E+03  0.26700436001E+03  0.00000000000E+00 0.  1.
</event>
<event>
12    1  0.1061634E+000  0.1903050E+03  0.7818608E-02  0.1158529E+00
         21   -1    0    0  503  502  0.00000000000E+00  0.00000000000E+00  0.73593458328E+03  0.73593458328E+03  0.00000000000E+00 0. -1.
         21   -1    0    0  501  503 -0.00000000000E+00 -0.00000000000E+00 -0.16587662262E+03  0.16587662262E+03  0.00000000000E+00 0. -1.
          6    2    1    2  501    0  0.80302799921E+02 -0.10588954185E+02  0.66347635880E+03  0.68981361720E+03  0.17053234932E+03 0.  0.
         24    2    3    3    0    0  0.24652479285E+02  0.51509099447E+02  0.26378801732E+03  0.28149268121E+03  0.79956734764E+02 0.  0.
         -6    2    1    2    0  502 -0.80302799921E+02  0.10588954185E+02 -0.93418398138E+02  0.21199758870E+03  0.17220718590E+03 0.  0.
        -24    2    5    5    0    0 -0.32184311014E+02  0.66288885608E+02 -0.28426916906E+02  0.11369268563E+03  0.81779526346E+02 0.  0.
          5    1    3    3  501    0  0.55650320636E+02 -0.62098053632E+02  0.39968834148E+03  0.40832093599E+03  0.47000000000E+01 0. -1.
        -11    1    4    4    0    0  0.24121589428E+02 -0.17057387598E+02  0.86550488149E+02  0.91453772732E+02  0.00000000000E+00 0.  1.
         12    1    4    4    0    0  0.53088985728E+00  0.68566487045E+02  0.17723752917E+03  0.19003890848E+03  0.00000000000E+00 0. -1.
         -5    1    5    5    0  502 -0.48118488906E+02 -0.55699931423E+02 -0.64991481233E+02  0.98304903072E+02  0.47000000000E+01 0.  1.
         11    1    6    6    0    0  0.13193643733E+02 -0.84222839286E+01 -0.20682618050E+02  0.25937960424E+02  0.00000000000E+00 0. -1.
        -12    1    6    6    0    0 -0.45377954747E+02  0.74711169537E+02 -0.77442988555E+01  0.87754725202E+02  0.00000000000E+00 0.  1.
</event>
<event>
12    1  0.1061634E+000  0.2383690E+03  0.7818608E-02  0.1121053E+00
         21   -1    0    0  501  502  0.00000000000E+00  0.00000000000E+00  0.29029072839E+03  0.29029072839E+03  0.00000000000E+00 0. -1.
         21   -1    0    0  502  503 -0.00000000000E+00 -0.00000000000E+00 -0.34005850389E+03  0.34005850389E+03  0.00000000000E+00 0. -1.
         -6    2    1    2    0  503  0.16162809642E+03 -0.30599857950E+02 -0.23076249406E+03  0.33105195354E+03  0.17112590224E+03 0.  0.
        -24    2    3    3    0    0  0.11791482794E+03  0.27769131216E+02 -0.84802380600E+02  0.16782133919E+03  0.79356958333E+02 0.  0.
          6    2    1    2  501    0 -0.16162809642E+03  0.30599857950E+02  0.18099471856E+03  0.29929727875E+03  0.17251023176E+03 0.  0.
         24    2    5    5    0    0 -0.45094310343E+02  0.42440052097E+02  0.14541441853E+03  0.17678866173E+03  0.79209992747E+02 0.  0.
          5    1    5    5  501    0 -0.11653378607E+03 -0.11840194147E+02  0.35580300031E+02  0.12250861702E+03  0.47000000000E+01 0. -1.
        -11    1    6    6    0    0 -0.46807123394E+02 -0.99052883779E+01  0.76545733243E+02  0.90267772854E+02  0.00000000000E+00 0.  1.
         12    1    6    6    0    0  0.17128130511E+01  0.52345340475E+02  0.68868685288E+02  0.86520888873E+02  0.00000000000E+00 0. -1.
         -5    1    3    3    0  503  0.43713268476E+02 -0.58368989166E+02 -0.14596011346E+03  0.16323061434E+03  0.47000000000E+01 0.  1.
         11    1    4    4    0    0  0.12765226226E+03  0.15534735206E+02 -0.80068753563E+02  0.15148410265E+03  0.00000000000E+00 0. -1.
        -12    1    4    4    0    0 -0.97374343212E+01  0.12234396010E+02 -0.47336270361E+01  0.16337236541E+02  0.00000000000E+00 0.  1.
</event>
<event>
12    1  0.1061634E+000  0.2168018E+03  0.7818608E-02  0.1136636E+00
         21   -1    0    0  503  502  0.00000000000E+00  0.00000000000E+00  0.42110966320E+02  0.42110966320E+02  0.00000000000E+00 0.  1.
         21   -1    0    0  501  503 -0.00000000000E+00 -0.00000000000E+00 -0.12953587883E+04  0.12953587883E+04  0.00000000000E+00 0.  1.
          6    2    1    2  501    0 -0.12830533628E+03  0.30996538753E+02 -0.88396294774E+03  0.91016126215E+03  0.17198832930E+03 0.  0.
         24    2    3    3    0    0  0.77592449072E+01  0.73611003260E+01 -0.33383336661E+03  0.34294274144E+03  0.77785702839E+02 0.  0.
         -6    2    1    2    0  502  0.12830533628E+03 -0.30996538753E+02 -0.36928487421E+03  0.42730849243E+03  0.16970027889E+03 0.  0.
        -24    2    5    5    0    0  0.11766620214E+03  0.24572321864E+02 -0.32222024843E+03  0.35356394386E+03  0.82051445858E+02 0.  0.
          5    1    3    3  501    0 -0.13606458119E+03  0.23635438427E+02 -0.55012958113E+03  0.56721852071E+03  0.47000000000E+01 0. -1.
        -13    1    4    4    0    0 -0.26762225114E+01 -0.82872563901E+01 -0.12990162891E+00  0.87096302929E+01  0.00000000000E+00 0.  1.
         14    1    4    4    0    0  0.10435467419E+02  0.15648356716E+02 -0.33370346498E+03  0.33423311115E+03  0.00000000000E+00 0. -1.
         -5    1    5    5    0  502  0.10639134139E+02 -0.55568860617E+02 -0.47064625773E+02  0.73744548576E+02  0.47000000000E+01 0.  1.
         11    1    6    6    0    0 -0.10048670519E+02 -0.22297147326E+01 -0.57640010371E+02  0.58551842008E+02  0.00000000000E+00 0. -1.
        -12    1    6    6    0    0  0.12771487266E+03  0.26802036596E+02 -0.26458023806E+03  0.29501210185E+03  0.00000000000E+00 0.  1.
</event>
<event>
12    1  0.1061634E+000  0.2556793E+03  0.7818608E-02  0.1109804E+00
         21   -1    0    0  501  502  0.00000000000E+00  0.00000000000E+00  0.27913445624E+03  0.27913445624E+03  0.00000000000E+00 0.  1.
         21   -1    0    0  502  503 -0.00000000000E+00 -0.00000000000E+00 -0.24859972029E+03  0.24859972029E+03  0.00000000000E+00 0. -1.
         -6    2    1    2    0  503 -0.18001604978E+03 -0.57949455785E+02  0.79263632396E+02  0.26745279650E+03  0.17171009677E+03 0.  0.
        -24    2    3    3    0    0 -0.92863605621E+02 -0.57446401197E+02 -0.14723833690E+02  0.13918925777E+03  0.85047750941E+02 0.  0.
          6    2    1    2  501    0  0.18001604978E+03  0.57949455785E+02 -0.48728896446E+02  0.26028138003E+03  0.17206967728E+03 0.  0.
         24    2    5    5    0    0  0.17302442903E+03  0.62300639819E+02 -0.88659859923E+02  0.21924009097E+03  0.79917607353E+02 0.  0.
          5    1    5    5  501    0  0.69916207468E+01 -0.43511840339E+01  0.39930963477E+02  0.41041289056E+02  0.47000000000E+01 0. -1.
        -11    1    6    6    0    0  0.16370936617E+03  0.75741048607E+02 -0.67726978141E+02  0.19267694876E+03  0.00000000000E+00 0.  1.
         12    1    6    6    0    0  0.93150628623E+01 -0.13440408788E+02 -0.20932881782E+02  0.26563142213E+02  0.00000000000E+00 0. -1.
         -5    1    3    3    0  503 -0.87152444154E+02 -0.50305458775E+00  0.93987466086E+02  0.12826353873E+03  0.47000000000E+01 0.  1.
         11    1    4    4    0    0  0.34430454465E+01  0.77007555843E+00 -0.25864609629E+02  0.26104130125E+02  0.00000000000E+00 0. -1.
        -12    1    4    4    0    0 -0.96306651068E+02 -0.58216476756E+02  0.11140775938E+02  0.11308512764E+03  0.00000000000E+00 0.  1.
</event>
<event>
12    1  0.1061634E+000  0.1968899E+03  0.7818608E-02  0.1153297E+00
         21   -1    0    0  501  502  0.00000000000E+00  0.00000000000E+00  0.25430513948E+03  0.25430513948E+03  0.00000000000E+00 0. -1.
         21   -1    0    0  502  503 -0.00000000000E+00 -0.00000000000E+00 -0.20034258787E+03  0.20034258787E+03  0.00000000000E+00 0. -1.
         -6    2    1    2    0  503 -0.50128112864E+02 -0.83159817758E+02  0.14201465458E+03  0.24276280482E+03  0.17128115570E+03 0.  0.
        -24    2    3    3    0    0  0.80140720147E+01  0.15900723137E+02  0.64630901413E+02  0.10418488566E+03  0.79751355068E+02 0.  0.
          6    2    1    2  501    0  0.50128112864E+02  0.83159817758E+02 -0.88052102962E+02  0.21188492253E+03  0.16647421594E+03 0.  0.
         24    2    5    5    0    0 -0.14425268275E+02  0.62231373024E+02 -0.97143315935E+02  0.14325636456E+03  0.83694265060E+02 0.  0.
          5    1    5    5  501    0  0.64553381139E+02  0.20928444734E+02  0.90912129729E+01  0.68628557968E+02  0.47000000000E+01 0. -1.
        -13    1    6    6    0    0  0.13829964851E+02  0.67362170508E+02 -0.90705565975E+02  0.11382631349E+03  0.00000000000E+00 0.  1.
         14    1    6    6    0    0 -0.28255233126E+02 -0.51307974836E+01 -0.64377499599E+01  0.29430051076E+02  0.00000000000E+00 0. -1.
         -5    1    3    3    0  503 -0.58142184879E+02 -0.99060540895E+02  0.77383753168E+02  0.13857791916E+03  0.47000000000E+01 0.  1.
         13    1    4    4    0    0  0.27339278090E+02  0.12521634675E+02  0.75844325731E+02  0.81587923169E+02  0.00000000000E+00 0. -1.
        -14    1    4    4    0    0 -0.19325206076E+02  0.33790884621E+01 -0.11213424318E+02  0.22596962487E+02  0.00000000000E+00 0.  1.
</event>
<event>
12    1  0.1061634E+000  0.2517220E+03  0.7818608E-02  0.1112330E+00
         21   -1    0    0  501  502  0.00000000000E+00  0.00000000000E+00  0.57777751804E+03  0.57777751804E+03  0.00000000000E+00 0. -1.
         21   -1    0    0  502  503 -0.00000000000E+00 -0.00000000000E+00 -0.15521680861E+03  0.15521680861E+03  0.00000000000E+00 0.  1.
         -6    2    1    2    0  503  0.10542405638E+03  0.14955944419E+03  0.41026541842E+03  0.48097227028E+03  0.17185561446E+03 0.  0.
        -24    2    3    3    0    0  0.10373733891E+03  0.17986707990E+03  0.36400028165E+03  0.42543894084E+03  0.73406303739E+02 0.  0.
          6    2    1    2  501    0 -0.10542405638E+03 -0.14955944419E+03  0.12295291006E+02  0.25202205637E+03  0.17286319362E+03 0.  0.
         24    2    5    5    0    0 -0.10336084253E+03 -0.40063871510E+02  0.32241338819E+02  0.14060629397E+03  0.80262372298E+02 0.  0.
          5    1    5    5  501    0 -0.20632138472E+01 -0.10949557268E+03 -0.19946047813E+02  0.11141576240E+03  0.47000000000E+01 0. -1.
        -11    1    6    6    0    0 -0.64991643101E+02 -0.64337848244E+02  0.20920917234E+02  0.93813416778E+02  0.00000000000E+00 0.  1.
         12    1    6    6    0    0 -0.38369199432E+02  0.24273976734E+02  0.11320421585E+02  0.46792877197E+02  0.00000000000E+00 0. -1.
         -5    1    3    3    0  503  0.16867174696E+01 -0.30307635712E+02  0.46265136769E+02  0.55533329439E+02  0.47000000000E+01 0.  1.
         11    1    4    4    0    0  0.31902217427E+02  0.45546675094E+02  0.43562511149E+02  0.70639531896E+02  0.00000000000E+00 0. -1.
        -12    1    4    4    0    0  0.71835121484E+02  0.13432040480E+03  0.32043777050E+03  0.35479940894E+03  0.00000000000E+00 0.  1.
</event>
<event>
12    1  0.1061634E+000  0.1939483E+03  0.7818608E-02  0.1155513E+00
         21   -1    0    0  501  502  0.00000000000E+00  0.00000000000E+00  0.45427302260E+03  0.45427302260E+03  0.00000000000E+00 0. -1.
         21   -1    0    0  502  503 -0.00000000000E+00 -0.00000000000E+00 -0.10771833430E+03  0.10771833430E+03  0.00000000000E+00 0. -1.
         -6    2    1    2    0  503 -0.84543404098E+02 -0.11030728799E+02  0.31045777083E+03  0.36471256080E+03  0.17135332031E+03 0.  0.
        -24    2    3    3    0    0 -0.82529592015E+02 -0.77927019958E+02  0.19422716015E+03  0.23050818654E+03  0.50260126606E+02 0.  0.
          6    2    1    2  501    0  0.84543404098E+02  0.11030728799E+02  0.36096917476E+02  0.19727879610E+03  0.17420296147E+03 0.  0.
         24    2    5    5    0    0 -0.65018135461E+01 -0.29494109155E+02 -0.11068100323E+02  0.86924262657E+02  0.80753628646E+02 0.  0.
          5    1    5    5  501    0  0.91045217644E+02  0.40524837953E+02  0.47165017799E+02  0.11035453344E+03  0.47000000000E+01 0. -1.
        -11    1    6    6    0    0  0.30868491265E+02 -0.36266756099E+02 -0.11288474670E+02  0.48944570805E+02  0.00000000000E+00 0.  1.
         12    1    6    6    0    0 -0.37370304811E+02  0.67726469442E+01  0.22037434715E+00  0.37979691852E+02  0.00000000000E+00 0. -1.
         -5    1    3    3    0  503 -0.20138120830E+01  0.66896291159E+02  0.11623061068E+03  0.13420437426E+03  0.47000000000E+01 0.  1.
         11    1    4    4    0    0 -0.27402152340E+02 -0.20775143769E+02  0.21906993491E+02  0.40772551003E+02  0.00000000000E+00 0. -1.
        -12    1    4    4    0    0 -0.55127439675E+02 -0.57151876190E+02  0.17232016666E+03  0.18973563554E+03  0.00000000000E+00 0.  1.
</event>
<event>
12    1  0.1061634E+000  0.2498041E+03  0.7818608E-02  0.1113464E+00
         21   -1    0    0  501  502  0.00000000000E+00  0.00000000000E+00  0.59218739275E+03  0.59218739275E+03  0.00000000000E+00 0.  1.
         21   -1    0    0  502  503 -0.00000000000E+00 -0.00000000000E+00 -0.15335616214E+03  0.15335616214E+03  0.00000000000E+00 0.  1.
         -6    2    1    2    0  503 -0.17383282325E+02  0.18063345619E+03  0.42806283166E+03  0.49550741684E+03  0.17134523133E+03 0.  0.
        -24    2    3    3    0    0 -0.60869520517E+02  0.15671693156E+03  0.25651451051E+03  0.31686260290E+03  0.79604772757E+02 0.  0.
          6    2    1    2  501    0  0.17383282325E+02 -0.18063345619E+03  0.10768398945E+02  0.25003613805E+03  0.17167261841E+03 0.  0.
         24    2    5    5    0    0  0.24959281176E+02 -0.18777181240E+03 -0.29699554665E+02  0.20798739065E+03  0.80594490358E+02 0.  0.
          5    1    5    5  501    0 -0.75759988501E+01  0.71383562018E+01  0.40467953610E+02  0.42048747392E+02  0.47000000000E+01 0. -1.
        -11    1    6    6    0    0  0.13170708715E+02 -0.43573990546E+01 -0.19474295919E+02  0.23910305228E+02  0.00000000000E+00 0.  1.
         12    1    6    6    0    0  0.11788572460E+02 -0.18341441334E+03 -0.10225258746E+02  0.18407708543E+03  0.00000000000E+00 0. -1.
         -5    1    3    3    0  503  0.43486238191E+02  0.23916524637E+02  0.17154832115E+03  0.17864481395E+03  0.47000000000E+01 0.  1.
         11    1    4    4    0    0 -0.14395840286E+02 -0.37530878596E+01  0.66587063054E+01  0.16299210278E+02  0.00000000000E+00 0. -1.
        -12    1    4    4    0    0 -0.46473680230E+02  0.16047001942E+03  0.24985580421E+03  0.30056339262E+03  0.00000000000E+00 0.  1.
</event>
<event>
12    1  0.1061634E+000  0.2349053E+03  0.7818608E-02  0.1123276E+00
         21   -1    0    0  503  502  0.00000000000E+00  0.00000000000E+00  0.21266502663E+03  0.21266502663E+03  0.00000000000E+00 0. -1.
         21   -1    0    0  501  503 -0.00000000000E+00 -0.00000000000E+00 -0.27024551427E+03  0.27024551427E+03  0.00000000000E+00 0. -1.
          6    2    1    2  501    0 -0.12031186447E+03 -0.10496268991E+03  0.20037510934E+02  0.23551401718E+03  0.17196871646E+03 0.  0.
         24    2    3    3    0    0 -0.43778543617E+02 -0.12417748542E+03  0.39461338287E+01  0.15484444433E+03  0.81391776004E+02 0.  0.
         -6    2    1    2    0  502  0.12031186447E+03  0.10496268991E+03 -0.77617998573E+02  0.24739652372E+03  0.17230314925E+03 0.  0.
        -24    2    5    5    0    0  0.68803863079E+02 -0.92571200020E+01 -0.58510817343E+02  0.12056429770E+03  0.79325710136E+02 0.  0.
          5    1    3    3  501    0 -0.76533320850E+02  0.19214795518E+02  0.16091377106E+02  0.80669572853E+02  0.47000000000E+01 0. -1.
        -11    1    4    4    0    0 -0.52768630074E+02 -0.61423504181E+02 -0.25565173066E+02  0.84917331915E+02  0.00000000000E+00 0.  1.
         12    1    4    4    0    0  0.89900864571E+01 -0.62753981242E+02  0.29511306895E+02  0.69927112417E+02  0.00000000000E+00 0. -1.
         -5    1    5    5    0  502  0.51508001388E+02  0.11421980991E+03 -0.19107181230E+02  0.12683222602E+03  0.47000000000E+01 0.  1.
         11    1    6    6    0    0  0.27902410058E+02  0.14943454840E+02  0.13397192962E+02  0.34370570389E+02  0.00000000000E+00 0. -1.
        -12    1    6    6    0    0  0.40901453021E+02 -0.24200574842E+02 -0.71908010305E+02  0.86193727312E+02  0.00000000000E+00 0.  1.
</event>
<event>
12    1  0.1061634E+000  0.2653906E+03  0.7818608E-02  0.1103966E+00
         21   -1    0    0  501  502  0.00000000000E+00  0.00000000000E+00  0.14435037679E+03  0.14435037679E+03  0.00000000000E+00 0. -1.
         21   -1    0    0  502  503 -0.00000000000E+00 -0.00000000000E+00 -0.52903769887E+03  0.52903769887E+03  0.00000000000E+00 0. -1.
         -6    2    1    2    0  503 -0.85021883377E+01  0.20187334725E+03 -0.98259380888E+02  0.28299660536E+03  0.17206695550E+03 0.  0.
        -24    2    3    3    0    0  0.23945903471E+02  0.36244787224E+02 -0.88196745451E+01  0.91927901411E+02  0.80534846525E+02 0.  0.
          6    2    1    2  501    0  0.85021883377E+01 -0.20187334725E+03 -0.28642794119E+03  0.39039147029E+03  0.17187029716E+03 0.  0.
         24    2    5    5    0    0 -0.24896688676E+02 -0.20698998095E+03 -0.27542195774E+03  0.35454615543E+03  0.79881313196E+02 0.  0.
          5    1    5    5  501    0  0.33398877014E+02  0.51166337027E+01 -0.11005983450E+02  0.35845314868E+02  0.47000000000E+01 0. -1.
        -13    1    6    6    0    0  0.44905838307E+01 -0.18715137485E+03 -0.24058324733E+03  0.30483782794E+03  0.00000000000E+00 0.  1.
         14    1    6    6    0    0 -0.29387272507E+02 -0.19838606103E+02 -0.34838710418E+02  0.49708327483E+02  0.00000000000E+00 0. -1.
         -5    1    3    3    0  503 -0.32448091808E+02  0.16562856003E+03 -0.89439706343E+02  0.19106870395E+03  0.47000000000E+01 0.  1.
         13    1    4    4    0    0 -0.57286458646E+01  0.24412427725E+02 -0.40049900365E+02  0.47252285978E+02  0.00000000000E+00 0. -1.
        -14    1    4    4    0    0  0.29674549335E+02  0.11832359499E+02  0.31230225820E+02  0.44675615433E+02  0.00000000000E+00 0.  1.
</event>
<event>
12    1  0.1061634E+000  0.2143760E+03  0.7818608E-02  0.1138268E+00
         21   -1    0    0  503  502  0.00000000000E+00  0.00000000000E+00  0.98112740743E+02  0.98112740743E+02  0.00000000000E+00 0. -1.
         21   -1    0    0  501  503 -0.00000000000E+00 -0.00000000000E+00 -0.49073212201E+03  0.49073212201E+03  0.00000000000E+00 0. -1.
          6    2    1    2  501    0 -0.47350243347E+02  0.11596103137E+03 -0.13188617339E+03  0.25169630286E+03  0.17397718183E+03 0.  0.
         24    2    3    3    0    0 -0.16620497897E+02  0.38323527125E+01 -0.10236239285E+03  0.13165088874E+03  0.81012154395E+02 0.  0.
         -6    2    1    2    0  502  0.47350243347E+02 -0.11596103137E+03 -0.26073320787E+03  0.33714855990E+03  0.17320028698E+03 0.  0.
        -24    2    5    5    0    0  0.18643408731E+02 -0.16521418516E+02 -0.38498196785E+02  0.91949030713E+02  0.79699304479E+02 0.  0.
          5    1    3    3  501    0 -0.30729745450E+02  0.11212867865E+03 -0.29523780546E+02  0.12004541411E+03  0.47000000000E+01 0. -1.
        -11    1    4    4    0    0 -0.23573407795E+02  0.11551355686E+02  0.24126225572E+01  0.26362096291E+02  0.00000000000E+00 0.  1.
         12    1    4    4    0    0  0.69529098983E+01 -0.77190029730E+01 -0.10477501541E+03  0.10528879245E+03  0.00000000000E+00 0. -1.
         -5    1    5    5    0  502  0.28706834616E+02 -0.99439612851E+02 -0.22223501109E+03  0.24519952918E+03  0.47000000000E+01 0.  1.
         11    1    6    6    0    0 -0.15843778830E+00  0.24121802805E+02 -0.40481505716E+02  0.47123654125E+02  0.00000000000E+00 0. -1.
        -12    1    6    6    0    0  0.18801846519E+02 -0.40643221321E+02  0.19833089310E+01  0.44825376587E+02  0.00000000000E+00 0.  1.
</event>
<event>
12    1  0.1061634E+000  0.3198096E+03  0.7818608E-02  0.1075831E+00
         21   -1    0    0  503  502  0.00000000000E+00  0.00000000000E+00  0.12282214873E+03  0.12282214873E+03  0.00000000000E+00 0. -1.
         21   -1    0    0  501  503 -0.00000000000E+00 -0.00000000000E+00 -0.10063982585E+04  0.10063982585E+04  0.00000000000E+00 0. -1.
          6    2    1    2  501    0  0.56478847194E+02  0.26375426442E+03 -0.20628317600E+03  0.38056662619E+03  0.17181977793E+03 0.  0.
         24    2    3    3    0    0  0.86653287491E+01  0.14107195227E+03 -0.34426700816E+02  0.16401681593E+03  0.75762355688E+02 0.  0.
         -6    2    1    2    0  502 -0.56478847194E+02 -0.26375426442E+03 -0.67729293372E+03  0.74865378100E+03  0.17029560636E+03 0.  0.
        -24    2    5    5    0    0  0.32528102556E+02 -0.16517903122E+03 -0.38471233301E+03  0.42730535387E+03  0.79019595430E+02 0.  0.
          5    1    3    3  501    0  0.47813518445E+02  0.12268231215E+03 -0.17185647519E+03  0.21654981026E+03  0.47000000000E+01 0. -1.
        -11    1    4    4    0    0  0.22811450194E+02  0.14292312863E+03 -0.37305246584E+02  0.14946258522E+03  0.00000000000E+00 0.  1.
         12    1    4    4    0    0 -0.14146121445E+02 -0.18511763619E+01  0.28785457690E+01  0.14554230711E+02  0.00000000000E+00 0. -1.
         -5    1    5    5    0  502 -0.89006949750E+02 -0.98575233200E+02 -0.29258060071E+03  0.32134842713E+03  0.47000000000E+01 0.  1.
         11    1    6    6    0    0  0.37911774431E+02 -0.13318622800E+03 -0.22397129885E+03  0.26332302725E+03  0.00000000000E+00 0. -1.
        -12    1    6    6    0    0 -0.53836718753E+01 -0.31992803219E+02 -0.16074103416E+03  0.16398232662E+03  0.00000000000E+00 0.  1.
</event>
<event>
12    1  0.1061634E+000  0.5769014E+03  0.7818608E-02  0.9954809E-01
         21   -1    0    0  501  502  0.00000000000E+00  0.00000000000E+00  0.22687739134E+03  0.22687739134E+03  0.00000000000E+00 0. -1.
         21   -1    0    0  502  503 -0.00000000000E+00 -0.00000000000E+00 -0.16014220280E+04  0.16014220280E+04  0.00000000000E+00 0. -1.
         -6    2    1    2    0  503 -0.28621153275E+03  0.47054826927E+03 -0.42133276023E+03  0.71437842378E+03  0.17170475334E+03 0.  0.
        -24    2    3    3    0    0 -0.20476444737E+03  0.29837376514E+03 -0.19648858262E+03  0.41966724008E+03  0.80978062874E+02 0.  0.
          6    2    1    2  501    0  0.28621153275E+03 -0.47054826927E+03 -0.95321187646E+03  0.11139209956E+04  0.16992465330E+03 0.  0.
         24    2    5    5    0    0  0.19333835754E+03 -0.24405277596E+03 -0.42761522428E+03  0.53409380931E+03  0.73891401115E+02 0.  0.
          5    1    5    5  501    0  0.92873175206E+02 -0.22649549331E+03 -0.52559665219E+03  0.57982718628E+03  0.47000000000E+01 0. -1.
        -11    1    6    6    0    0  0.79023322574E+02 -0.15875447599E+03 -0.23301722362E+03  0.29282195215E+03  0.00000000000E+00 0.  1.
         12    1    6    6    0    0  0.11431503497E+03 -0.85298299973E+02 -0.19459800065E+03  0.24127185716E+03  0.00000000000E+00 0. -1.
         -5    1    3    3    0  503 -0.81447085383E+02  0.17217450413E+03 -0.22484417762E+03  0.29471118370E+03  0.47000000000E+01 0.  1.
         11    1    4    4    0    0 -0.65264954248E+02  0.98427610766E+02 -0.22687952837E+02  0.12025910368E+03  0.00000000000E+00 0. -1.
        -12    1    4    4    0    0 -0.13949949312E+03  0.19994615437E+03 -0.17380062978E+03  0.29940813640E+03  0.00000000000E+00 0.  1.
</event>
<event>
12    1  0.1061634E+000  0.3170804E+03  0.7818608E-02  0.1077197E+00
         21   -1    0    0  501  502  0.00000000000E+00  0.00000000000E+00  0.90123099753E+03  0.90123099753E+03  0.00000000000E+00 0.  1.
         21   -1    0    0  502  503 -0.00000000000E+00 -0.00000000000E+00 -0.11100242394E+03  0.11100242394E+03  0.00000000000E+00 0.  1.
         -6    2    1    2    0  503  0.20908763754E+03 -0.16163072601E+03  0.38527946671E+03  0.49791471483E+03  0.17215302499E+03 0.  0.
        -24    2    3    3    0    0  0.19630974751E+03 -0.16330552642E+03  0.26538952199E+03  0.37724256281E+03  0.81695415300E+02 0.  0.
          6    2    1    2  501    0 -0.20908763754E+03  0.16163072601E+03  0.40494910688E+03  0.51431870664E+03  0.17520793670E+03 0.  0.
         24    2    5    5    0    0 -0.16560858082E+03  0.41393919649E+02  0.22996079025E+03  0.29754620162E+03  0.80697697751E+02 0.  0.
          5    1    5    5  501    0 -0.43479056715E+02  0.12023680636E+03  0.17498831663E+03  0.21677250502E+03  0.47000000000E+01 0. -1.
        -13    1    6    6    0    0 -0.63427529080E+02 -0.70830930483E+01  0.13703927747E+03  0.15117203849E+03  0.00000000000E+00 0.  1.
         14    1    6    6    0    0 -0.10218105174E+03  0.48477012697E+02  0.92921512780E+02  0.14637416313E+03  0.00000000000E+00 0. -1.
         -5    1    3    3    0  503  0.12777890025E+02  0.16748004085E+01  0.11988994471E+03  0.12067215202E+03  0.47000000000E+01 0.  1.
         13    1    4    4    0    0  0.50900444991E+02 -0.66739314091E+01  0.30675734947E+02  0.59802988013E+02  0.00000000000E+00 0. -1.
        -14    1    4    4    0    0  0.14540930252E+03 -0.15663159501E+03  0.23471378705E+03  0.31743957479E+03  0.00000000000E+00 0.  1.
</event>
<event>
12    1  0.1061634E+000  0.2978170E+03  0.7818608E-02  0.1086547E+00
         21   -1    0    0  501  502  0.00000000000E+00  0.00000000000E+00  0.78567499834E+02  0.78567499834E+02  0.00000000000E+00 0. -1.
         21   -1    0    0  502  503 -0.00000000000E+00 -0.00000000000E+00 -0.12764568138E+04  0.12764568138E+04  0.00000000000E+00 0. -1.
         -6    2    1    2    0  503 -0.15683511179E+03  0.18453855391E+03 -0.36227866556E+03  0.46792785710E+03  0.17046676439E+03 0.  0.
        -24    2    3    3    0    0 -0.84398136015E+02  0.19017859867E+03 -0.28615643524E+03  0.36259215796E+03  0.79351262306E+02 0.  0.
          6    2    1    2  501    0  0.15683511179E+03 -0.18453855391E+03 -0.83561064842E+03  0.88709645654E+03  0.17332985115E+03 0.  0.
         24    2    5    5    0    0  0.54663968359E+02 -0.16795967957E+03 -0.52094925285E+03  0.55581457433E+03  0.79643666386E+02 0.  0.
          5    1    5    5  501    0  0.10217114343E+03 -0.16578874345E+02 -0.31466139556E+03  0.33128188221E+03  0.47000000000E+01 0. -1.
        -11    1    6    6    0    0  0.56085373084E+02 -0.10287184411E+03 -0.41711293129E+03  0.43325671701E+03  0.00000000000E+00 0.  1.
         12    1    6    6    0    0 -0.14214047246E+01 -0.65087835457E+02 -0.10383632156E+03  0.12255785732E+03  0.00000000000E+00 0. -1.
         -5    1    3    3    0  503 -0.72436975774E+02 -0.56400447648E+01 -0.76122230325E+02  0.10533569914E+03  0.47000000000E+01 0.  1.
         11    1    4    4    0    0  0.30313605545E+01  0.41190994204E+02 -0.10225292076E+03  0.11027940403E+03  0.00000000000E+00 0. -1.
        -12    1    4    4    0    0 -0.87429496570E+02  0.14898760447E+03 -0.18390351448E+03  0.25231275393E+03  0.00000000000E+00 0.  1.
</event>
<event>
12    1  0.1061634E+000  0.2254609E+03  0.7818608E-02  0.1130143E+00
         21   -1    0    0  501  502  0.00000000000E+00  0.00000000000E+00  0.38293790829E+03  0.38293790829E+03  0.00000000000E+00 0. -1.
         21   -1    0    0  502  503 -0.00000000000E+00 -0.00000000000E+00 -0.20233367136E+03  0.20233367136E+03  0.00000000000E+00 0. -1.
         -6    2    1    2    0  503 -0.14033090911E+03  0.39937477645E+02 -0.82188763749E+02  0.23997419237E+03  0.17188616566E+03 0.  0.
        -24    2    3    3    0    0 -0.12736096073E+03 -0.29772683138E+02 -0.37930590904E+02  0.15625679907E+03  0.76617429807E+02 0.  0.
          6    2    1    2  501    0  0.14033090911E+03 -0.39937477645E+02  0.26279300068E+03  0.34529738728E+03  0.16994810467E+03 0.  0.
         24    2    5    5    0    0  0.87926450944E+02 -0.27431777580E+02  0.60500701359E+02  0.13590091134E+03  0.79530872253E+02 0.  0.
          5    1    5    5  501    0  0.52404458168E+02 -0.12505700064E+02  0.20229229932E+03  0.20939647594E+03  0.47000000000E+01 0. -1.
        -11    1    6    6    0    0  0.45599996879E+02  0.17628424105E+02 -0.72199185441E+00  0.48894195198E+02  0.00000000000E+00 0.  1.
         12    1    6    6    0    0  0.42326454065E+02 -0.45060201685E+02  0.61222693213E+02  0.87006716142E+02  0.00000000000E+00 0. -1.
         -5    1    3    3    0  503 -0.12969948382E+02  0.69710160783E+02 -0.44258172845E+02  0.83717393300E+02  0.47000000000E+01 0.  1.
         13    1    4    4    0    0  0.33832093758E+01  0.13201614706E+02 -0.64454392715E+01  0.15075557168E+02  0.00000000000E+00 0. -1.
        -14    1    4    4    0    0 -0.13074417011E+03 -0.42974297844E+02 -0.31485151632E+02  0.14118124190E+03  0.00000000000E+00 0.  1.
</event>
<event>
12    1  0.1061634E+000  0.2184821E+03  0.7818608E-02  0.1138437E+00
         21   -1    0    0  503  502  0.00000000000E+00  0.00000000000E+00  0.31639543473E+03  0.31639543473E+03  0.00000000000E+00 0. -1.
         21   -1    0    0  501  503 -0.00000000000E+00 -0.00000000000E+00 -0.21429233164E+03  0.21429233164E+03  0.00000000000E+00 0. -1.
          6    2    1    2  501    0 -0.59317950817E+02  0.86391558089E+02 -0.10466343692E+03  0.24225786053E+03  0.19170893397E+03 0.  0.
         24    2    3    3    0    0  0.36076580129E+02  0.72473711094E+02 -0.83144595993E+02  0.14336916798E+03  0.84188693131E+02 0.  0.
         -6    2    1    2    0  502  0.59317950817E+02 -0.86391558089E+02  0.20676654000E+03  0.28842990585E+03  0.17163125567E+03 0.  0.
        -24    2    5    5    0    0  0.24553864424E+02 -0.55135178741E+02  0.21808157584E+03  0.24010162232E+03  0.80289695033E+02 0.  0.
          5    1    3    3  501    0 -0.95394530945E+02  0.13917846994E+02 -0.21518840922E+02  0.98888692548E+02  0.47000000000E+01 0. -1.
        -11    1    4    4    0    0  0.21988510055E+02  0.42496339612E+02 -0.96455997255E+02  0.10767169016E+03  0.00000000000E+00 0.  1.
         12    1    4    4    0    0  0.14088070074E+02  0.29977371483E+02  0.13311401262E+02  0.35697477824E+02  0.00000000000E+00 0. -1.
         -5    1    5    5    0  502  0.34764086393E+02 -0.31256379348E+02 -0.11315035834E+02  0.48328283526E+02  0.47000000000E+01 0.  1.
         13    1    6    6    0    0  0.23945332789E+02  0.53418236002E+01  0.16309938104E+02  0.29460619863E+02  0.00000000000E+00 0. -1.
        -14    1    6    6    0    0  0.60853163449E+00 -0.60477002341E+02  0.20177163773E+03  0.21064100246E+03  0.00000000000E+00 0.  1.
</event>
<event>
12    1  0.1061634E+000  0.2519414E+03  0.7818608E-02  0.1112216E+00
         21   -1    0    0  503  502  0.00000000000E+00  0.00000000000E+00  0.11960437334E+03  0.11960437334E+03  0.00000000000E+00 0. -1.
         21   -1    0    0  501  503 -0.00000000000E+00 -0.00000000000E+00 -0.60799401711E+03  0.60799401711E+03  0.00000000000E+00 0. -1.
          6    2    1    2  501    0 -0.18287575320E+03 -0.24574060771E+01 -0.11336322318E+03  0.27627103714E+03  0.17327690452E+03 0.  0.
         24    2    3    3    0    0 -0.16117984472E+03 -0.59581247117E+02 -0.87245122346E+02  0.20965203946E+03  0.82543315458E+02 0.  0.
         -6    2    1    2    0  502  0.18287575320E+03  0.24574060771E+01 -0.37502642059E+03  0.45132735331E+03  0.17205227040E+03 0.  0.
        -24    2    5    5    0    0  0.15038675711E+03 -0.59048899030E+02 -0.21416291284E+03  0.27600559607E+03  0.64887492127E+02 0.  0.
          5    1    3    3  501    0 -0.21695908480E+02  0.57123841040E+02 -0.26118100830E+02  0.66618997672E+02  0.47000000000E+01 0. -1.
        -11    1    4    4    0    0 -0.49585915759E+02 -0.52133391818E+02 -0.62043765235E+02  0.95005696611E+02  0.00000000000E+00 0.  1.
         12    1    4    4    0    0 -0.11159392896E+03 -0.74478552993E+01 -0.25201357111E+02  0.11464634285E+03  0.00000000000E+00 0. -1.
         -5    1    5    5    0  502  0.32488996086E+02  0.61506305107E+02 -0.16086350776E+03  0.17532175724E+03  0.47000000000E+01 0.  1.
         13    1    6    6    0    0  0.13449597208E+03 -0.52864172088E+02 -0.21486227231E+03  0.25893934282E+03  0.00000000000E+00 0. -1.
        -14    1    6    6    0    0  0.15890785030E+02 -0.61847269423E+01  0.69935947587E+00  0.17066253248E+02  0.00000000000E+00 0.  1.
</event>
<event>
12    1  0.1061634E+000  0.3054180E+03  0.7818608E-02  0.1083265E+00
         21   -1    0    0  503  502  0.00000000000E+00  0.00000000000E+00  0.91589131937E+03  0.91589131937E+03  0.00000000000E+00 0.  1.
         21   -1    0    0  501  503 -0.00000000000E+00 -0.00000000000E+00 -0.11415714935E+03  0.11415714935E+03  0.00000000000E+00 0.  1.
          6    2    1    2  501    0 -0.23917998076E+03 -0.78801257356E+02  0.21593124875E+03  0.36940847071E+03  0.16254111076E+03 0.  0.
         24    2    3    3    0    0 -0.22079634058E+03 -0.38213273313E+02  0.22083578391E+03  0.32433644901E+03  0.78831531943E+02 0.  0.
         -6    2    1    2    0  502  0.23917998076E+03  0.78801257356E+02  0.58580292128E+03  0.66063999802E+03  0.17281042517E+03 0.  0.
        -24    2    5    5    0    0  0.25542258044E+03  0.60738254720E+02  0.56646471183E+03  0.62923696547E+03  0.78275531193E+02 0.  0.
          5    1    3    3  501    0 -0.18383640183E+02 -0.40587984043E+02 -0.49045351623E+01  0.45072021701E+02  0.47000000000E+01 0. -1.
        -13    1    4    4    0    0 -0.16089276627E+03 -0.49556712736E+02  0.19633223427E+03  0.25862849075E+03  0.00000000000E+00 0.  1.
         14    1    4    4    0    0 -0.59903574307E+02  0.11343439422E+02  0.24503549638E+02  0.65707958252E+02  0.00000000000E+00 0. -1.
         -5    1    5    5    0  502 -0.16242599677E+02  0.18063002637E+02  0.19338209451E+02  0.31403032549E+02  0.47000000000E+01 0.  1.
         13    1    6    6    0    0  0.12288812344E+03 -0.10703631736E+02  0.24922409798E+03  0.27808040137E+03  0.00000000000E+00 0. -1.
        -14    1    6    6    0    0  0.13253445699E+03  0.71441886456E+02  0.31724061385E+03  0.35115656409E+03  0.00000000000E+00 0.  1.
</event>
<event>
12    1  0.1061634E+000  0.2180995E+03  0.7818608E-02  0.1135727E+00
         21   -1    0    0  503  502  0.00000000000E+00  0.00000000000E+00  0.46227877625E+03  0.46227877625E+03  0.00000000000E+00 0.  1.
         21   -1    0    0  501  503 -0.00000000000E+00 -0.00000000000E+00 -0.13144540747E+03  0.13144540747E+03  0.00000000000E+00 0.  1.
          6    2    1    2  501    0 -0.74100330458E+02 -0.10742672458E+03  0.25224694312E+02  0.21955334548E+03  0.17474560418E+03 0.  0.
         24    2    3    3    0    0  0.25414847532E+02 -0.24959486053E+02 -0.32892226454E+01  0.87117513694E+02  0.79433946066E+02 0.  0.
         -6    2    1    2    0  502  0.74100330458E+02  0.10742672458E+03  0.30560867447E+03  0.37417083823E+03  0.17197614412E+03 0.  0.
        -24    2    5    5    0    0  0.72224104901E+02  0.94029176113E+02  0.32205107499E+03  0.35236586031E+03  0.79918691944E+02 0.  0.
          5    1    3    3  501    0 -0.99515177990E+02 -0.82467238532E+02  0.28513916957E+02  0.13243583179E+03  0.47000000000E+01 0. -1.
        -11    1    4    4    0    0 -0.16288982212E+02  0.14541142274E+02  0.15391725135E+02  0.26714807931E+02  0.00000000000E+00 0.  1.
         12    1    4    4    0    0  0.41703829744E+02 -0.39500628327E+02 -0.18680947781E+02  0.60402705763E+02  0.00000000000E+00 0. -1.
         -5    1    5    5    0  502  0.18762255566E+01  0.13397548472E+02 -0.16442400520E+02  0.21804977924E+02  0.47000000000E+01 0.  1.
         11    1    6    6    0    0  0.72988762935E+02  0.68077015608E+02  0.16241179193E+03  0.19062903694E+03  0.00000000000E+00 0. -1.
        -12    1    6    6    0    0 -0.76465803403E+00  0.25952160505E+02  0.15963928306E+03  0.16173682336E+03  0.00000000000E+00 0.  1.
</event>
<event>
12    1  0.1061634E+000  0.3129873E+03  0.7818608E-02  0.1079058E+00
         21   -1    0    0  503  502  0.00000000000E+00  0.00000000000E+00  0.23410861374E+04  0.23410861374E+04  0.00000000000E+00 0. -1.
         21   -1    0    0  501  503 -0.00000000000E+00 -0.00000000000E+00 -0.46985344044E+02  0.46985344044E+02  0.00000000000E+00 0. -1.
          6    2    1    2  501    0 -0.15558826789E+03 -0.21009319740E+03  0.15459563124E+04  0.15770960149E+04  0.17001193918E+03 0.  0.
         24    2    3    3    0    0 -0.76889241123E+02 -0.20405115714E+03  0.11778915416E+04  0.12006337876E+04  0.80896093335E+02 0.  0.
         -6    2    1    2    0  502  0.15558826789E+03  0.21009319740E+03  0.74814448092E+03  0.81097546657E+03  0.17208771702E+03 0.  0.
        -24    2    5    5    0    0  0.85785410039E+02  0.90840943231E+02  0.54208541906E+03  0.56283041612E+03  0.85500071400E+02 0.  0.
          5    1    3    3  501    0 -0.78699026770E+02 -0.60420402630E+01  0.36806477082E+03  0.37646222730E+03  0.47000000000E+01 0. -1.
        -11    1    4    4    0    0 -0.50414938158E+02 -0.15637164985E+03  0.67121355930E+03  0.69102923314E+03  0.00000000000E+00 0.  1.
         12    1    4    4    0    0 -0.26474302965E+02 -0.47679507288E+02  0.50667798231E+03  0.50960455443E+03  0.00000000000E+00 0. -1.
         -5    1    5    5    0  502  0.69802857854E+02  0.11925225417E+03  0.20605906186E+03  0.24814505045E+03  0.47000000000E+01 0.  1.
         11    1    6    6    0    0  0.33213664889E+01  0.60219234808E+02  0.27844917793E+03  0.28490583076E+03  0.00000000000E+00 0. -1.
        -12    1    6    6    0    0  0.82464043550E+02  0.30621708423E+02  0.26363624113E+03  0.27792458535E+03  0.00000000000E+00 0.  1.
</event>
<event>
12    1  0.1061634E+000  0.2112944E+03  0.7818608E-02  0.1141004E+00
         21   -1    0    0  501  502  0.00000000000E+00  0.00000000000E+00  0.30131836184E+02  0.30131836184E+02  0.00000000000E+00 0. -1.
         21   -1    0    0  502  503 -0.00000000000E+00 -0.00000000000E+00 -0.14835679332E+04  0.14835679332E+04  0.00000000000E+00 0. -1.
         -6    2    1    2    0  503  0.20808837813E+02  0.11579250654E+03 -0.81440232975E+03  0.84136584304E+03  0.17551186523E+03 0.  0.
        -24    2    3    3    0    0 -0.12800648129E+02  0.49854824444E+02 -0.18716873314E+03  0.20976355506E+03  0.79493737203E+02 0.  0.
          6    2    1    2  501    0 -0.20808837813E+02 -0.11579250654E+03 -0.63903376725E+03  0.67233392633E+03  0.17270738403E+03 0.  0.
         24    2    5    5    0    0  0.50621238786E+02 -0.40105630408E+02 -0.37884261689E+03  0.39206212291E+03  0.77588713388E+02 0.  0.
          5    1    5    5  501    0 -0.71430076600E+02 -0.75686876132E+02 -0.26019115036E+03  0.28027180341E+03  0.47000000000E+01 0. -1.
        -11    1    6    6    0    0  0.13763696760E+02 -0.26813095431E+02 -0.35837163689E+02  0.46826101016E+02  0.00000000000E+00 0.  1.
         12    1    6    6    0    0  0.36857542026E+02 -0.13292534977E+02 -0.34300545320E+03  0.34523602190E+03  0.00000000000E+00 0. -1.
         -5    1    3    3    0  503  0.33609485943E+02  0.65937682096E+02 -0.62723359661E+03  0.63160228798E+03  0.47000000000E+01 0.  1.
         13    1    4    4    0    0 -0.46596072172E+01 -0.51996162733E+01 -0.12925619211E+03  0.12944462580E+03  0.00000000000E+00 0. -1.
        -14    1    4    4    0    0 -0.81410409118E+01  0.55054440717E+02 -0.57912541027E+02  0.80318929264E+02  0.00000000000E+00 0.  1.
</event>
<event>
12    1  0.1061634E+000  0.2697438E+03  0.7818608E-02  0.1101493E+00
         21   -1    0    0  503  502  0.00000000000E+00  0.00000000000E+00  0.16940329006E+04  0.16940329006E+04  0.00000000000E+00 0. -1.
         21   -1    0    0  501  503 -0.00000000000E+00 -0.00000000000E+00 -0.53197510238E+02  0.53197510238E+02  0.00000000000E+00 0. -1.
          6    2    1    2  501    0 -0.19923267755E+03  0.57039575751E+02  0.12057742672E+04  0.12355781219E+04  0.17266887023E+03 0.  0.
         24    2    3    3    0    0 -0.78068961795E+02  0.70627633232E+02  0.42070850197E+03  0.44108732451E+03  0.80494464663E+02 0.  0.
         -6    2    1    2    0  502  0.19923267755E+03 -0.57039575751E+02  0.43506112311E+03  0.51165228894E+03  0.17193810202E+03 0.  0.
        -24    2    5    5    0    0  0.21324951204E+03 -0.77726819645E+02  0.36649738735E+03  0.43852562096E+03  0.80421218732E+02 0.  0.
          5    1    3    3  501    0 -0.12116371576E+03 -0.13588057481E+02  0.78506576524E+03  0.79449079735E+03  0.47000000000E+01 0. -1.
        -13    1    4    4    0    0 -0.78110982832E+02  0.18375484516E+02  0.25036805097E+03  0.26291280878E+03  0.00000000000E+00 0.  1.
         14    1    4    4    0    0  0.42021036945E-01  0.52252148716E+02  0.17034045100E+03  0.17817451574E+03  0.00000000000E+00 0. -1.
         -5    1    5    5    0  502 -0.14016834488E+02  0.20687243894E+02  0.68563735754E+02  0.73126667978E+02  0.47000000000E+01 0.  1.
         13    1    6    6    0    0  0.17118013718E+03 -0.45071836848E+02  0.21830033045E+03  0.28105007404E+03  0.00000000000E+00 0. -1.
        -14    1    6    6    0    0  0.42069374856E+02 -0.32654982797E+02  0.14819705691E+03  0.15747554692E+03  0.00000000000E+00 0.  1.
</event>
<event>
12    1  0.1061634E+000  0.1821312E+03  0.7818608E-02  0.1168133E+00
         21   -1    0    0  501  502  0.00000000000E+00  0.00000000000E+00  0.57850806060E+02  0.57850806060E+02  0.00000000000E+00 0.  1.
         21   -1    0    0  502  503 -0.00000000000E+00 -0.00000000000E+00 -0.61158456314E+03  0.61158456314E+03  0.00000000000E+00 0.  1.
         -6    2    1    2    0  503 -0.61000956505E+02 -0.12823163446E+02 -0.15834773798E+03  0.23411722013E+03  0.16078344573E+03 0.  0.
        -24    2    3    3    0    0 -0.21068236249E+02 -0.42380113149E+02 -0.31194150327E+02  0.97521611574E+02  0.79356443596E+02 0.  0.
          6    2    1    2  501    0  0.61000956505E+02  0.12823163446E+02 -0.39538601909E+03  0.43531814907E+03  0.17113221964E+03 0.  0.
         24    2    5    5    0    0  0.63035826365E+02  0.21006247019E+02 -0.40840059980E+03  0.41911404887E+03  0.66714003252E+02 0.  0.
          5    1    5    5  501    0 -0.20348698603E+01 -0.81830835738E+01  0.13014580705E+02  0.16204100193E+02  0.47000000000E+01 0. -1.
        -11    1    6    6    0    0 -0.94027003168E+01 -0.11169455026E+02 -0.76425612618E+02  0.77807723028E+02  0.00000000000E+00 0.  1.
         12    1    6    6    0    0  0.72438526682E+02  0.32175702045E+02 -0.33197498718E+03  0.34130632584E+03  0.00000000000E+00 0. -1.
         -5    1    3    3    0  503 -0.39932720255E+02  0.29556949703E+02 -0.12715358766E+03  0.13659560856E+03  0.47000000000E+01 0.  1.
         13    1    4    4    0    0  0.23659702098E+02 -0.41153770243E+02 -0.19123149385E+02  0.51177232740E+02  0.00000000000E+00 0. -1.
        -14    1    4    4    0    0 -0.44727938347E+02 -0.12263429060E+01 -0.12071000942E+02  0.46344378833E+02  0.00000000000E+00 0.  1.
</event>
<event>
12    1  0.1061634E+000  0.2695362E+03  0.7818608E-02  0.1102254E+00
         21   -1    0    0  501  502  0.00000000000E+00  0.00000000000E+00  0.17964814956E+03  0.17964814956E+03  0.00000000000E+00 0. -1.
         21   -1    0    0  502  503 -0.00000000000E+00 -0.00000000000E+00 -0.40253659962E+03  0.40253659962E+03  0.00000000000E+00 0. -1.
         -6    2    1    2    0  503 -0.13576741943E+03 -0.14542675039E+03 -0.78607050876E+02  0.28076476981E+03  0.18184624168E+03 0.  0.
        -24    2    3    3    0    0 -0.11241084249E+03 -0.12203381916E+03 -0.12511450260E+03  0.22351276562E+03  0.82315655281E+02 0.  0.
          6    2    1    2  501    0  0.13576741943E+03  0.14542675039E+03 -0.14428139918E+03  0.30141997936E+03  0.17451403926E+03 0.  0.
         24    2    5    5    0    0  0.85224110568E+01  0.18730699630E+02 -0.67938668555E+02  0.10624445847E+03  0.79049045994E+02 0.  0.
          5    1    5    5  501    0  0.12724500837E+03  0.12669605076E+03 -0.76342730629E+02  0.19517552089E+03  0.47000000000E+01 0. -1.
        -11    1    6    6    0    0 -0.25126394596E+02  0.13970393623E+02  0.16548841003E+01  0.28796635997E+02  0.00000000000E+00 0.  1.
         12    1    6    6    0    0  0.33648805653E+02  0.47603060065E+01 -0.69593552656E+02  0.77447822477E+02  0.00000000000E+00 0. -1.
         -5    1    3    3    0  503 -0.23356576933E+02 -0.23392931230E+02  0.46507451728E+02  0.57252004190E+02  0.47000000000E+01 0.  1.
         13    1    4    4    0    0 -0.12083324352E+03 -0.12100073709E+03 -0.10252506386E+03  0.19938214523E+03  0.00000000000E+00 0. -1.
        -14    1    4    4    0    0  0.84224010284E+01 -0.10330820681E+01 -0.22589438745E+02  0.24130620391E+02  0.00000000000E+00 0.  1.
</event>
<event>
12    1  0.1061634E+000  0.2749559E+03  0.7818608E-02  0.1098518E+00
         21   -1    0    0  501  502  0.00000000000E+00  0.00000000000E+00  0.41332870521E+02  0.41332870521E+02  0.00000000000E+00 0. -1.
         21   -1    0    0  502  503 -0.00000000000E+00 -0.00000000000E+00 -0.18292281939E+04  0.18292281939E+04  0.00000000000E+00 0. -1.
         -6    2    1    2    0  503  0.12400356601E+03 -0.17378952649E+03 -0.86141101139E+03  0.90413781323E+03  0.17279054042E+03 0.  0.
        -24    2    3    3    0    0  0.32821740462E+02 -0.87955000399E+01 -0.27915446653E+03  0.29210682700E+03  0.79022495056E+02 0.  0.
          6    2    1    2  501    0 -0.12400356601E+03  0.17378952649E+03 -0.92648431198E+03  0.96642325119E+03  0.17326579636E+03 0.  0.
         24    2    5    5    0    0 -0.79168418660E+02  0.13742153577E+03 -0.85690763815E+03  0.87589245682E+03  0.88003287371E+02 0.  0.
          5    1    5    5  501    0 -0.44835147348E+02  0.36367990728E+02 -0.69576673825E+02  0.90530794362E+02  0.47000000000E+01 0. -1.
        -11    1    6    6    0    0 -0.24425999172E+02 -0.66418657289E+01 -0.82386911493E+02  0.86187858781E+02  0.00000000000E+00 0.  1.
         12    1    6    6    0    0 -0.54742419487E+02  0.14406340150E+03 -0.77452072666E+03  0.78970459804E+03  0.00000000000E+00 0. -1.
         -5    1    3    3    0  503  0.91181825546E+02 -0.16499402646E+03 -0.58225654486E+03  0.61203098623E+03  0.47000000000E+01 0.  1.
         13    1    4    4    0    0  0.21786003138E+02 -0.12994746402E+02 -0.19023051790E+02  0.31707567964E+02  0.00000000000E+00 0. -1.
        -14    1    4    4    0    0  0.11035737324E+02  0.41992463625E+01 -0.26013141474E+03  0.26039925903E+03  0.00000000000E+00 0.  1.
</event>
<event>
12    1  0.1061634E+000  0.4868771E+03  0.7818608E-02  0.1017278E+00
         21   -1    0    0  503  502  0.00000000000E+00  0.00000000000E+00  0.56700883298E+03  0.56700883298E+03  0.00000000000E+00 0. -1.
         21   -1    0    0  501  503 -0.00000000000E+00 -0.00000000000E+00 -0.57069313034E+03  0.57069313034E+03  0.00000000000E+00 0.  1.
          6    2    1    2  501    0  0.45007755231E+03  0.70021312888E+02  0.29253418679E+03  0.56779436611E+03  0.17129332852E+03 0.  0.
         24    2    3    3    0    0  0.40864912041E+03  0.16225167218E+02  0.23320551407E+03  0.47750415809E+03  0.79800059732E+02 0.  0.
         -6    2    1    2    0  502 -0.45007755231E+03 -0.70021312888E+02 -0.29621848414E+03  0.56990759721E+03  0.17197817204E+03 0.  0.
        -24    2    5    5    0    0 -0.33403093303E+03 -0.31185636520E+02 -0.14206099734E+03  0.37302781576E+03  0.80120011366E+02 0.  0.
          5    1    3    3  501    0  0.41428431899E+02  0.53796145670E+02  0.59328672714E+02  0.90290208022E+02  0.47000000000E+01 0. -1.
        -13    1    4    4    0    0  0.74315013914E+02  0.23096872990E+02  0.18127089391E+02  0.79904807144E+02  0.00000000000E+00 0.  1.
         14    1    4    4    0    0  0.33433410650E+03 -0.68717057719E+01  0.21507842468E+03  0.39759935095E+03  0.00000000000E+00 0. -1.
         -5    1    5    5    0  502 -0.11604661928E+03 -0.38835676368E+02 -0.15415748681E+03  0.19687978145E+03  0.47000000000E+01 0.  1.
         13    1    6    6    0    0 -0.10353336323E+02 -0.16937025168E+02 -0.16491235218E+01  0.19919186805E+02  0.00000000000E+00 0. -1.
        -14    1    6    6    0    0 -0.32367759671E+03 -0.14248611352E+02 -0.14041187382E+03  0.35310862896E+03  0.00000000000E+00 0.  1.
</event>
<event>
12    1  0.1061634E+000  0.1842636E+03  0.7818608E-02  0.1164037E+00
         21   -1    0    0  501  502  0.00000000000E+00  0.00000000000E+00  0.31713532684E+02  0.31713532684E+02  0.00000000000E+00 0. -1.
         21   -1    0    0  502  503 -0.00000000000E+00 -0.00000000000E+00 -0.15050896285E+04  0.15050896285E+04  0.00000000000E+00 0. -1.
         -6    2    1    2    0  503 -0.46674705186E+02  0.41433224990E+02 -0.32216525464E+03  0.37113815533E+03  0.17337196663E+03 0.  0.
        -24    2    3    3    0    0 -0.95257764642E+02  0.52105294736E+02 -0.22057344109E+03  0.25792511139E+03  0.77998184005E+02 0.  0.
          6    2    1    2  501    0  0.46674705186E+02 -0.41433224990E+02 -0.11512108411E+04  0.11656650058E+04  0.17202693038E+03 0.  0.
         24    2    5    5    0    0  0.17138050279E+02 -0.92783571210E+02 -0.82497316335E+03  0.83405923920E+03  0.78559470418E+02 0.  0.
          5    1    5    5  501    0  0.29536654907E+02  0.51350346220E+02 -0.32623767780E+03  0.33160576662E+03  0.47000000000E+01 0. -1.
        -13    1    6    6    0    0 -0.27480558594E+02 -0.13782363130E+02 -0.26596203663E+03  0.26773296316E+03  0.00000000000E+00 0.  1.
         14    1    6    6    0    0  0.44618608873E+02 -0.79001208080E+02 -0.55901112672E+03  0.56632627604E+03  0.00000000000E+00 0. -1.
         -5    1    3    3    0  503  0.48583059456E+02 -0.10672069746E+02 -0.10159181355E+03  0.11321304395E+03  0.47000000000E+01 0.  1.
         11    1    4    4    0    0 -0.11057276778E+01  0.12467433742E+01  0.66013497497E+01  0.68084375048E+01  0.00000000000E+00 0. -1.
        -12    1    4    4    0    0 -0.94152036965E+02  0.50858551362E+02 -0.22717479083E+03  0.25111667388E+03  0.00000000000E+00 0.  1.
</event>
<event>
12    1  0.1061634E+000  0.1735364E+03  0.7818608E-02  0.1174548E+00
         21   -1    0    0  503  502  0.00000000000E+00  0.00000000000E+00  0.28717347845E+03  0.28717347845E+03  0.00000000000E+00 0.  1.
         21   -1    0    0  501  503 -0.00000000000E+00 -0.00000000000E+00 -0.10479839737E+03  0.10479839737E+03  0.00000000000E+00 0.  1.
          6    2    1    2  501    0 -0.82277023550E+01  0.18538967246E+02  0.10792841085E+03  0.20436099109E+03  0.17234698842E+03 0.  0.
         24    2    3    3    0    0  0.97681278483E+01  0.34288464765E+02 -0.65337815688E+01  0.87332874508E+02  0.79455808665E+02 0.  0.
         -6    2    1    2    0  502  0.82277023550E+01 -0.18538967246E+02  0.74446670235E+02  0.18761088473E+03  0.17100920726E+03 0.  0.
        -24    2    5    5    0    0  0.21703252653E+00 -0.17384872242E+02  0.11753896075E+03  0.14351396570E+03  0.80489565597E+02 0.  0.
          5    1    3    3  501    0 -0.17995830203E+02 -0.15749497519E+02  0.11446219242E+03  0.11702811658E+03  0.47000000000E+01 0. -1.
        -11    1    4    4    0    0 -0.37583434076E+01  0.56233355133E+02  0.92398008885E+01  0.57111201136E+02  0.00000000000E+00 0.  1.
         12    1    4    4    0    0  0.13526471256E+02 -0.21944890368E+02 -0.15773582457E+02  0.30221673373E+02  0.00000000000E+00 0. -1.
         -5    1    5    5    0  502  0.80106698284E+01 -0.11540950048E+01 -0.43092290515E+02  0.44096919033E+02  0.47000000000E+01 0.  1.
         13    1    6    6    0    0  0.41232257012E+01  0.24478371983E+02  0.78373384096E+01  0.26031049891E+02  0.00000000000E+00 0. -1.
        -14    1    6    6    0    0 -0.39061931747E+01 -0.41863244224E+02  0.10970162234E+03  0.11748291581E+03  0.00000000000E+00 0.  1.
</event>
<event>
12    1  0.1061634E+000  0.1770092E+03  0.7818608E-02  0.1170828E+00
         21   -1    0    0  503  502  0.00000000000E+00  0.00000000000E+00  0.81378914121E+02  0.81378914121E+02  0.00000000000E+00 0.  1.
         21   -1    0    0  501  503 -0.00000000000E+00 -0.00000000000E+00 -0.38486141107E+03  0.38486141107E+03  0.00000000000E+00 0.  1.
          6    2    1    2  501    0  0.25757295761E+02 -0.30438594679E+02 -0.14190177963E+03  0.22686641654E+03  0.17245958820E+03 0.  0.
         24    2    3    3    0    0 -0.34539922878E+02  0.96382662305E+01 -0.32902939325E+02  0.95928467329E+02  0.82666589258E+02 0.  0.
         -6    2    1    2    0  502 -0.25757295761E+02  0.30438594679E+02 -0.16158071732E+03  0.23937390866E+03  0.17205113659E+03 0.  0.
        -24    2    5    5    0    0 -0.37029474808E+02  0.51368957187E+01 -0.16120942707E+02  0.91225759756E+02  0.81637520461E+02 0.  0.
          5    1    3    3  501    0  0.60297218639E+02 -0.40076860909E+02 -0.10899884030E+03  0.13093794921E+03  0.47000000000E+01 0. -1.
        -13    1    4    4    0    0  0.17861639014E+02  0.22102441132E+02 -0.30967398258E+02  0.42030177339E+02  0.00000000000E+00 0.  1.
         14    1    4    4    0    0 -0.52401561892E+02 -0.12464174901E+02 -0.19355410668E+01  0.53898289990E+02  0.00000000000E+00 0. -1.
         -5    1    5    5    0  502  0.11272179047E+02  0.25301698960E+02 -0.14545977462E+03  0.14814814890E+03  0.47000000000E+01 0.  1.
         13    1    6    6    0    0 -0.26316148181E+02  0.42952796283E+02 -0.11317690316E+02  0.51629182423E+02  0.00000000000E+00 0. -1.
        -14    1    6    6    0    0 -0.10713326627E+02 -0.37815900564E+02 -0.48032523907E+01  0.39596577332E+02  0.00000000000E+00 0.  1.
</event>
<event>
12    1  0.1061634E+000  0.1761288E+03  0.7818608E-02  0.1172562E+00
         21   -1    0    0  503  502  0.00000000000E+00  0.00000000000E+00  0.10443775477E+03  0.10443775477E+03  0.00000000000E+00 0. -1.
         21   -1    0    0  501  503 -0.00000000000E+00 -0.00000000000E+00 -0.36020346801E+03  0.36020346801E+03  0.00000000000E+00 0. -1.
          6    2    1    2  501    0  0.46572565063E+01 -0.13646527637E+02 -0.24670008470E+02  0.17407868371E+03  0.17171738715E+03 0.  0.
         24    2    3    3    0    0  0.70238306692E+02 -0.26866671401E+01 -0.41392069815E+02  0.10535670745E+03  0.66679040590E+02 0.  0.
         -6    2    1    2    0  502 -0.46572565063E+01  0.13646527637E+02 -0.23109570477E+03  0.29056253907E+03  0.17553759310E+03 0.  0.
        -24    2    5    5    0    0  0.43818812881E+02  0.43812198949E+02 -0.72375039863E+02  0.12181943106E+03  0.75909355488E+02 0.  0.
          5    1    3    3  501    0 -0.65581050186E+02 -0.10959860497E+02  0.16722061345E+02  0.68721976261E+02  0.47000000000E+01 0. -1.
        -13    1    4    4    0    0  0.55172324229E+02 -0.31552976987E+02 -0.21001088608E+02  0.66937444231E+02  0.00000000000E+00 0.  1.
         14    1    4    4    0    0  0.15065982463E+02  0.28866309847E+02 -0.20390981207E+02  0.38419263220E+02  0.00000000000E+00 0. -1.
         -5    1    5    5    0  502 -0.48476069388E+02 -0.30165671312E+02 -0.15872066491E+03  0.16874310800E+03  0.47000000000E+01 0.  1.
         11    1    6    6    0    0  0.55460245375E+02  0.17259983227E+02 -0.19059723473E+02  0.61131161423E+02  0.00000000000E+00 0. -1.
        -12    1    6    6    0    0 -0.11641432494E+02  0.26552215721E+02 -0.53315316390E+02  0.60688269641E+02  0.00000000000E+00 0.  1.
</event>
<event>
12    1  0.1061634E+000  0.2899374E+03  0.7818608E-02  0.1091125E+00
         21   -1    0    0  501  502  0.00000000000E+00  0.00000000000E+00  0.28232117290E+03  0.28232117290E+03  0.00000000000E+00 0. -1.
         21   -1    0    0  502  503 -0.00000000000E+00 -0.00000000000E+00 -0.34728170726E+03  0.34728170726E+03  0.00000000000E+00 0.  1.
         -6    2    1    2    0  503  0.10449667880E+03  0.20114259884E+03  0.92843965261E+02  0.30443998465E+03  0.18079214978E+03 0.  0.
        -24    2    3    3    0    0 -0.19962990545E+02  0.88811009192E+02  0.50662884487E+02  0.13149511222E+03  0.80239144613E+02 0.  0.
          6    2    1    2  501    0 -0.10449667880E+03 -0.20114259884E+03 -0.15780449962E+03  0.32516289551E+03  0.17161220112E+03 0.  0.
         24    2    5    5    0    0 -0.24513190789E+02 -0.34924453664E+02 -0.92577659018E+02  0.12945275047E+03  0.79792090259E+02 0.  0.
          5    1    5    5  501    0 -0.79983488008E+02 -0.16621814517E+03 -0.65226840601E+02  0.19571014505E+03  0.47000000000E+01 0. -1.
        -13    1    6    6    0    0  0.26963289782E+02 -0.73421612861E+00 -0.17237513994E+02  0.32010778777E+02  0.00000000000E+00 0.  1.
         14    1    6    6    0    0 -0.51476480571E+02 -0.34190237535E+02 -0.75340145024E+02  0.97441971690E+02  0.00000000000E+00 0. -1.
         -5    1    3    3    0  503  0.12445966934E+03  0.11233158965E+03  0.42181080774E+02  0.17294487243E+03  0.47000000000E+01 0.  1.
         11    1    4    4    0    0  0.23208722403E+02  0.67284938840E+02  0.41505067940E+02  0.82392830119E+02  0.00000000000E+00 0. -1.
        -12    1    4    4    0    0 -0.43171712949E+02  0.21526070352E+02  0.91578165472E+01  0.49102282102E+02  0.00000000000E+00 0.  1.
</event>
<event>
12    1  0.1061634E+000  0.1930705E+03  0.7818608E-02  0.1155814E+00
         21   -1    0    0  501  502  0.00000000000E+00  0.00000000000E+00  0.23268194730E+03  0.23268194730E+03  0.00000000000E+00 0. -1.
         21   -1    0    0  502  503 -0.00000000000E+00 -0.00000000000E+00 -0.16832727398E+03  0.16832727398E+03  0.00000000000E+00 0. -1.
         -6    2    1    2    0  503  0.14628517303E+02  0.88481537330E+02  0.77128531994E+02  0.20751665842E+03  0.17050330527E+03 0.  0.
        -24    2    3    3    0    0 -0.21849841086E+02 -0.36580606482E+01  0.71574659548E+02  0.10815211924E+03  0.77994564196E+02 0.  0.
          6    2    1    2  501    0 -0.14628517303E+02 -0.88481537330E+02 -0.12773858680E+02  0.19349256286E+03  0.17097726296E+03 0.  0.
         24    2    5    5    0    0 -0.26165620764E+02 -0.90966828744E+02 -0.62842186267E+02  0.14183785487E+03  0.84907202633E+02 0.  0.
          5    1    5    5  501    0  0.11537103461E+02  0.24852914136E+01  0.50068327586E+02  0.51654707985E+02  0.47000000000E+01 0. -1.
        -11    1    6    6    0    0 -0.15326475565E+02 -0.26795792161E+02  0.19779818427E+02  0.36662740593E+02  0.00000000000E+00 0.  1.
         12    1    6    6    0    0 -0.10839145199E+02 -0.64171036582E+02 -0.82622004693E+02  0.10517511428E+03  0.00000000000E+00 0. -1.
         -5    1    3    3    0  503  0.36478358388E+02  0.92139597978E+02  0.55538724461E+01  0.99364539175E+02  0.47000000000E+01 0.  1.
         13    1    4    4    0    0  0.23834393650E+02 -0.52404443051E+01  0.53855113121E+02  0.59126252937E+02  0.00000000000E+00 0. -1.
        -14    1    4    4    0    0 -0.45684234736E+02  0.15823836569E+01  0.17719546427E+02  0.49025866305E+02  0.00000000000E+00 0.  1.
</event>
<event>
12    1  0.1061634E+000  0.1784002E+03  0.7818608E-02  0.1169415E+00
         21   -1    0    0  503  502  0.00000000000E+00  0.00000000000E+00  0.85476513204E+03  0.85476513204E+03  0.00000000000E+00 0. -1.
         21   -1    0    0  501  503 -0.00000000000E+00 -0.00000000000E+00 -0.49245548896E+02  0.49245548896E+02  0.00000000000E+00 0. -1.
          6    2    1    2  501    0  0.97359319492E+01  0.45122126601E+02  0.62623244065E+03  0.65108674087E+03  0.17209322976E+03 0.  0.
         24    2    3    3    0    0  0.34130843701E+02 -0.32718319977E+02  0.27080140955E+03  0.28638473277E+03  0.80295758258E+02 0.  0.
         -6    2    1    2    0  502 -0.97359319492E+01 -0.45122126601E+02  0.17928714249E+03  0.25292394007E+03  0.17232482502E+03 0.  0.
        -24    2    5    5    0    0  0.51351024189E+01 -0.96058985568E+02  0.13606530345E+03  0.18432416868E+03  0.78790445936E+02 0.  0.
          5    1    3    3  501    0 -0.24394911752E+02  0.77840446578E+02  0.35543103110E+03  0.36470200810E+03  0.47000000000E+01 0. -1.
        -11    1    4    4    0    0 -0.13868054182E+02 -0.37024680444E+02  0.75502214390E+02  0.85227544061E+02  0.00000000000E+00 0.  1.
         12    1    4    4    0    0  0.47998897883E+02  0.43063604674E+01  0.19529919516E+03  0.20115718871E+03  0.00000000000E+00 0. -1.
         -5    1    5    5    0  502 -0.14871034368E+02  0.50936858966E+02  0.43221839040E+02  0.68599771389E+02  0.47000000000E+01 0.  1.
         11    1    6    6    0    0  0.17343155657E+02 -0.34713054568E+02  0.50343895022E+01  0.39129608780E+02  0.00000000000E+00 0. -1.
        -12    1    6    6    0    0 -0.12208053238E+02 -0.61345931000E+02  0.13103091395E+03  0.14519455990E+03  0.00000000000E+00 0.  1.
</event>
<event>
12    1  0.1061634E+000  0.1958313E+03  0.7818608E-02  0.1153468E+00
         21   -1    0    0  501  502  0.00000000000E+00  0.00000000000E+00  0.38232209577E+03  0.38232209577E+03  0.00000000000E+00 0. -1.
         21   -1    0    0  502  503 -0.00000000000E+00 -0.00000000000E+00 -0.21758095028E+03  0.21758095028E+03  0.00000000000E+00 0. -1.
         -6    2    1    2    0  503  0.83892475534E+02  0.39952258431E+02  0.30301475437E+03  0.36078781464E+03  0.17238264246E+03 0.  0.
        -24    2    3    3    0    0  0.11391887396E+03  0.10758020658E+02  0.16472831619E+03  0.21622254528E+03  0.80768348247E+02 0.  0.
          6    2    1    2  501    0 -0.83892475534E+02 -0.39952258431E+02 -0.13827360888E+03  0.23911523141E+03  0.17152950934E+03 0.  0.
         24    2    5    5    0    0 -0.95043266444E+02 -0.82952086953E+02 -0.97322429485E+02  0.17851478187E+03  0.80508389858E+02 0.  0.
          5    1    5    5  501    0  0.11150790910E+02  0.42999828523E+02 -0.40951179398E+02  0.60600449544E+02  0.47000000000E+01 0. -1.
        -13    1    6    6    0    0 -0.57238542989E+02 -0.93468820267E+02 -0.63231824349E+02  0.12653432252E+03  0.00000000000E+00 0.  1.
         14    1    6    6    0    0 -0.37804723455E+02  0.10516733313E+02 -0.34090605136E+02  0.51980459344E+02  0.00000000000E+00 0. -1.
         -5    1    3    3    0  503 -0.30026398426E+02  0.29194237773E+02  0.13828643818E+03  0.14456526936E+03  0.47000000000E+01 0.  1.
         13    1    4    4    0    0  0.70882230321E+00  0.25607308976E+02  0.25251113061E+02  0.35970201735E+02  0.00000000000E+00 0. -1.
        -14    1    4    4    0    0  0.11321005166E+03 -0.14849288318E+02  0.13947720313E+03  0.18025234354E+03  0.00000000000E+00 0.  1.
</event>
<event>
12    1  0.1061634E+000  0.2206688E+03  0.7818608E-02  0.1133626E+00
         21   -1    0    0  501  502  0.00000000000E+00  0.00000000000E+00  0.89269042077E+02  0.89269042077E+02  0.00000000000E+00 0.  1.
         21   -1    0    0  502  503 -0.00000000000E+00 -0.00000000000E+00 -0.54382856381E+03  0.54382856381E+03  0.00000000000E+00 0.  1.
         -6    2    1    2    0  503 -0.10866609530E+03 -0.82251649406E+02 -0.20981394554E+03  0.30355986148E+03  0.17190998709E+03 0.  0.
        -24    2    3    3    0    0 -0.11621932629E+03 -0.41738147764E+02 -0.69419164546E+02  0.15716594206E+03  0.68066938790E+02 0.  0.
          6    2    1    2  501    0  0.10866609530E+03  0.82251649406E+02 -0.24474557620E+03  0.32953774441E+03  0.17355423885E+03 0.  0.
         24    2    5    5    0    0  0.89267182880E+01  0.87323026265E+02 -0.15434078700E+03  0.19474613451E+03  0.79999882233E+02 0.  0.
          5    1    5    5  501    0  0.99739377013E+02 -0.50713768594E+01 -0.90404789200E+02  0.13479160990E+03  0.47000000000E+01 0. -1.
        -11    1    6    6    0    0 -0.25637413075E+02  0.14093968944E+02 -0.13354673997E+02  0.32159978659E+02  0.00000000000E+00 0.  1.
         12    1    6    6    0    0  0.34564131363E+02  0.73229057321E+02 -0.14098611300E+03  0.16258615585E+03  0.00000000000E+00 0. -1.
         -5    1    3    3    0  503  0.75532309874E+01 -0.40513501642E+02 -0.14039478099E+03  0.14639391942E+03  0.47000000000E+01 0.  1.
         13    1    4    4    0    0 -0.55975825035E+02  0.14764311770E+02 -0.22015755282E+02  0.61935219149E+02  0.00000000000E+00 0. -1.
        -14    1    4    4    0    0 -0.60243501253E+02 -0.56502459534E+02 -0.47403409264E+02  0.95230722912E+02  0.00000000000E+00 0.  1.
</event>
<event>
12    1  0.1061634E+000  0.4027708E+03  0.7818608E-02  0.1042894E+00
         21   -1    0    0  501  502  0.00000000000E+00  0.00000000000E+00  0.88123615641E+03  0.88123615641E+03  0.00000000000E+00 0. -1.
         21   -1    0    0  502  503 -0.00000000000E+00 -0.00000000000E+00 -0.18399275117E+03  0.18399275117E+03  0.00000000000E+00 0. -1.
         -6    2    1    2    0  503  0.35248784404E+03 -0.89016754805E+02  0.32843571543E+03  0.51970598240E+03  0.17335693278E+03 0.  0.
        -24    2    3    3    0    0  0.27832751005E+03 -0.13521899524E+03  0.25831473278E+03  0.40757461138E+03  0.60333930355E+02 0.  0.
          6    2    1    2  501    0 -0.35248784404E+03  0.89016754805E+02  0.36880768981E+03  0.54552292518E+03  0.17147736587E+03 0.  0.
         24    2    5    5    0    0 -0.18619396965E+03  0.11689956747E+03  0.21484530551E+03  0.31714251954E+03  0.78020312685E+02 0.  0.
          5    1    5    5  501    0 -0.16629387438E+03 -0.27882812669E+02  0.15396238431E+03  0.22838040564E+03  0.47000000000E+01 0. -1.
        -11    1    6    6    0    0 -0.39980931467E+02  0.25508130012E+02  0.84014708255E+01  0.48163516169E+02  0.00000000000E+00 0.  1.
         12    1    6    6    0    0 -0.14621303819E+03  0.91391437462E+02  0.20644383468E+03  0.26897900337E+03  0.00000000000E+00 0. -1.
         -5    1    3    3    0  503  0.74160333991E+02  0.46202240432E+02  0.70120982643E+02  0.11213137101E+03  0.47000000000E+01 0.  1.
         13    1    4    4    0    0  0.62856354391E+02 -0.43427633110E+02  0.95665391166E+02  0.12242854108E+03  0.00000000000E+00 0. -1.
        -14    1    4    4    0    0  0.21547115565E+03 -0.91791362127E+02  0.16264934162E+03  0.28514607030E+03  0.00000000000E+00 0.  1.
</event>
<event>
12    1  0.1061634E+000  0.4381478E+03  0.7818608E-02  0.1031319E+00
         21   -1    0    0  501  502  0.00000000000E+00  0.00000000000E+00  0.15491455780E+03  0.15491455780E+03  0.00000000000E+00 0.  1.
         21   -1    0    0  502  503 -0.00000000000E+00 -0.00000000000E+00 -0.15828683326E+04  0.15828683326E+04  0.00000000000E+00 0. -1.
         -6    2    1    2    0  503  0.24332802357E+03  0.32108163560E+03 -0.11188577521E+04  0.12015796889E+04  0.17218924318E+03 0.  0.
        -24    2    3    3    0    0  0.22864418543E+03  0.19435475004E+03 -0.80100672672E+03  0.85904986102E+03  0.79391152307E+02 0.  0.
          6    2    1    2  501    0 -0.24332802357E+03 -0.32108163560E+03 -0.30909602265E+03  0.53620320149E+03  0.17225439994E+03 0.  0.
         24    2    5    5    0    0 -0.24045462377E+03 -0.29054183503E+03 -0.32217277633E+03  0.50252787919E+03  0.80659702183E+02 0.  0.
          5    1    5    5  501    0 -0.28733997946E+01 -0.30539800576E+02  0.13076753683E+02  0.33675322307E+02  0.47000000000E+01 0. -1.
        -11    1    6    6    0    0 -0.93804406649E+00 -0.33421194239E+02 -0.19206845825E+02  0.38558514982E+02  0.00000000000E+00 0.  1.
         12    1    6    6    0    0 -0.23951657970E+03 -0.25712064079E+03 -0.30296593051E+03  0.46396936421E+03  0.00000000000E+00 0. -1.
         -5    1    3    3    0  503  0.14683838135E+02  0.12672688556E+03 -0.31785102538E+03  0.34252982784E+03  0.47000000000E+01 0.  1.
         13    1    4    4    0    0 -0.28177427990E+01  0.17555130500E+01 -0.47353761386E+02  0.47469992816E+02  0.00000000000E+00 0. -1.
        -14    1    4    4    0    0  0.23146192823E+03  0.19259923699E+03 -0.75365296533E+03  0.81157986820E+03  0.00000000000E+00 0.  1.
</event>
<event>
12    1  0.1061634E+000  0.2103731E+03  0.7818608E-02  0.1142070E+00
         21   -1    0    0  503  502  0.00000000000E+00  0.00000000000E+00  0.97027870520E+03  0.97027870520E+03  0.00000000000E+00 0. -1.
         21   -1    0    0  501  503 -0.00000000000E+00 -0.00000000000E+00 -0.46335543479E+02  0.46335543479E+02  0.00000000000E+00 0. -1.
          6    2    1    2  501    0 -0.36515305804E+02  0.10745495596E+03  0.36360823348E+03  0.41808934683E+03  0.17235956418E+03 0.  0.
         24    2    3    3    0    0 -0.34666660262E+02  0.11272294309E+03  0.37688176197E+03  0.40294188046E+03  0.80087809864E+02 0.  0.
         -6    2    1    2    0  502  0.36515305804E+02 -0.10745495596E+03  0.56033492825E+03  0.59852490185E+03  0.17713523422E+03 0.  0.
        -24    2    5    5    0    0  0.21616200618E+02  0.86169929189E+01  0.14170047410E+03  0.16381629042E+03  0.78836793131E+02 0.  0.
          5    1    3    3  501    0 -0.18486455425E+01 -0.52679871299E+01 -0.13273528497E+02  0.15147466372E+02  0.47000000000E+01 0. -1.
        -11    1    4    4    0    0 -0.27644040957E+02  0.35804761412E+01  0.40022698019E+02  0.48773242322E+02  0.00000000000E+00 0.  1.
         12    1    4    4    0    0 -0.70226193046E+01  0.10914246695E+03  0.33685906395E+03  0.35416863814E+03  0.00000000000E+00 0. -1.
         -5    1    5    5    0  502  0.14899105187E+02 -0.11607194888E+03  0.41863445415E+03  0.43470861143E+03  0.47000000000E+01 0.  1.
         11    1    6    6    0    0  0.50641967605E+02  0.39010481908E+01  0.10617893719E+03  0.11770214001E+03  0.00000000000E+00 0. -1.
        -12    1    6    6    0    0 -0.29025766987E+02  0.47159447281E+01  0.35521536915E+02  0.46114150417E+02  0.00000000000E+00 0.  1.
</event>
<event>
12    1  0.1061634E+000  0.3249371E+03  0.7818608E-02  0.1073783E+00
         21   -1    0    0  503  502  0.00000000000E+00  0.00000000000E+00  0.13000133549E+04  0.13000133549E+04  0.00000000000E+00 0.  1.
         21   -1    0    0  501  503 -0.00000000000E+00 -0.00000000000E+00 -0.90699657354E+02  0.90699657354E+02  0.00000000000E+00 0.  1.
          6    2    1    2  501    0 -0.96075893968E+01 -0.27464675783E+03  0.37285385083E+03  0.49457468725E+03  0.17338102498E+03 0.  0.
         24    2    3    3    0    0 -0.64186119749E+02 -0.10999586140E+03  0.15174776370E+03  0.21350756814E+03  0.79618781546E+02 0.  0.
         -6    2    1    2    0  502  0.96075893968E+01  0.27464675783E+03  0.83645984676E+03  0.89613832505E+03  0.16696010009E+03 0.  0.
        -24    2    5    5    0    0 -0.12636552854E+02  0.20937751894E+03  0.76297564301E+03  0.79525773420E+03  0.79400277529E+02 0.  0.
          5    1    3    3  501    0  0.54578530352E+02 -0.16465089644E+03  0.22110608713E+03  0.28106711910E+03  0.47000000000E+01 0. -1.
        -11    1    4    4    0    0 -0.88289869767E+01 -0.22050576554E+02  0.89000742110E+02  0.92115748022E+02  0.00000000000E+00 0.  1.
         12    1    4    4    0    0 -0.55357132773E+02 -0.87945284841E+02  0.62747021589E+02  0.12139182012E+03  0.00000000000E+00 0. -1.
         -5    1    5    5    0  502  0.22244142250E+02  0.65269238893E+02  0.73484203754E+02  0.10088059086E+03  0.47000000000E+01 0.  1.
         13    1    6    6    0    0 -0.14877473656E+02  0.13545022259E+03  0.34771454438E+03  0.37346151929E+03  0.00000000000E+00 0. -1.
        -14    1    6    6    0    0  0.22409208021E+01  0.73927296357E+02  0.41526109863E+03  0.42179621490E+03  0.00000000000E+00 0.  1.
</event>
<event>
12    1  0.1061634E+000  0.2170862E+03  0.7818608E-02  0.1136086E+00
         21   -1    0    0  501  502  0.00000000000E+00  0.00000000000E+00  0.43421830053E+02  0.43421830053E+02  0.00000000000E+00 0. -1.
         21   -1    0    0  502  503 -0.00000000000E+00 -0.00000000000E+00 -0.11031730644E+04  0.11031730644E+04  0.00000000000E+00 0. -1.
         -6    2    1    2    0  503  0.52642130582E+02  0.12134166388E+03 -0.45624976209E+03  0.50523662027E+03  0.17206162777E+03 0.  0.
        -24    2    3    3    0    0  0.54692760491E+01  0.97307709981E+02 -0.15258992947E+03  0.19696029440E+03  0.77530430111E+02 0.  0.
          6    2    1    2  501    0 -0.52642130582E+02 -0.12134166388E+03 -0.60350147230E+03  0.64135827422E+03  0.17213778069E+03 0.  0.
         24    2    5    5    0    0 -0.10072270163E+03 -0.72253799001E+02 -0.39678784115E+03  0.42347304046E+03  0.80766026365E+02 0.  0.
          5    1    5    5  501    0  0.48080571046E+02 -0.49087864883E+02 -0.20671363115E+03  0.21788523376E+03  0.47000000000E+01 0. -1.
        -11    1    6    6    0    0 -0.82417437974E+02 -0.79049993524E+02 -0.38275280527E+03  0.39942614524E+03  0.00000000000E+00 0.  1.
         12    1    6    6    0    0 -0.18305263654E+02  0.67961945223E+01 -0.14035035881E+02  0.24046895218E+02  0.00000000000E+00 0. -1.
         -5    1    3    3    0  503  0.47172854533E+02  0.24033953903E+02 -0.30365983262E+03  0.30827632587E+03  0.47000000000E+01 0.  1.
         11    1    4    4    0    0 -0.24953189565E+01  0.46024801481E+02 -0.13420952781E+03  0.14190386296E+03  0.00000000000E+00 0. -1.
        -12    1    4    4    0    0  0.79645950056E+01  0.51282908500E+02 -0.18380401658E+02  0.55056431441E+02  0.00000000000E+00 0.  1.
</event>
<event>
12    1  0.1061634E+000  0.1847334E+03  0.7818608E-02  0.1164624E+00
         21   -1    0    0  503  502  0.00000000000E+00  0.00000000000E+00  0.25436835204E+02  0.25436835204E+02  0.00000000000E+00 0. -1.
         21   -1    0    0  501  503 -0.00000000000E+00 -0.00000000000E+00 -0.14159301285E+04  0.14159301285E+04  0.00000000000E+00 0. -1.
          6    2    1    2  501    0 -0.19863197470E+02 -0.49323100739E+02 -0.89036178650E+03  0.90820850964E+03  0.17108848952E+03 0.  0.
         24    2    3    3    0    0 -0.23273795276E+02  0.17235281973E+02 -0.25507958637E+03  0.26942277538E+03  0.81757641987E+02 0.  0.
         -6    2    1    2    0  502  0.19863197470E+02  0.49323100739E+02 -0.50013150685E+03  0.53315845411E+03  0.17691551139E+03 0.  0.
        -24    2    5    5    0    0 -0.14674969991E+02 -0.32479262590E+02 -0.16791241453E+03  0.18924548989E+03  0.79680733236E+02 0.  0.
          5    1    3    3  501    0  0.34105978052E+01 -0.66558382712E+02 -0.63528220013E+03  0.63878573425E+03  0.47000000000E+01 0. -1.
        -11    1    4    4    0    0  0.19801957738E+02  0.34011251815E+02 -0.95752473590E+02  0.10352496790E+03  0.00000000000E+00 0.  1.
         12    1    4    4    0    0 -0.43075753014E+02 -0.16775969843E+02 -0.15932711278E+03  0.16589780748E+03  0.00000000000E+00 0. -1.
         -5    1    5    5    0  502  0.34538167462E+02  0.81802363329E+02 -0.33221909232E+03  0.34391296422E+03  0.47000000000E+01 0.  1.
         13    1    6    6    0    0 -0.43717269926E+02 -0.20027564844E+02 -0.60504292242E+02  0.77285654704E+02  0.00000000000E+00 0. -1.
        -14    1    6    6    0    0  0.29042299934E+02 -0.12451697746E+02 -0.10740812228E+03  0.11195983519E+03  0.00000000000E+00 0.  1.
</event>
<event>
12    1  0.1061634E+000  0.2402922E+03  0.7818608E-02  0.1119951E+00
         21   -1    0    0  501  502  0.00000000000E+00  0.00000000000E+00  0.61414851495E+03  0.61414851495E+03  0.00000000000E+00 0.  1.
         21   -1    0    0  502  503 -0.00000000000E+00 -0.00000000000E+00 -0.93570135425E+02  0.93570135425E+02  0.00000000000E+00 0.  1.
         -6    2    1    2    0  503 -0.82254649249E+02 -0.14586314887E+03  0.23668784709E+03  0.33578562243E+03  0.16937816196E+03 0.  0.
        -24    2    3    3    0    0 -0.68655927654E+02 -0.16574765094E+03  0.24064889684E+03  0.31092403425E+03  0.81092190311E+02 0.  0.
          6    2    1    2  501    0  0.82254649249E+02  0.14586314887E+03  0.28389053244E+03  0.37193302795E+03  0.17233240365E+03 0.  0.
         24    2    5    5    0    0  0.54175878196E+02  0.63969291690E+02  0.25619038688E+03  0.28091429751E+03  0.79071057622E+02 0.  0.
          5    1    5    5  501    0  0.28078771053E+02  0.81893857178E+02  0.27700145552E+02  0.91018730440E+02  0.47000000000E+01 0. -1.
        -11    1    6    6    0    0  0.43571722384E+02 -0.85034868522E+00  0.60990776250E+02  0.74960608802E+02  0.00000000000E+00 0.  1.
         12    1    6    6    0    0  0.10604155812E+02  0.64819640375E+02  0.19519961063E+03  0.20595368870E+03  0.00000000000E+00 0. -1.
         -5    1    3    3    0  503 -0.13598721595E+02  0.19884502076E+02 -0.39610497471E+01  0.24861588182E+02  0.47000000000E+01 0.  1.
         13    1    4    4    0    0 -0.41848254563E+02 -0.13540018467E+03  0.22808409162E+03  0.26852716673E+03  0.00000000000E+00 0. -1.
        -14    1    4    4    0    0 -0.26807673091E+02 -0.30347466269E+02  0.12564805215E+02  0.42396867521E+02  0.00000000000E+00 0.  1.
</event>
<event>
12    1  0.1061634E+000  0.2220722E+03  0.7818608E-02  0.1132701E+00
         21   -1    0    0  501  502  0.00000000000E+00  0.00000000000E+00  0.14013684049E+04  0.14013684049E+04  0.00000000000E+00 0.  1.
         21   -1    0    0  502  503 -0.00000000000E+00 -0.00000000000E+00 -0.58738787526E+02  0.58738787526E+02  0.00000000000E+00 0.  1.
         -6    2    1    2    0  503  0.12790224323E+03  0.54440314403E+02  0.11347832776E+04  0.11559424862E+04  0.17072554742E+03 0.  0.
        -24    2    3    3    0    0  0.10510710197E+03  0.85326086014E+02  0.10619049779E+04  0.10734386322E+04  0.79374247416E+02 0.  0.
          6    2    1    2  501    0 -0.12790224323E+03 -0.54440314403E+02  0.20784633978E+03  0.30416470627E+03  0.17318584216E+03 0.  0.
         24    2    5    5    0    0 -0.11917963058E+03 -0.61304725002E+02  0.78674187206E+02  0.17443136782E+03  0.79212503398E+02 0.  0.
          5    1    5    5  501    0 -0.87226126473E+01  0.68644105989E+01  0.12917215257E+03  0.12973333844E+03  0.47000000000E+01 0. -1.
        -11    1    6    6    0    0 -0.68588009397E+02  0.87238634319E+01  0.31189714616E+02  0.75849977746E+02  0.00000000000E+00 0.  1.
         12    1    6    6    0    0 -0.50591621184E+02 -0.70028588434E+02  0.47484472590E+02  0.98581390075E+02  0.00000000000E+00 0. -1.
         -5    1    3    3    0  503  0.22795141262E+02 -0.30885771611E+02  0.72878299701E+02  0.82503853973E+02  0.47000000000E+01 0.  1.
         13    1    4    4    0    0  0.34243635566E+02  0.70385602631E+02  0.40023677106E+03  0.40781887223E+03  0.00000000000E+00 0. -1.
        -14    1    4    4    0    0  0.70863466401E+02  0.14940483383E+02  0.66166820683E+03  0.66561975995E+03  0.00000000000E+00 0.  1.
</event>
<event>
12    1  0.1061634E+000  0.2458405E+03  0.7818608E-02  0.1116083E+00
         21   -1    0    0  503  502  0.00000000000E+00  0.00000000000E+00  0.12094778897E+03  0.12094778897E+03  0.00000000000E+00 0. -1.
         21   -1    0    0  501  503 -0.00000000000E+00 -0.00000000000E+00 -0.53516305885E+03  0.53516305885E+03  0.00000000000E+00 0.  1.
          6    2    1    2  501    0 -0.17434104195E+03  0.42151451592E+01 -0.12058294572E+03  0.27315198636E+03  0.17221844993E+03 0.  0.
         24    2    3    3    0    0 -0.11832846424E+03  0.10521886157E+02 -0.25677003362E+01  0.14228231078E+03  0.78264470464E+02 0.  0.
         -6    2    1    2    0  502  0.17434104195E+03 -0.42151451592E+01 -0.29363232415E+03  0.38295886146E+03  0.17327718093E+03 0.  0.
        -24    2    5    5    0    0  0.19192727732E+03 -0.34720181321E+02 -0.24676120934E+03  0.32414709130E+03  0.78349675144E+02 0.  0.
          5    1    3    3  501    0 -0.56012577706E+02 -0.63067409982E+01 -0.11801524539E+03  0.13086967558E+03  0.47000000000E+01 0. -1.
        -11    1    4    4    0    0 -0.48673594849E+02  0.25637585656E+02 -0.33688560700E+02  0.64508323152E+02  0.00000000000E+00 0.  1.
         12    1    4    4    0    0 -0.69654869391E+02 -0.15115699499E+02  0.31120860364E+02  0.77773987624E+02  0.00000000000E+00 0. -1.
         -5    1    5    5    0  502 -0.17586235371E+02  0.30505036162E+02 -0.46871114813E+02  0.58811770162E+02  0.47000000000E+01 0.  1.
         11    1    6    6    0    0  0.37175630428E+02 -0.40936639252E+02 -0.63128269368E+02  0.83922668716E+02  0.00000000000E+00 0. -1.
        -12    1    6    6    0    0  0.15475164689E+03  0.62164579306E+01 -0.18363293997E+03  0.24022442259E+03  0.00000000000E+00 0.  1.
</event>
<event>
12    1  0.1061634E+000  0.1884166E+03  0.7818608E-02  0.1160463E+00
         21   -1    0    0  503  502  0.00000000000E+00  0.00000000000E+00  0.77047487296E+03  0.77047487296E+03  0.00000000000E+00 0.  1.
         21   -1    0    0  501  503 -0.00000000000E+00 -0.00000000000E+00 -0.46538001894E+02  0.46538001894E+02  0.00000000000E+00 0.  1.
          6    2    1    2  501    0 -0.21496014002E+02 -0.74161532234E+02  0.30259669028E+03  0.35646255847E+03  0.17186851700E+03 0.  0.
         24    2    3    3    0    0  0.27408741685E+02  0.69669323029E+01  0.10618275104E+03  0.13834784458E+03  0.84056958152E+02 0.  0.
         -6    2    1    2    0  502  0.21496014002E+02  0.74161532234E+02  0.42134018078E+03  0.46055031638E+03  0.16916570132E+03 0.  0.
        -24    2    5    5    0    0 -0.33696934596E+02  0.64015055180E+01  0.14604692945E+03  0.17167984884E+03  0.83473362338E+02 0.  0.
          5    1    3    3  501    0 -0.48904755687E+02 -0.81128464537E+02  0.19641393924E+03  0.21811471389E+03  0.47000000000E+01 0. -1.
        -11    1    4    4    0    0  0.46250581261E+02 -0.20682440030E+02  0.41373795410E+02  0.65411547446E+02  0.00000000000E+00 0.  1.
         12    1    4    4    0    0 -0.18841839577E+02  0.27649372333E+02  0.64808955633E+02  0.72936297132E+02  0.00000000000E+00 0. -1.
         -5    1    5    5    0  502  0.55192948598E+02  0.67760026716E+02  0.27529325133E+03  0.28887046755E+03  0.47000000000E+01 0.  1.
         13    1    6    6    0    0  0.20242817629E+02  0.22319668903E+02  0.76621779431E+02  0.82333689148E+02  0.00000000000E+00 0. -1.
        -14    1    6    6    0    0 -0.53939752225E+02 -0.15918163385E+02  0.69425150020E+02  0.89346159688E+02  0.00000000000E+00 0.  1.
</event>
<event>
12    1  0.1061634E+000  0.1888151E+03  0.7818608E-02  0.1159683E+00
         21   -1    0    0  503  502  0.00000000000E+00  0.00000000000E+00  0.11547708984E+02  0.11547708984E+02  0.00000000000E+00 0.  1.
         21   -1    0    0  501  503 -0.00000000000E+00 -0.00000000000E+00 -0.33465251687E+04  0.33465251687E+04  0.00000000000E+00 0.  1.
          6    2    1    2  501    0 -0.15732372690E+02  0.74756032345E+02 -0.11880233870E+04  0.12028320697E+04  0.17195769247E+03 0.  0.
         24    2    3    3    0    0 -0.62178192523E+02  0.27660041564E+02 -0.38757023863E+03  0.39963683863E+03  0.69768957252E+02 0.  0.
         -6    2    1    2    0  502  0.15732372690E+02 -0.74756032345E+02 -0.21469540727E+04  0.21552408079E+04  0.17267072126E+03 0.  0.
        -24    2    5    5    0    0  0.44004600231E+02 -0.10774986923E+03 -0.18069239993E+04  0.18124136606E+04  0.79514142003E+02 0.  0.
          5    1    3    3  501    0  0.46445819832E+02  0.47095990781E+02 -0.80045314839E+03  0.80319523112E+03  0.47000000000E+01 0. -1.
        -11    1    4    4    0    0 -0.45820386436E+02  0.18992698054E+02 -0.10152919350E+03  0.11299737840E+03  0.00000000000E+00 0.  1.
         12    1    4    4    0    0 -0.16357806087E+02  0.86673435107E+01 -0.28604104513E+03  0.28663946023E+03  0.00000000000E+00 0. -1.
         -5    1    5    5    0  502 -0.28272227540E+02  0.32993836886E+02 -0.34003007339E+03  0.34282714731E+03  0.47000000000E+01 0.  1.
         13    1    6    6    0    0 -0.16289164457E+01  0.12055841329E+02 -0.11583079037E+03  0.11646788689E+03  0.00000000000E+00 0. -1.
        -14    1    6    6    0    0  0.45633516676E+02 -0.11980571056E+03 -0.16910932089E+04  0.16959457737E+04  0.00000000000E+00 0.  1.
</event>
<event>
12    1  0.1061634E+000  0.3409607E+03  0.7818608E-02  0.1066690E+00
         21   -1    0    0  501  502  0.00000000000E+00  0.00000000000E+00  0.37663783568E+02  0.37663783568E+02  0.00000000000E+00 0. -1.
         21   -1    0    0  502  503 -0.00000000000E+00 -0.00000000000E+00 -0.30659488172E+04  0.30659488172E+04  0.00000000000E+00 0. -1.
         -6    2    1    2    0  503  0.76009005870E+02 -0.28142228227E+03 -0.15700590217E+04  0.16060554930E+04  0.17132730364E+03 0.  0.
        -24    2    3    3    0    0  0.26175393012E+02 -0.73252496970E+02 -0.72231404972E+03  0.73169190957E+03  0.87088372290E+02 0.  0.
          6    2    1    2  501    0 -0.76009005870E+02  0.28142228227E+03 -0.14582260119E+04  0.14975571077E+04  0.17685677619E+03 0.  0.
         24    2    5    5    0    0 -0.18110380913E+02  0.17488214764E+03 -0.59044542669E+03  0.62133322934E+03  0.80730592172E+02 0.  0.
          5    1    5    5  501    0 -0.57898624957E+02  0.10654013463E+03 -0.86778058518E+03  0.87622387839E+03  0.47000000000E+01 0. -1.
        -11    1    6    6    0    0 -0.41070749073E+02  0.43624727932E+02 -0.16749247843E+03  0.17788663145E+03  0.00000000000E+00 0.  1.
         12    1    6    6    0    0  0.22960368160E+02  0.13125741971E+03 -0.42295294827E+03  0.44344659789E+03  0.00000000000E+00 0. -1.
         -5    1    3    3    0  503  0.49833612858E+02 -0.20816978530E+03 -0.84774497201E+03  0.87436358345E+03  0.47000000000E+01 0.  1.
         11    1    4    4    0    0  0.53052619558E+02 -0.19344846978E+02 -0.36172401404E+03  0.36610526612E+03  0.00000000000E+00 0. -1.
        -12    1    4    4    0    0 -0.26877226546E+02 -0.53907649992E+02 -0.36059003568E+03  0.36558664345E+03  0.00000000000E+00 0.  1.
</event>
<event>
12    1  0.1061634E+000  0.2005069E+03  0.7818608E-02  0.1149620E+00
         21   -1    0    0  503  502  0.00000000000E+00  0.00000000000E+00  0.18069740498E+03  0.18069740498E+03  0.00000000000E+00 0. -1.
         21   -1    0    0  501  503 -0.00000000000E+00 -0.00000000000E+00 -0.22087424111E+03  0.22087424111E+03  0.00000000000E+00 0. -1.
          6    2    1    2  501    0  0.63109173045E+02  0.79644512366E+02 -0.20833968347E+02  0.20013392881E+03  0.17115349588E+03 0.  0.
         24    2    3    3    0    0  0.93130893308E+02  0.14432616939E+02 -0.32932876083E+02  0.12717936377E+03  0.78793099448E+02 0.  0.
         -6    2    1    2    0  502 -0.63109173045E+02 -0.79644512366E+02 -0.19342867782E+02  0.20143771727E+03  0.17284962057E+03 0.  0.
        -24    2    5    5    0    0 -0.10907560732E+03 -0.74209266683E+02 -0.13015708019E+02  0.15448478417E+03  0.79319836805E+02 0.  0.
          5    1    3    3  501    0 -0.30021720264E+02  0.65211895427E+02  0.12098907735E+02  0.72954565047E+02  0.47000000000E+01 0. -1.
        -13    1    4    4    0    0  0.32168879002E+02  0.43073540043E+02 -0.41116230551E+01  0.53917270630E+02  0.00000000000E+00 0.  1.
         14    1    4    4    0    0  0.60962014307E+02 -0.28640923104E+02 -0.28821253028E+02  0.73262093136E+02  0.00000000000E+00 0. -1.
         -5    1    5    5    0  502  0.45966434277E+02 -0.54352456826E+01 -0.63271597628E+01  0.46952933097E+02  0.47000000000E+01 0.  1.
         13    1    6    6    0    0 -0.24441710629E+02 -0.35174345111E+02 -0.38787768055E+02  0.57785142754E+02  0.00000000000E+00 0. -1.
        -14    1    6    6    0    0 -0.84633896693E+02 -0.39034921572E+02  0.25772060035E+02  0.96699641416E+02  0.00000000000E+00 0.  1.
</event>
<event>
12    1  0.1061634E+000  0.2159974E+03  0.7818608E-02  0.1136905E+00
         21   -1    0    0  503  502  0.00000000000E+00  0.00000000000E+00  0.14912865108E+03  0.14912865108E+03  0.00000000000E+00 0. -1.
         21   -1    0    0  501  503 -0.00000000000E+00 -0.00000000000E+00 -0.33290026293E+03  0.33290026293E+03  0.00000000000E+00 0. -1.
          6    2    1    2  501    0  0.51716342700E+02 -0.11965427418E+03 -0.32703945553E+02  0.21844530181E+03  0.17221230036E+03 0.  0.
         24    2    3    3    0    0  0.58360430438E+02 -0.27284993121E+02  0.28103131421E+02  0.10755878957E+03  0.81416807406E+02 0.  0.
         -6    2    1    2    0  502 -0.51716342700E+02  0.11965427418E+03 -0.15106766630E+03  0.26358361221E+03  0.17222994917E+03 0.  0.
        -24    2    5    5    0    0 -0.36843951594E+02  0.59615770543E+02 -0.16854664507E+03  0.19913662131E+03  0.79598401475E+02 0.  0.
          5    1    3    3  501    0 -0.66440877377E+01 -0.92369281061E+02 -0.60807076974E+02  0.11088651224E+03  0.47000000000E+01 0. -1.
        -11    1    4    4    0    0  0.45563612595E+02  0.20126687804E+02 -0.21894347934E+01  0.49859000986E+02  0.00000000000E+00 0.  1.
         12    1    4    4    0    0  0.12796817843E+02 -0.47411680925E+02  0.30292566214E+02  0.57699788586E+02  0.00000000000E+00 0. -1.
         -5    1    5    5    0  502 -0.14872391107E+02  0.60038503639E+02  0.17478978773E+02  0.64446990895E+02  0.47000000000E+01 0.  1.
         11    1    6    6    0    0 -0.94094894116E+01 -0.70202180352E+01  0.37930676023E+01  0.12337313893E+02  0.00000000000E+00 0. -1.
        -12    1    6    6    0    0 -0.27434462182E+02  0.66635988578E+02 -0.17233971267E+03  0.18679930742E+03  0.00000000000E+00 0.  1.
</event>
<event>
12    1  0.1061634E+000  0.2435907E+03  0.7818608E-02  0.1117795E+00
         21   -1    0    0  501  502  0.00000000000E+00  0.00000000000E+00  0.11359093339E+04  0.11359093339E+04  0.00000000000E+00 0.  1.
         21   -1    0    0  502  503 -0.00000000000E+00 -0.00000000000E+00 -0.55806391842E+02  0.55806391842E+02  0.00000000000E+00 0.  1.
         -6    2    1    2    0  503  0.16806716018E+03 -0.37019330097E+02  0.38181349309E+03  0.45289950091E+03  0.17239319386E+03 0.  0.
        -24    2    3    3    0    0  0.20403788407E+02  0.13653553280E+02  0.17380963269E+03  0.19278431793E+03  0.79707406983E+02 0.  0.
          6    2    1    2  501    0 -0.16806716018E+03  0.37019330097E+02  0.69828944892E+03  0.73881622478E+03  0.16918705151E+03 0.  0.
         24    2    5    5    0    0 -0.62569359823E+02  0.13764565755E+02  0.52404041997E+03  0.53374213077E+03  0.78472366733E+02 0.  0.
          5    1    5    5  501    0 -0.10549780035E+03  0.23254764342E+02  0.17424902895E+03  0.20507409401E+03  0.47000000000E+01 0. -1.
        -13    1    6    6    0    0  0.51347844749E+01 -0.18683046548E+02  0.47116430584E+02  0.50944874824E+02  0.00000000000E+00 0.  1.
         14    1    6    6    0    0 -0.67704144298E+02  0.32447612303E+02  0.47692398939E+03  0.48279725595E+03  0.00000000000E+00 0. -1.
         -5    1    3    3    0  503  0.14766337177E+03 -0.50672883377E+02  0.20800386040E+03  0.26011518298E+03  0.47000000000E+01 0.  1.
         11    1    4    4    0    0  0.41654215970E+02 -0.60300022766E+01  0.14839950008E+03  0.15425254053E+03  0.00000000000E+00 0. -1.
        -12    1    4    4    0    0 -0.21250427563E+02  0.19683555557E+02  0.25410132610E+02  0.38531777408E+02  0.00000000000E+00 0.  1.
</event>
<event>
12    1  0.1061634E+000  0.1813686E+03  0.7818608E-02  0.1166608E+00
         21   -1    0    0  501  502  0.00000000000E+00  0.00000000000E+00  0.58115095253E+03  0.58115095253E+03  0.00000000000E+00 0.  1.
         21   -1    0    0  502  503 -0.00000000000E+00 -0.00000000000E+00 -0.10113902104E+03  0.10113902104E+03  0.00000000000E+00 0.  1.
         -6    2    1    2    0  503  0.49814971466E+02 -0.27344910567E+02  0.13029995988E+02  0.18132421907E+03  0.17169570789E+03 0.  0.
        -24    2    3    3    0    0  0.78594178322E+02  0.30859256481E+02  0.24564348561E+02  0.11520993091E+03  0.74435088390E+02 0.  0.
          6    2    1    2  501    0 -0.49814971466E+02  0.27344910567E+02  0.46698193551E+03  0.50096575450E+03  0.17223612739E+03 0.  0.
         24    2    5    5    0    0 -0.21245308394E+02 -0.40948374870E+02  0.12726597316E+03  0.15324571833E+03  0.71829588113E+02 0.  0.
          5    1    5    5  501    0 -0.28569663072E+02  0.68293285437E+02  0.33971596234E+03  0.34772003617E+03  0.47000000000E+01 0. -1.
        -13    1    6    6    0    0 -0.20859636531E+02 -0.57765777786E+02  0.12023661761E+03  0.13501427234E+03  0.00000000000E+00 0.  1.
         14    1    6    6    0    0 -0.38567186235E+00  0.16817402916E+02  0.70293555508E+01  0.18231445996E+02  0.00000000000E+00 0. -1.
         -5    1    3    3    0  503 -0.28779206857E+02 -0.58204167048E+02 -0.11534352573E+02  0.66114288156E+02  0.47000000000E+01 0.  1.
         11    1    4    4    0    0  0.49293751973E+02  0.20837290420E+02  0.51422567825E+02  0.74218239924E+02  0.00000000000E+00 0. -1.
        -12    1    4    4    0    0  0.29300426349E+02  0.10021966060E+02 -0.26858219265E+02  0.40991690987E+02  0.00000000000E+00 0.  1.
</event>
<event>
12    1  0.1061634E+000  0.5333672E+03  0.7818608E-02  0.1005438E+00
         21   -1    0    0  503  502  0.00000000000E+00  0.00000000000E+00  0.84166690803E+03  0.84166690803E+03  0.00000000000E+00 0.  1.
         21   -1    0    0  501  503 -0.00000000000E+00 -0.00000000000E+00 -0.33816451544E+03  0.33816451544E+03  0.00000000000E+00 0. -1.
          6    2    1    2  501    0  0.34481415994E+03  0.36834134172E+03  0.23208027808E+03  0.58137462762E+03  0.17193909750E+03 0.  0.
         24    2    3    3    0    0  0.90624274728E+02  0.10099210323E+03  0.11383804738E+03  0.19395827770E+03  0.79047760065E+02 0.  0.
         -6    2    1    2    0  502 -0.34481415994E+03 -0.36834134172E+03  0.27142211450E+03  0.59845679585E+03  0.17294051966E+03 0.  0.
        -24    2    5    5    0    0 -0.14945847054E+03 -0.23744810772E+03  0.19586065509E+03  0.35141730865E+03  0.80083021478E+02 0.  0.
          5    1    3    3  501    0  0.25418988522E+03  0.26734923849E+03  0.11824223071E+03  0.38741634992E+03  0.47000000000E+01 0. -1.
        -11    1    4    4    0    0  0.60336835608E+02  0.14902955879E+02  0.66970722144E+02  0.91365800219E+02  0.00000000000E+00 0.  1.
         12    1    4    4    0    0  0.30287439120E+02  0.86089147355E+02  0.46867325233E+02  0.10259247748E+03  0.00000000000E+00 0. -1.
         -5    1    5    5    0  502 -0.19535568940E+03 -0.13089323400E+03  0.75561459418E+02  0.24703948720E+03  0.47000000000E+01 0.  1.
         11    1    6    6    0    0 -0.73092290361E+02 -0.62088376504E+02  0.95816017993E+02  0.13556606770E+03  0.00000000000E+00 0. -1.
        -12    1    6    6    0    0 -0.76366180178E+02 -0.17535973122E+03  0.10004463709E+03  0.21585124095E+03  0.00000000000E+00 0.  1.
</event>
<event>
12    1  0.1061634E+000  0.2071463E+03  0.7818608E-02  0.1144331E+00
         21   -1    0    0  503  502  0.00000000000E+00  0.00000000000E+00  0.12972111242E+04  0.12972111242E+04  0.00000000000E+00 0.  1.
         21   -1    0    0  501  503 -0.00000000000E+00 -0.00000000000E+00 -0.67536828170E+02  0.67536828170E+02  0.00000000000E+00 0.  1.
          6    2    1    2  501    0  0.10995332012E+03 -0.32303935783E+02  0.11066660953E+04  0.11258860623E+04  0.17255811174E+03 0.  0.
         24    2    3    3    0    0  0.85990351155E+02 -0.87920762555E+02  0.68894148917E+03  0.70376831586E+03  0.74330787135E+02 0.  0.
         -6    2    1    2    0  502 -0.10995332012E+03  0.32303935783E+02  0.12300820073E+03  0.23886189007E+03  0.16967824907E+03 0.  0.
        -24    2    5    5    0    0 -0.11865251746E+03 -0.25162831927E+02  0.98012751347E+02  0.17541925523E+03  0.80335718512E+02 0.  0.
          5    1    3    3  501    0  0.23962968969E+02  0.55616826772E+02  0.41772460616E+03  0.42211774648E+03  0.47000000000E+01 0. -1.
        -11    1    4    4    0    0  0.40750056168E+02 -0.81838642763E+02  0.54928127862E+03  0.55683754684E+03  0.00000000000E+00 0.  1.
         12    1    4    4    0    0  0.45240294987E+02 -0.60821197916E+01  0.13966021055E+03  0.14693076901E+03  0.00000000000E+00 0. -1.
         -5    1    5    5    0  502  0.86991973382E+01  0.57466767710E+02  0.24995449385E+02  0.63442634839E+02  0.47000000000E+01 0.  1.
         13    1    6    6    0    0 -0.10837457552E+02 -0.28483584199E+02  0.47200749145E+02  0.56184301854E+02  0.00000000000E+00 0. -1.
        -14    1    6    6    0    0 -0.10781505991E+03  0.33207522723E+01  0.50812002202E+02  0.11923495338E+03  0.00000000000E+00 0.  1.
</event>
<event>
12    1  0.1061634E+000  0.1973968E+03  0.7818608E-02  0.1152062E+00
         21   -1    0    0  501  502  0.00000000000E+00  0.00000000000E+00  0.25507609668E+03  0.25507609668E+03  0.00000000000E+00 0. -1.
         21   -1    0    0  502  503 -0.00000000000E+00 -0.00000000000E+00 -0.15555362873E+03  0.15555362873E+03  0.00000000000E+00 0. -1.
         -6    2    1    2    0  503 -0.68772300377E+02  0.67429024496E+02  0.79187280437E+02  0.21268785755E+03  0.17230553306E+03 0.  0.
        -24    2    3    3    0    0 -0.59748278350E+02  0.91388411473E+02  0.53780653758E+01  0.13442307987E+03  0.78223668398E+02 0.  0.
          6    2    1    2  501    0  0.68772300377E+02 -0.67429024496E+02  0.20335187513E+02  0.19794186786E+03  0.17172990583E+03 0.  0.
         24    2    5    5    0    0  0.98537622506E+02 -0.41539365972E+02  0.52355933297E+02  0.14691572769E+03  0.86069189125E+02 0.  0.
          5    1    5    5  501    0 -0.29765322129E+02 -0.25889658524E+02 -0.32020745784E+02  0.51026140168E+02  0.47000000000E+01 0. -1.
        -13    1    6    6    0    0  0.94430308482E+02 -0.53186630339E+02  0.17303414751E+02  0.10975112286E+03  0.00000000000E+00 0.  1.
         14    1    6    6    0    0  0.41073140241E+01  0.11647264367E+02  0.35052518546E+02  0.37164604830E+02  0.00000000000E+00 0. -1.
         -5    1    3    3    0  503 -0.90240220271E+01 -0.23959386977E+02  0.73809215061E+02  0.78264777683E+02  0.47000000000E+01 0.  1.
         11    1    4    4    0    0  0.12715582549E+02  0.48019952974E+02 -0.14607779078E+01  0.49696436445E+02  0.00000000000E+00 0. -1.
        -12    1    4    4    0    0 -0.72463860899E+02  0.43368458499E+02  0.68388432836E+01  0.84726643427E+02  0.00000000000E+00 0.  1.
</event>
<event>
12    1  0.1154818E+000  0.5303365E+03  0.7818608E-02  0.1006191E+00
         21   -1    0    0  501  502  0.00000000000E+00  0.00000000000E+00  0.19093253943E+04  0.19093253943E+04  0.00000000000E+00 0. -1.
         21   -1    0    0  502  503 -0.00000000000E+00 -0.00000000000E+00 -0.41502662389E+03  0.41502662389E+03  0.00000000000E+00 0. -1.
         -6    2    1    2    0  503 -0.39469969476E+03 -0.30908657915E+03  0.16810578656E+04  0.17627286521E+04  0.17301558005E+03 0.  0.
        -24    2    3    3    0    0 -0.21298240797E+03 -0.20704230937E+03  0.11947223181E+04  0.12335986491E+04  0.78588712196E+02 0.  0.
          6    2    1    2  501    0  0.39469969476E+03  0.30908657915E+03 -0.18675909520E+03  0.56162336608E+03  0.17093707391E+03 0.  0.
         24    2    5    5    0    0  0.33941921045E+03  0.18994949020E+03 -0.11545545340E+03  0.41210454706E+03  0.72207940950E+02 0.  0.
          5    1    5    5  501    0  0.55280484311E+02  0.11913708894E+03 -0.71303641806E+02  0.14951881902E+03  0.47000000000E+01 0. -1.
        -11    1    6    6    0    0  0.15046327716E+03  0.44422774195E+02 -0.52499028615E+02  0.16543496803E+03  0.00000000000E+00 0.  1.
         12    1    6    6    0    0  0.18895593329E+03  0.14552671601E+03 -0.62956424783E+02  0.24666957903E+03  0.00000000000E+00 0. -1.
         -5    1    3    3    0  503 -0.18171728679E+03 -0.10204426978E+03  0.48633554746E+03  0.52913000296E+03  0.47000000000E+01 0.  1.
         13    1    4    4    0    0 -0.50529811326E+02 -0.69528870777E+02  0.22652891813E+03  0.24228676492E+03  0.00000000000E+00 0. -1.
        -14    1    4    4    0    0 -0.16245259664E+03 -0.13751343859E+03  0.96819339999E+03  0.99131188419E+03  0.00000000000E+00 0.  1.
</event>
<event>
12    1  0.1061634E+000  0.2352097E+03  0.7818608E-02  0.1123126E+00
         21   -1    0    0  503  502  0.00000000000E+00  0.00000000000E+00  0.18715025837E+04  0.18715025837E+04  0.00000000000E+00 0. -1.
         21   -1    0    0  501  503 -0.00000000000E+00 -0.00000000000E+00 -0.13986761697E+03  0.13986761697E+03  0.00000000000E+00 0. -1.
          6    2    1    2  501    0 -0.57254600349E+02  0.14921121640E+03  0.17594521458E+04  0.17751043541E+04  0.17257328359E+03 0.  0.
         24    2    3    3    0    0  0.33756281974E+02  0.82220318732E+02  0.10870033185E+04  0.10932097314E+04  0.75044220945E+02 0.  0.
         -6    2    1    2    0  502  0.57254600349E+02 -0.14921121640E+03 -0.27817179061E+02  0.23626584658E+03  0.17177217018E+03 0.  0.
        -24    2    5    5    0    0  0.47105452753E+02 -0.10376692244E+03 -0.84576845632E+02  0.16269996590E+03  0.79570963400E+02 0.  0.
          5    1    3    3  501    0 -0.91010882324E+02  0.66990897671E+02  0.67244882731E+03  0.68189462267E+03  0.47000000000E+01 0. -1.
        -11    1    4    4    0    0  0.18965849563E+02  0.54746903320E+02  0.98100651041E+03  0.98271598152E+03  0.00000000000E+00 0.  1.
         12    1    4    4    0    0  0.14790432411E+02  0.27473415412E+02  0.10599680809E+03  0.11049374992E+03  0.00000000000E+00 0. -1.
         -5    1    5    5    0  502  0.10149147597E+02 -0.45444293968E+02  0.56759666572E+02  0.73565880682E+02  0.47000000000E+01 0.  1.
         13    1    6    6    0    0  0.29321113708E+01 -0.14908231286E+02  0.15542527771E+02  0.21735289432E+02  0.00000000000E+00 0. -1.
        -14    1    6    6    0    0  0.44173341382E+02 -0.88858691150E+02 -0.10011937340E+03  0.14096467647E+03  0.00000000000E+00 0.  1.
</event>
<event>
12    1  0.1061634E+000  0.2694341E+03  0.7818608E-02  0.1101706E+00
         21   -1    0    0  503  502  0.00000000000E+00  0.00000000000E+00  0.17513057700E+03  0.17513057700E+03  0.00000000000E+00 0.  1.
         21   -1    0    0  501  503 -0.00000000000E+00 -0.00000000000E+00 -0.50062548679E+03  0.50062548679E+03  0.00000000000E+00 0. -1.
          6    2    1    2  501    0 -0.12534067837E+03  0.16383046333E+03 -0.21908566048E+02  0.27032331212E+03  0.17333205542E+03 0.  0.
         24    2    3    3    0    0 -0.11073350295E+03  0.53983178586E+02 -0.52159551444E+02  0.15535806668E+03  0.78989985638E+02 0.  0.
         -6    2    1    2    0  502  0.12534067837E+03 -0.16383046333E+03 -0.30358634374E+03  0.40543275167E+03  0.17222178042E+03 0.  0.
        -24    2    5    5    0    0  0.69259958704E+02 -0.10600678887E+03 -0.28606303425E+03  0.32286289747E+03  0.79837396221E+02 0.  0.
          5    1    3    3  501    0 -0.14607175428E+02  0.10984728475E+03  0.30250985395E+02  0.11496524544E+03  0.47000000000E+01 0. -1.
        -13    1    4    4    0    0  0.61907591210E+01  0.82281235510E+01 -0.24801511125E+02  0.26854095959E+02  0.00000000000E+00 0.  1.
         14    1    4    4    0    0 -0.11692426207E+03  0.45755055035E+02 -0.27358040318E+02  0.12850397072E+03  0.00000000000E+00 0. -1.
         -5    1    5    5    0  502  0.56080719671E+02 -0.57823674463E+02 -0.17523309496E+02  0.82569854201E+02  0.47000000000E+01 0.  1.
         13    1    6    6    0    0  0.84448543757E+02 -0.68209988288E+02 -0.19707817928E+03  0.22499770619E+03  0.00000000000E+00 0. -1.
        -14    1    6    6    0    0 -0.15188585052E+02 -0.37796800584E+02 -0.88984854970E+02  0.97865191280E+02  0.00000000000E+00 0.  1.
</event>
<event>
12    1  0.1061634E+000  0.2456983E+03  0.7818608E-02  0.1116251E+00
         21   -1    0    0  503  502  0.00000000000E+00  0.00000000000E+00  0.43348972900E+02  0.43348972900E+02  0.00000000000E+00 0. -1.
         21   -1    0    0  501  503 -0.00000000000E+00 -0.00000000000E+00 -0.17102725649E+04  0.17102725649E+04  0.00000000000E+00 0.  1.
          6    2    1    2  501    0  0.62604090195E+02  0.16494799826E+03 -0.45317285342E+03  0.51549326457E+03  0.17099870323E+03 0.  0.
         24    2    3    3    0    0 -0.15087221148E+02  0.15588864267E+02 -0.16316162316E+03  0.18012377514E+03  0.73158883046E+02 0.  0.
         -6    2    1    2    0  502 -0.62604090195E+02 -0.16494799826E+03 -0.12137507385E+04  0.12381282732E+04  0.16924435386E+03 0.  0.
        -24    2    5    5    0    0  0.19777625201E+02 -0.10890704156E+03 -0.85152399550E+03  0.86241875875E+03  0.80131781338E+02 0.  0.
          5    1    3    3  501    0  0.77691311343E+02  0.14935913399E+03 -0.29001123026E+03  0.33536948943E+03  0.47000000000E+01 0. -1.
        -13    1    4    4    0    0  0.25128062997E+02  0.10067065219E+02 -0.10974142145E+03  0.11303072562E+03  0.00000000000E+00 0.  1.
         14    1    4    4    0    0 -0.40215284145E+02  0.55217990475E+01 -0.53420201705E+02  0.67093049519E+02  0.00000000000E+00 0. -1.
         -5    1    5    5    0  502 -0.82381715396E+02 -0.56040956703E+02 -0.36222674305E+03  0.37570951444E+03  0.47000000000E+01 0.  1.
         13    1    6    6    0    0 -0.86414286408E+01 -0.49073027529E+01 -0.10293655627E+02  0.14307873896E+02  0.00000000000E+00 0. -1.
        -14    1    6    6    0    0  0.28419053842E+02 -0.10399973880E+03 -0.84123033987E+03  0.84811088485E+03  0.00000000000E+00 0.  1.
</event>
<event>
12    1  0.1061634E+000  0.4206784E+03  0.7818608E-02  0.1036861E+00
         21   -1    0    0  501  502  0.00000000000E+00  0.00000000000E+00  0.12874940991E+03  0.12874940991E+03  0.00000000000E+00 0. -1.
         21   -1    0    0  502  503 -0.00000000000E+00 -0.00000000000E+00 -0.14757519782E+04  0.14757519782E+04  0.00000000000E+00 0. -1.
         -6    2    1    2    0  503  0.18133084578E+03  0.33845440338E+03 -0.88440520446E+03  0.97935841157E+03  0.17186644186E+03 0.  0.
        -24    2    3    3    0    0  0.33770221426E+02  0.97566206466E+02 -0.37086303212E+03  0.39322795336E+03  0.80182555513E+02 0.  0.
          6    2    1    2  501    0 -0.18133084578E+03 -0.33845440338E+03 -0.46259736386E+03  0.62514297658E+03  0.17139183561E+03 0.  0.
         24    2    5    5    0    0 -0.28784989353E+02 -0.16934879883E+03 -0.16412837634E+03  0.24967956915E+03  0.76773511416E+02 0.  0.
          5    1    5    5  501    0 -0.15254585643E+03 -0.16910560456E+03 -0.29846898752E+03  0.37546340743E+03  0.47000000000E+01 0. -1.
        -11    1    6    6    0    0 -0.10597636475E+02 -0.52854705962E+02 -0.10442932878E+03  0.11752197475E+03  0.00000000000E+00 0.  1.
         12    1    6    6    0    0 -0.18187352878E+02 -0.11649409286E+03 -0.59699047565E+02  0.13215759440E+03  0.00000000000E+00 0. -1.
         -5    1    3    3    0  503  0.14756062435E+03  0.24088819692E+03 -0.51354217234E+03  0.58613045821E+03  0.47000000000E+01 0.  1.
         13    1    4    4    0    0  0.42488741466E+02  0.16125178830E+02 -0.92437500622E+02  0.10300488369E+03  0.00000000000E+00 0. -1.
        -14    1    4    4    0    0 -0.87185200408E+01  0.81441027635E+02 -0.27842553150E+03  0.29022306967E+03  0.00000000000E+00 0.  1.
</event>
<event>
12    1  0.1061634E+000  0.3074640E+03  0.7818608E-02  0.1082135E+00
         21   -1    0    0  501  502  0.00000000000E+00  0.00000000000E+00  0.75285995560E+02  0.75285995560E+02  0.00000000000E+00 0. -1.
         21   -1    0    0  502  503 -0.00000000000E+00 -0.00000000000E+00 -0.16134246130E+04  0.16134246130E+04  0.00000000000E+00 0. -1.
         -6    2    1    2    0  503  0.22702794247E+03 -0.11494506712E+03 -0.11725388351E+04  0.12110105838E+04  0.16415011122E+03 0.  0.
        -24    2    3    3    0    0  0.24320769870E+03 -0.85153535579E+02 -0.10157080809E+04  0.10504886372E+04  0.73907793472E+02 0.  0.
          6    2    1    2  501    0 -0.22702794247E+03  0.11494506712E+03 -0.36559978234E+03  0.47770002481E+03  0.17256899414E+03 0.  0.
         24    2    5    5    0    0 -0.24897818766E+03  0.10732919480E+03 -0.33214433367E+03  0.43669792949E+03  0.82918811182E+02 0.  0.
          5    1    5    5  501    0  0.21950245185E+02  0.76158723269E+01 -0.33455448666E+02  0.41002095318E+02  0.47000000000E+01 0. -1.
        -11    1    6    6    0    0 -0.20170997376E+03  0.11433577824E+03 -0.24504949153E+03  0.33735565357E+03  0.00000000000E+00 0.  1.
         12    1    6    6    0    0 -0.47268213901E+02 -0.70065834456E+01 -0.87094842142E+02  0.99342275918E+02  0.00000000000E+00 0. -1.
         -5    1    3    3    0  503 -0.16179756222E+02 -0.29791531545E+02 -0.15683075427E+03  0.16052194663E+03  0.47000000000E+01 0.  1.
         13    1    4    4    0    0  0.60963999039E+02 -0.77763127411E+01 -0.37126454035E+03  0.37631693975E+03  0.00000000000E+00 0. -1.
        -14    1    4    4    0    0  0.18224369966E+03 -0.77377222838E+02 -0.64444354051E+03  0.67417169741E+03  0.00000000000E+00 0.  1.
</event>
<event>
12    1  0.1061634E+000  0.2673950E+03  0.7818608E-02  0.1103680E+00
         21   -1    0    0  501  502  0.00000000000E+00  0.00000000000E+00  0.41279158204E+03  0.41279158204E+03  0.00000000000E+00 0.  1.
         21   -1    0    0  502  503 -0.00000000000E+00 -0.00000000000E+00 -0.16985595382E+03  0.16985595382E+03  0.00000000000E+00 0.  1.
         -6    2    1    2    0  503  0.60112051160E+02 -0.19432597458E+03  0.13730575777E+03  0.29514488692E+03  0.16395606139E+03 0.  0.
        -24    2    3    3    0    0  0.95684804532E+02 -0.12716354569E+03  0.12672400480E+03  0.21826656662E+03  0.79089642428E+02 0.  0.
          6    2    1    2  501    0 -0.60112051160E+02  0.19432597458E+03  0.10562987045E+03  0.28750264893E+03  0.17356284314E+03 0.  0.
         24    2    5    5    0    0 -0.10016198455E+03  0.11867861904E+03  0.25876301833E+02  0.17041617972E+03  0.65230771478E+02 0.  0.
          5    1    5    5  501    0  0.40049933388E+02  0.75647355549E+02  0.79753568620E+02  0.11708646922E+03  0.47000000000E+01 0. -1.
        -11    1    6    6    0    0 -0.62571068143E+02  0.67792915343E+02  0.47233491629E+02  0.10364371988E+03  0.00000000000E+00 0.  1.
         12    1    6    6    0    0 -0.37590916406E+02  0.50885703694E+02 -0.21357189796E+02  0.66772459836E+02  0.00000000000E+00 0. -1.
         -5    1    3    3    0  503 -0.35572753372E+02 -0.67162428893E+02  0.10581752975E+02  0.76878320307E+02  0.47000000000E+01 0.  1.
         11    1    4    4    0    0  0.60126103841E+01 -0.68781438085E+02  0.35395054783E+02  0.77587676933E+02  0.00000000000E+00 0. -1.
        -12    1    4    4    0    0  0.89672194148E+02 -0.58382107606E+02  0.91328950013E+02  0.14067888968E+03  0.00000000000E+00 0.  1.
</event>
<event>
12    1  0.1061634E+000  0.4108220E+03  0.7818608E-02  0.1040102E+00
         21   -1    0    0  503  502  0.00000000000E+00  0.00000000000E+00  0.17357774936E+03  0.17357774936E+03  0.00000000000E+00 0. -1.
         21   -1    0    0  501  503 -0.00000000000E+00 -0.00000000000E+00 -0.97227235897E+03  0.97227235897E+03  0.00000000000E+00 0. -1.
          6    2    1    2  501    0 -0.36998044441E+03  0.46865782728E+02 -0.40577082220E+03  0.57742934130E+03  0.17231585306E+03 0.  0.
         24    2    3    3    0    0 -0.24848901004E+03  0.12419901890E+02 -0.35651206722E+03  0.44180042745E+03  0.78649358210E+02 0.  0.
         -6    2    1    2    0  502  0.36998044441E+03 -0.46865782728E+02 -0.39292378740E+03  0.56842076703E+03  0.17213696538E+03 0.  0.
        -24    2    5    5    0    0  0.26869166277E+03  0.19736806536E+02 -0.21922466655E+03  0.35655100333E+03  0.80525849155E+02 0.  0.
          5    1    3    3  501    0 -0.12149143436E+03  0.34445880838E+02 -0.49258754978E+02  0.13562891385E+03  0.47000000000E+01 0. -1.
        -13    1    4    4    0    0 -0.68473059589E+02  0.36126410743E+02 -0.82950089473E+02  0.11346539026E+03  0.00000000000E+00 0.  1.
         14    1    4    4    0    0 -0.18001595045E+03 -0.23706508853E+02 -0.27356197775E+03  0.32833503719E+03  0.00000000000E+00 0. -1.
         -5    1    5    5    0  502  0.10128878164E+03 -0.66602589264E+02 -0.17369912086E+03  0.21186976370E+03  0.47000000000E+01 0.  1.
         11    1    6    6    0    0  0.13246716809E+03  0.49145006574E+02 -0.12140507586E+03  0.18628466050E+03  0.00000000000E+00 0. -1.
        -12    1    6    6    0    0  0.13622449468E+03 -0.29408200038E+02 -0.97819590682E+02  0.17026634283E+03  0.00000000000E+00 0.  1.
</event>
<event>
12    1  0.1061634E+000  0.1954221E+03  0.7818608E-02  0.1153714E+00
         21   -1    0    0  501  502  0.00000000000E+00  0.00000000000E+00  0.91535236540E+03  0.91535236540E+03  0.00000000000E+00 0.  1.
         21   -1    0    0  502  503 -0.00000000000E+00 -0.00000000000E+00 -0.43785814460E+02  0.43785814460E+02  0.00000000000E+00 0.  1.
         -6    2    1    2    0  503  0.85799410729E+02 -0.35703016712E+02  0.33005992143E+03  0.38344794974E+03  0.17162905973E+03 0.  0.
        -24    2    3    3    0    0 -0.15792965274E+02 -0.41085010402E+02  0.14224891159E+03  0.16980094617E+03  0.81610125844E+02 0.  0.
          6    2    1    2  501    0 -0.85799410729E+02  0.35703016712E+02  0.54150662951E+03  0.57569023012E+03  0.17191150911E+03 0.  0.
         24    2    5    5    0    0 -0.25451658351E+01  0.68801826255E+02  0.27766672312E+03  0.29701409786E+03  0.79864861075E+02 0.  0.
          5    1    5    5  501    0 -0.83254244894E+02 -0.33098809543E+02  0.26383990639E+03  0.27867613226E+03  0.47000000000E+01 0. -1.
        -11    1    6    6    0    0 -0.67509352187E+01 -0.17425772124E+02  0.60371629132E+02  0.63197834333E+02  0.00000000000E+00 0.  1.
         12    1    6    6    0    0  0.42057693836E+01  0.86227598379E+02  0.21729509399E+03  0.23381626352E+03  0.00000000000E+00 0. -1.
         -5    1    3    3    0  503  0.10159237600E+03  0.53819936899E+01  0.18781100984E+03  0.21364700357E+03  0.47000000000E+01 0.  1.
         13    1    4    4    0    0  0.24879289450E+02  0.36102044127E+01  0.15905294940E+02  0.29748798741E+02  0.00000000000E+00 0. -1.
        -14    1    4    4    0    0 -0.40672254723E+02 -0.44695214814E+02  0.12634361665E+03  0.14005214743E+03  0.00000000000E+00 0.  1.
</event>
<event>
12    1  0.1270418E+000  0.2042632E+03  0.7818608E-02  0.1146967E+00
         21   -1    0    0  501  502  0.00000000000E+00  0.00000000000E+00  0.12611416668E+03  0.12611416668E+03  0.00000000000E+00 0.  1.
         21   -1    0    0  502  503 -0.00000000000E+00 -0.00000000000E+00 -0.80643592901E+03  0.80643592901E+03  0.00000000000E+00 0.  1.
         -6    2    1    2    0  503 -0.82163299793E+01  0.10370635781E+03  0.18908393450E+02  0.20513647307E+03  0.17578659935E+03 0.  0.
        -24    2    3    3    0    0  0.32810956821E+02  0.48081794357E+02  0.73295031200E+02  0.11706078580E+03  0.70303969567E+02 0.  0.
          6    2    1    2  501    0  0.82163299793E+01 -0.10370635781E+03 -0.69923015578E+03  0.72741362262E+03  0.17142126731E+03 0.  0.
         24    2    5    5    0    0 -0.30075349948E+01  0.10322915819E+02 -0.20837859323E+03  0.22334418608E+03  0.79657890268E+02 0.  0.
          5    1    5    5  501    0  0.11223864974E+02 -0.11402927363E+03 -0.49085156256E+03  0.50406943654E+03  0.47000000000E+01 0. -1.
        -13    1    6    6    0    0 -0.29628386705E+01 -0.13172760597E+02  0.14343486539E+00  0.13502614869E+02  0.00000000000E+00 0.  1.
         14    1    6    6    0    0 -0.44696324312E-01  0.23495676416E+02 -0.20852202809E+03  0.20984157121E+03  0.00000000000E+00 0. -1.
         -5    1    3    3    0  503 -0.41027286800E+02  0.55624563455E+02 -0.54386637751E+02  0.88075687267E+02  0.47000000000E+01 0.  1.
         11    1    4    4    0    0 -0.11133623864E+02  0.41986702001E+02  0.20301205311E+02  0.47947676297E+02  0.00000000000E+00 0. -1.
        -12    1    4    4    0    0  0.43944580685E+02  0.60950923561E+01  0.52993825889E+02  0.69113109501E+02  0.00000000000E+00 0.  1.
</event>
<event>
12    1  0.1061634E+000  0.3283945E+03  0.7818608E-02  0.1072049E+00
         21   -1    0    0  501  502  0.00000000000E+00  0.00000000000E+00  0.11385280991E+03  0.11385280991E+03  0.00000000000E+00 0. -1.
         21   -1    0    0  502  503 -0.00000000000E+00 -0.00000000000E+00 -0.94728199768E+03  0.94728199768E+03  0.00000000000E+00 0. -1.
         -6    2    1    2    0  503  0.22365701155E+03 -0.16571839013E+03 -0.45721098547E+03  0.56292524870E+03  0.17423520523E+03 0.  0.
        -24    2    3    3    0    0  0.86208350224E+02 -0.81787711368E+01 -0.14781423709E+03  0.18948274448E+03  0.80968449541E+02 0.  0.
          6    2    1    2  501    0 -0.22365701155E+03  0.16571839013E+03 -0.37621820229E+03  0.49820955889E+03  0.17084374496E+03 0.  0.
         24    2    5    5    0    0 -0.80797925603E+02  0.35602098440E+02 -0.78438381570E+02  0.14319705287E+03  0.80975317553E+02 0.  0.
          5    1    5    5  501    0 -0.14285908595E+03  0.13011629169E+03 -0.29777982072E+03  0.35501250602E+03  0.47000000000E+01 0. -1.
        -13    1    6    6    0    0 -0.69813108352E+02  0.44611781991E+02 -0.91825076646E+02  0.12367669906E+03  0.00000000000E+00 0.  1.
         14    1    6    6    0    0 -0.10984817252E+02 -0.90096835505E+01  0.13386695077E+02  0.19520353809E+02  0.00000000000E+00 0. -1.
         -5    1    3    3    0  503  0.13744866133E+03 -0.15753961899E+03 -0.30939674838E+03  0.37344250422E+03  0.47000000000E+01 0.  1.
         13    1    4    4    0    0  0.31823584119E+01 -0.55718993913E+01 -0.85248271345E+02  0.85489421773E+02  0.00000000000E+00 0. -1.
        -14    1    4    4    0    0  0.83025991812E+02 -0.26068717456E+01 -0.62565965748E+02  0.10399332270E+03  0.00000000000E+00 0.  1.
</event>
<event>
12    1  0.1061634E+000  0.2312892E+03  0.7818608E-02  0.1125952E+00
         21   -1    0    0  503  502  0.00000000000E+00  0.00000000000E+00  0.11145452286E+03  0.11145452286E+03  0.00000000000E+00 0.  1.
         21   -1    0    0  501  503 -0.00000000000E+00 -0.00000000000E+00 -0.11611902016E+04  0.11611902016E+04  0.00000000000E+00 0.  1.
          6    2    1    2  501    0 -0.45409893677E+00 -0.15227733277E+03 -0.10125857962E+04  0.10383910102E+04  0.17244507273E+03 0.  0.
         24    2    3    3    0    0  0.45382575694E+02 -0.79022749328E+02 -0.79766415441E+03  0.80670018853E+03  0.78695094213E+02 0.  0.
         -6    2    1    2    0  502  0.45409893677E+00  0.15227733277E+03 -0.37149882461E+02  0.23425371419E+03  0.17408646290E+03 0.  0.
        -24    2    5    5    0    0 -0.18874212764E+02  0.14955098357E+02 -0.11963930484E+02  0.93231014336E+02  0.89269230574E+02 0.  0.
          5    1    3    3  501    0 -0.45836674630E+02 -0.73254583443E+02 -0.21492164184E+03  0.23169082171E+03  0.47000000000E+01 0. -1.
        -13    1    4    4    0    0  0.36886349670E+02  0.34623136575E+01 -0.27905939309E+03  0.28150796664E+03  0.00000000000E+00 0.  1.
         14    1    4    4    0    0  0.84962260237E+01 -0.82485062985E+02 -0.51860476131E+03  0.52519222189E+03  0.00000000000E+00 0. -1.
         -5    1    5    5    0  502  0.19328311701E+02  0.13732223441E+03 -0.25185951977E+02  0.14102269986E+03  0.47000000000E+01 0.  1.
         11    1    6    6    0    0 -0.33505767384E+02  0.36084122926E+02 -0.33619228592E+02  0.59623425819E+02  0.00000000000E+00 0. -1.
        -12    1    6    6    0    0  0.14631554620E+02 -0.21129024568E+02  0.21655298108E+02  0.33607588517E+02  0.00000000000E+00 0.  1.
</event>
<event>
12    1  0.1061634E+000  0.8707341E+03  0.7818608E-02  0.9463330E-01
         21   -1    0    0  501  502  0.00000000000E+00  0.00000000000E+00  0.55472216873E+03  0.55472216873E+03  0.00000000000E+00 0.  1.
         21   -1    0    0  502  503 -0.00000000000E+00 -0.00000000000E+00 -0.16093076808E+04  0.16093076808E+04  0.00000000000E+00 0.  1.
         -6    2    1    2    0  503  0.81190953230E+03  0.25967694083E+03 -0.10586963872E+03  0.87714663780E+03  0.17761937269E+03 0.  0.
        -24    2    3    3    0    0  0.68162596553E+03  0.15488650806E+03 -0.82869979902E+02  0.70830968426E+03  0.78939141090E+02 0.  0.
          6    2    1    2  501    0 -0.81190953230E+03 -0.25967694083E+03 -0.94871587337E+03  0.12868832118E+04  0.17139833742E+03 0.  0.
         24    2    5    5    0    0 -0.72453783513E+03 -0.20659996326E+03 -0.89059263110E+03  0.11691913246E+04  0.78832097190E+02 0.  0.
          5    1    5    5  501    0 -0.87371697172E+02 -0.53076977569E+02 -0.58123242265E+02  0.11769188717E+03  0.47000000000E+01 0. -1.
        -11    1    6    6    0    0 -0.67095239592E+03 -0.17433525853E+03 -0.79317069257E+03  0.10534180782E+04  0.00000000000E+00 0.  1.
         12    1    6    6    0    0 -0.53585439213E+02 -0.32264704735E+02 -0.97421938537E+02  0.11577324637E+03  0.00000000000E+00 0. -1.
         -5    1    3    3    0  503  0.13028356678E+03  0.10479043278E+03 -0.22999658818E+02  0.16883695354E+03  0.47000000000E+01 0.  1.
         13    1    4    4    0    0  0.24570930481E+03  0.92846582638E+02 -0.43498447076E+02  0.26624362016E+03  0.00000000000E+00 0. -1.
        -14    1    4    4    0    0  0.43591666071E+03  0.62039925419E+02 -0.39371532826E+02  0.44206606410E+03  0.00000000000E+00 0.  1.
</event>
<event>
12    1  0.1061634E+000  0.2645352E+03  0.7818608E-02  0.1104454E+00
         21   -1    0    0  503  502  0.00000000000E+00  0.00000000000E+00  0.60669792628E+02  0.60669792628E+02  0.00000000000E+00 0.  1.
         21   -1    0    0  501  503 -0.00000000000E+00 -0.00000000000E+00 -0.14241733823E+04  0.14241733823E+04  0.00000000000E+00 0.  1.
          6    2    1    2  501    0 -0.77227365419E+02 -0.18547323467E+03 -0.10055096543E+04  0.10397156065E+04  0.17203049344E+03 0.  0.
         24    2    3    3    0    0  0.17882550355E+02 -0.48836613767E+02 -0.27350879710E+03  0.28900740270E+03  0.77546220231E+02 0.  0.
         -6    2    1    2    0  502  0.77227365419E+02  0.18547323467E+03 -0.35799393531E+03  0.44512756841E+03  0.17208866230E+03 0.  0.
        -24    2    5    5    0    0  0.35391075744E+02  0.16416114165E+02 -0.14488793123E+03  0.16986979086E+03  0.79631753615E+02 0.  0.
          5    1    3    3  501    0 -0.95109915774E+02 -0.13663662090E+03 -0.73200085722E+03  0.75070820378E+03  0.47000000000E+01 0. -1.
        -13    1    4    4    0    0 -0.29899893213E+01 -0.59485620786E+02 -0.24484254998E+03  0.25198284346E+03  0.00000000000E+00 0.  1.
         14    1    4    4    0    0  0.20872539676E+02  0.10649007019E+02 -0.28666247122E+02  0.37024559242E+02  0.00000000000E+00 0. -1.
         -5    1    5    5    0  502  0.41836289675E+02  0.16905712050E+03 -0.21310600408E+03  0.27525777755E+03  0.47000000000E+01 0.  1.
         13    1    6    6    0    0  0.33719858698E+02  0.20714057253E+02 -0.15435072243E+03  0.15934317229E+03  0.00000000000E+00 0. -1.
        -14    1    6    6    0    0  0.16712170463E+01 -0.42979430873E+01  0.94627912040E+01  0.10526618572E+02  0.00000000000E+00 0.  1.
</event>
<event>
12    1  0.1061634E+000  0.2075396E+03  0.7818608E-02  0.1143616E+00
         21   -1    0    0  501  502  0.00000000000E+00  0.00000000000E+00  0.21060193912E+03  0.21060193912E+03  0.00000000000E+00 0.  1.
         21   -1    0    0  502  503 -0.00000000000E+00 -0.00000000000E+00 -0.30650165666E+03  0.30650165666E+03  0.00000000000E+00 0.  1.
         -6    2    1    2    0  503 -0.11415238002E+03 -0.24839667344E+02 -0.19743076134E+03  0.28644649643E+03  0.17153691980E+03 0.  0.
        -24    2    3    3    0    0 -0.15931045934E+02  0.37542309357E+02 -0.10022209522E+03  0.13475418859E+03  0.80318115991E+02 0.  0.
          6    2    1    2  501    0  0.11415238002E+03  0.24839667344E+02  0.10153104381E+03  0.23065709935E+03  0.17101570012E+03 0.  0.
         24    2    5    5    0    0  0.22380480027E+02  0.66098957292E+02  0.45394113523E+02  0.11534077103E+03  0.79830507192E+02 0.  0.
          5    1    5    5  501    0  0.91771899996E+02 -0.41259289948E+02  0.56136930283E+02  0.11531632832E+03  0.47000000000E+01 0. -1.
        -11    1    6    6    0    0  0.51064819192E+01  0.11446227117E+02 -0.22946107059E+02  0.26146053278E+02  0.00000000000E+00 0.  1.
         12    1    6    6    0    0  0.17273998108E+02  0.54652730175E+02  0.68340220582E+02  0.89194717755E+02  0.00000000000E+00 0. -1.
         -5    1    3    3    0  503 -0.98221334089E+02 -0.62381976701E+02 -0.97208666117E+02  0.15169230783E+03  0.47000000000E+01 0.  1.
         11    1    4    4    0    0 -0.10922063780E+02 -0.21719124512E+02 -0.91344981559E+01  0.25970192594E+02  0.00000000000E+00 0. -1.
        -12    1    4    4    0    0 -0.50089821541E+01  0.59261433869E+02 -0.91087597065E+02  0.10878399600E+03  0.00000000000E+00 0.  1.
</event>
<event>
12    1  0.1061634E+000  0.2182020E+03  0.7818608E-02  0.1138847E+00
         21   -1    0    0  501  502  0.00000000000E+00  0.00000000000E+00  0.25333309236E+03  0.25333309236E+03  0.00000000000E+00 0. -1.
         21   -1    0    0  502  503 -0.00000000000E+00 -0.00000000000E+00 -0.35532897789E+03  0.35532897789E+03  0.00000000000E+00 0. -1.
         -6    2    1    2    0  503  0.70813063155E+02  0.71689870873E+02  0.16611903907E+03  0.27424010409E+03  0.19354113788E+03 0.  0.
        -24    2    3    3    0    0  0.53497186214E+02 -0.37199459044E+02  0.10550563175E+03  0.14833219762E+03  0.81395662261E+02 0.  0.
          6    2    1    2  501    0 -0.70813063155E+02 -0.71689870873E+02 -0.26811492460E+03  0.33442196616E+03  0.17262245265E+03 0.  0.
         24    2    5    5    0    0 -0.57242048223E+02  0.19660071796E+02 -0.99016762128E+02  0.14169090218E+03  0.81294662008E+02 0.  0.
          5    1    5    5  501    0 -0.13571014932E+02 -0.91349942668E+02 -0.16909816247E+03  0.19273106398E+03  0.47000000000E+01 0. -1.
        -13    1    6    6    0    0  0.40953672562E+01  0.17543963521E+02  0.68880683691E+01  0.19287513444E+02  0.00000000000E+00 0.  1.
         14    1    6    6    0    0 -0.61337415479E+02  0.21161082751E+01 -0.10590483050E+03  0.12240338874E+03  0.00000000000E+00 0. -1.
         -5    1    3    3    0  503  0.17315876941E+02  0.10888932992E+03  0.60613407320E+02  0.12590790647E+03  0.47000000000E+01 0.  1.
         11    1    4    4    0    0 -0.15407544792E+02  0.11082187594E+02  0.28718700283E+02  0.34423408668E+02  0.00000000000E+00 0. -1.
        -12    1    4    4    0    0  0.68904731006E+02 -0.48281646638E+02  0.76786931463E+02  0.11390878895E+03  0.00000000000E+00 0.  1.
</event>
<event>
12    1  0.1061634E+000  0.2384105E+03  0.7818608E-02  0.1122743E+00
         21   -1    0    0  501  502  0.00000000000E+00  0.00000000000E+00  0.15386004535E+03  0.15386004535E+03  0.00000000000E+00 0. -1.
         21   -1    0    0  502  503 -0.00000000000E+00 -0.00000000000E+00 -0.38276283959E+03  0.38276283959E+03  0.00000000000E+00 0. -1.
         -6    2    1    2    0  503  0.14023568915E+03  0.83489108295E+02 -0.36728438693E+02  0.23040310887E+03  0.15843022013E+03 0.  0.
        -24    2    3    3    0    0  0.40711897789E+02 -0.17667017292E+01 -0.43470893120E+02  0.99097781932E+02  0.79183786084E+02 0.  0.
          6    2    1    2  501    0 -0.14023568915E+03 -0.83489108295E+02 -0.19217435555E+03  0.30621977607E+03  0.17379035822E+03 0.  0.
         24    2    5    5    0    0 -0.52290216924E+02  0.26053341801E+02 -0.87530161974E+02  0.13098721144E+03  0.77994082466E+02 0.  0.
          5    1    5    5  501    0 -0.87945472226E+02 -0.10954245010E+03 -0.10464419358E+03  0.17523256463E+03  0.47000000000E+01 0. -1.
        -11    1    6    6    0    0 -0.63612537152E+02 -0.23666291202E+01 -0.73783576873E+02  0.97448304411E+02  0.00000000000E+00 0.  1.
         12    1    6    6    0    0  0.11322320228E+02  0.28419970922E+02 -0.13746585101E+02  0.33538907026E+02  0.00000000000E+00 0. -1.
         -5    1    3    3    0  503  0.99523791361E+02  0.85255810024E+02  0.67424544272E+01  0.13130532693E+03  0.47000000000E+01 0.  1.
         11    1    4    4    0    0  0.42933785030E+02  0.30549513838E+02 -0.40710742377E+02  0.66587891074E+02  0.00000000000E+00 0. -1.
        -12    1    4    4    0    0 -0.22218872409E+01 -0.32316215567E+02 -0.27601507428E+01  0.32509890859E+02  0.00000000000E+00 0.  1.
</event>
<event>
12    1  0.1061634E+000  0.2024132E+03  0.7818608E-02  0.1147863E+00
         21   -1    0    0  501  502  0.00000000000E+00  0.00000000000E+00  0.14834838918E+04  0.14834838918E+04  0.00000000000E+00 0.  1.
         21   -1    0    0  502  503 -0.00000000000E+00 -0.00000000000E+00 -0.41949734826E+02  0.41949734826E+02  0.00000000000E+00 0.  1.
         -6    2    1    2    0  503  0.54409698005E+02 -0.91074988904E+02  0.11688548455E+04  0.11862515536E+04  0.17238337985E+03 0.  0.
        -24    2    3    3    0    0 -0.33782922809E+02 -0.69508305761E+02  0.59776368344E+03  0.60796938579E+03  0.79578026946E+02 0.  0.
          6    2    1    2  501    0 -0.54409698005E+02  0.91074988904E+02  0.27267931144E+03  0.33918207303E+03  0.17156748799E+03 0.  0.
         24    2    5    5    0    0 -0.59494791350E+02  0.10520590259E+03  0.12817004642E+03  0.19381853368E+03  0.80809350072E+02 0.  0.
          5    1    5    5  501    0  0.50850933448E+01 -0.14130913687E+02  0.14450926502E+03  0.14536353935E+03  0.47000000000E+01 0. -1.
        -11    1    6    6    0    0 -0.55992924021E+02  0.28665206359E+02  0.31157733373E+02  0.70197620650E+02  0.00000000000E+00 0.  1.
         12    1    6    6    0    0 -0.35018673290E+01  0.76540696232E+02  0.97012313048E+02  0.12362091303E+03  0.00000000000E+00 0. -1.
         -5    1    3    3    0  503  0.88192620814E+02 -0.21566683143E+02  0.57109116207E+03  0.57828216779E+03  0.47000000000E+01 0.  1.
         13    1    4    4    0    0 -0.75224545215E+01  0.12955557024E+02  0.28821074182E+02  0.32482119648E+02  0.00000000000E+00 0. -1.
        -14    1    4    4    0    0 -0.26260468287E+02 -0.82463862785E+02  0.56894260926E+03  0.57548726614E+03  0.00000000000E+00 0.  1.
</event>
<event>
12    1  0.1061634E+000  0.4303384E+03  0.7818608E-02  0.1033873E+00
         21   -1    0    0  503  502  0.00000000000E+00  0.00000000000E+00  0.26329698636E+03  0.26329698636E+03  0.00000000000E+00 0. -1.
         21   -1    0    0  501  503 -0.00000000000E+00 -0.00000000000E+00 -0.70379672637E+03  0.70379672637E+03  0.00000000000E+00 0. -1.
          6    2    1    2  501    0 -0.23850619276E+03 -0.31191661070E+03 -0.18873492117E+03  0.46851909260E+03  0.17237196306E+03 0.  0.
         24    2    3    3    0    0 -0.18206258659E+03 -0.30103063832E+03 -0.20130277746E+03  0.40949006513E+03  0.58250103757E+02 0.  0.
         -6    2    1    2    0  502  0.23850619276E+03  0.31191661070E+03 -0.25176481883E+03  0.49857462013E+03  0.17610778468E+03 0.  0.
        -24    2    5    5    0    0  0.11313960598E+03  0.12027860148E+03 -0.81999060295E+02  0.21347041036E+03  0.10760231315E+03 0.  0.
          5    1    3    3  501    0 -0.56443606174E+02 -0.10885972381E+02  0.12567856289E+02  0.59029027472E+02  0.47000000000E+01 0. -1.
        -11    1    4    4    0    0 -0.14637567729E+03 -0.27762019947E+03 -0.17456757355E+03  0.35912762605E+03  0.00000000000E+00 0.  1.
         12    1    4    4    0    0 -0.35686909296E+02 -0.23410438842E+02 -0.26735203909E+02  0.50362439078E+02  0.00000000000E+00 0. -1.
         -5    1    5    5    0  502  0.12536658678E+03  0.19163800922E+03 -0.16976575854E+03  0.28510420977E+03  0.47000000000E+01 0.  1.
         11    1    6    6    0    0  0.13123693612E+03  0.11662689720E+03 -0.61859837828E+02  0.18614941872E+03  0.00000000000E+00 0. -1.
        -12    1    6    6    0    0 -0.18097330145E+02  0.36517042770E+01 -0.20139222467E+02  0.27320991638E+02  0.00000000000E+00 0.  1.
</event>
<event>
12    1  0.1061634E+000  0.1731032E+03  0.7818608E-02  0.1175185E+00
         21   -1    0    0  503  502  0.00000000000E+00  0.00000000000E+00  0.36974539183E+03  0.36974539183E+03  0.00000000000E+00 0.  1.
         21   -1    0    0  501  503 -0.00000000000E+00 -0.00000000000E+00 -0.81854853987E+02  0.81854853987E+02  0.00000000000E+00 0.  1.
          6    2    1    2  501    0  0.10641805939E+02 -0.73675251308E+01  0.10972063008E+03  0.20318682091E+03  0.17052489280E+03 0.  0.
         24    2    3    3    0    0  0.47532205168E+01 -0.60801331421E+02  0.95227715038E+02  0.14731212467E+03  0.94409477046E+02 0.  0.
         -6    2    1    2    0  502 -0.10641805939E+02  0.73675251308E+01  0.17816990776E+03  0.24841342490E+03  0.17261861192E+03 0.  0.
        -24    2    5    5    0    0 -0.14020728194E+02  0.51849391481E+02  0.43425583623E+02  0.10639871991E+03  0.80931860652E+02 0.  0.
          5    1    3    3  501    0  0.58885854219E+01  0.53433806291E+02  0.14492915045E+02  0.55874696236E+02  0.47000000000E+01 0. -1.
        -13    1    4    4    0    0 -0.38198304441E+02 -0.19289711450E+01  0.22596003435E+02  0.44423088176E+02  0.00000000000E+00 0.  1.
         14    1    4    4    0    0  0.42951524958E+02 -0.58872360276E+02  0.72631711603E+02  0.10288903650E+03  0.00000000000E+00 0. -1.
         -5    1    5    5    0  502  0.33789222553E+01 -0.44481866350E+02  0.13474432413E+03  0.14201470500E+03  0.47000000000E+01 0.  1.
         11    1    6    6    0    0 -0.40851686332E+02  0.56588974331E+02  0.33310205707E+02  0.77335257783E+02  0.00000000000E+00 0. -1.
        -12    1    6    6    0    0  0.26830958138E+02 -0.47395828504E+01  0.10115377916E+02  0.29063462123E+02  0.00000000000E+00 0.  1.
</event>
<event>
12    1  0.1061634E+000  0.2034158E+03  0.7818608E-02  0.1147281E+00
         21   -1    0    0  501  502  0.00000000000E+00  0.00000000000E+00  0.15046478268E+03  0.15046478268E+03  0.00000000000E+00 0. -1.
         21   -1    0    0  502  503 -0.00000000000E+00 -0.00000000000E+00 -0.27407523341E+03  0.27407523341E+03  0.00000000000E+00 0. -1.
         -6    2    1    2    0  503 -0.10493070693E+03  0.34907903688E+01 -0.45731174139E+02  0.20849303928E+03  0.17422792045E+03 0.  0.
        -24    2    3    3    0    0 -0.10730200401E+03 -0.54575591859E+02 -0.24290637044E+02  0.14637126833E+03  0.79638545021E+02 0.  0.
          6    2    1    2  501    0  0.10493070693E+03 -0.34907903688E+01 -0.77879276585E+02  0.21604697681E+03  0.17201300995E+03 0.  0.
         24    2    5    5    0    0 -0.96423775770E+01 -0.54178912545E+01 -0.10075566746E+02  0.82817331165E+02  0.81454676385E+02 0.  0.
          5    1    5    5  501    0  0.11457308450E+03  0.19271008857E+01 -0.67803709839E+02  0.13322964564E+03  0.47000000000E+01 0. -1.
        -11    1    6    6    0    0  0.36058037492E+02 -0.19070194652E+01 -0.11843603169E+01  0.36127849374E+02  0.00000000000E+00 0.  1.
         12    1    6    6    0    0 -0.45700415069E+02 -0.35108717893E+01 -0.88912064289E+01  0.46689481791E+02  0.00000000000E+00 0. -1.
         -5    1    3    3    0  503  0.23712970829E+01  0.58066382228E+02 -0.21440537095E+02  0.62121770949E+02  0.47000000000E+01 0.  1.
         13    1    4    4    0    0 -0.67933226240E+02 -0.60331186280E+01  0.18452820487E+02  0.70652872070E+02  0.00000000000E+00 0. -1.
        -14    1    4    4    0    0 -0.39368777769E+02 -0.48542473231E+02 -0.42743457530E+02  0.75718396259E+02  0.00000000000E+00 0.  1.
</event>
<event>
12    1  0.1061634E+000  0.2257274E+03  0.7818608E-02  0.1130368E+00
         21   -1    0    0  501  502  0.00000000000E+00  0.00000000000E+00  0.18427844742E+03  0.18427844742E+03  0.00000000000E+00 0. -1.
         21   -1    0    0  502  503 -0.00000000000E+00 -0.00000000000E+00 -0.31485429650E+03  0.31485429650E+03  0.00000000000E+00 0. -1.
         -6    2    1    2    0  503 -0.12106659616E+03  0.75358487462E+02  0.27352615701E+02  0.22364362608E+03  0.17009492516E+03 0.  0.
        -24    2    3    3    0    0 -0.23172457523E+02  0.88690004719E+02  0.15325617550E+02  0.12400562923E+03  0.82095321447E+02 0.  0.
          6    2    1    2  501    0  0.12106659616E+03 -0.75358487462E+02 -0.15792846478E+03  0.27548911784E+03  0.17497666051E+03 0.  0.
         24    2    5    5    0    0  0.75091588996E+02 -0.57209150575E+01 -0.15535586457E+03  0.19187212766E+03  0.83713756998E+02 0.  0.
          5    1    5    5  501    0  0.45975007166E+02 -0.69637572404E+02 -0.25726002060E+01  0.83616990176E+02  0.47000000000E+01 0. -1.
        -11    1    6    6    0    0  0.13772006944E+02 -0.21300199582E+02 -0.11281716328E+03  0.11563338189E+03  0.00000000000E+00 0.  1.
         12    1    6    6    0    0  0.61319582052E+02  0.15579284525E+02 -0.42538701293E+02  0.76238745773E+02  0.00000000000E+00 0. -1.
         -5    1    3    3    0  503 -0.97894138638E+02 -0.13331517257E+02  0.12026998151E+02  0.99637996852E+02  0.47000000000E+01 0.  1.
         11    1    4    4    0    0 -0.13252158613E+02 -0.14345225555E+02  0.31089373699E+01  0.19775507470E+02  0.00000000000E+00 0. -1.
        -12    1    4    4    0    0 -0.99202989100E+01  0.10303523027E+03  0.12216680180E+02  0.10423012176E+03  0.00000000000E+00 0.  1.
</event>
<event>
12    1  0.1061634E+000  0.2272356E+03  0.7818608E-02  0.1128813E+00
         21   -1    0    0  501  502  0.00000000000E+00  0.00000000000E+00  0.26699977999E+03  0.26699977999E+03  0.00000000000E+00 0.  1.
         21   -1    0    0  502  503 -0.00000000000E+00 -0.00000000000E+00 -0.21028571774E+03  0.21028571774E+03  0.00000000000E+00 0.  1.
         -6    2    1    2    0  503  0.41039207207E+02  0.14306301127E+03  0.97911045605E+02  0.24634569153E+03  0.17014224979E+03 0.  0.
        -24    2    3    3    0    0  0.61189881579E+02  0.82996226318E+02  0.42934509477E+00  0.12998916930E+03  0.79148118152E+02 0.  0.
          6    2    1    2  501    0 -0.41039207207E+02 -0.14306301127E+03 -0.41196983358E+02  0.23093980620E+03  0.17171127200E+03 0.  0.
         24    2    5    5    0    0  0.41358159573E+02 -0.80614587950E+02 -0.34680333050E+02  0.12723981412E+03  0.82328826319E+02 0.  0.
          5    1    5    5  501    0 -0.82397366780E+02 -0.62448423318E+02 -0.65166503082E+01  0.10369999208E+03  0.47000000000E+01 0. -1.
        -13    1    6    6    0    0 -0.12378323639E+02 -0.51617076261E+02 -0.39237943178E+02  0.66008799737E+02  0.00000000000E+00 0.  1.
         14    1    6    6    0    0  0.53736483212E+02 -0.28997511689E+02  0.45576101288E+01  0.61231014382E+02  0.00000000000E+00 0. -1.
         -5    1    3    3    0  503 -0.20150674372E+02  0.60066784950E+02  0.97481700510E+02  0.11635652223E+03  0.47000000000E+01 0.  1.
         11    1    4    4    0    0  0.36977067321E+02  0.95722452629E+02  0.12369896200E+01  0.10262368922E+03  0.00000000000E+00 0. -1.
        -12    1    4    4    0    0  0.24212814258E+02 -0.12726226312E+02 -0.80764452526E+00  0.27365480081E+02  0.00000000000E+00 0.  1.
</event>
<event>
12    1  0.1061634E+000  0.2021985E+03  0.7818608E-02  0.1150127E+00
         21   -1    0    0  501  502  0.00000000000E+00  0.00000000000E+00  0.16114849237E+03  0.16114849237E+03  0.00000000000E+00 0.  1.
         21   -1    0    0  502  503 -0.00000000000E+00 -0.00000000000E+00 -0.33584155242E+03  0.33584155242E+03  0.00000000000E+00 0.  1.
         -6    2    1    2    0  503  0.10346116319E+03 -0.27836367006E+02  0.43160372386E+02  0.20675356215E+03  0.17147927601E+03 0.  0.
        -24    2    3    3    0    0  0.78489984081E+01 -0.54044932793E+02 -0.57923738473E+01  0.96087233308E+02  0.78846326949E+02 0.  0.
          6    2    1    2  501    0 -0.10346116319E+03  0.27836367006E+02 -0.21785343244E+03  0.29023648264E+03  0.15905351997E+03 0.  0.
         24    2    5    5    0    0 -0.92557296268E+02 -0.35272817099E+02 -0.13930202007E+03  0.18877674769E+03  0.80128540191E+02 0.  0.
          5    1    5    5  501    0 -0.10903866923E+02  0.63109184105E+02 -0.78551412370E+02  0.10145973496E+03  0.47000000000E+01 0. -1.
        -13    1    6    6    0    0 -0.14025070112E+02 -0.41927868364E+02 -0.27774523334E+02  0.52211807895E+02  0.00000000000E+00 0.  1.
         14    1    6    6    0    0 -0.78532226156E+02  0.66550512650E+01 -0.11152749673E+03  0.13656493979E+03  0.00000000000E+00 0. -1.
         -5    1    3    3    0  503  0.95612164783E+02  0.26208565787E+02  0.48952746233E+02  0.11066632884E+03  0.47000000000E+01 0.  1.
         11    1    4    4    0    0 -0.33179504630E+01  0.19850997313E+02 -0.70967715969E+01  0.21340924457E+02  0.00000000000E+00 0. -1.
        -12    1    4    4    0    0  0.11166948871E+02 -0.73895930106E+02  0.13043977496E+01  0.74746308851E+02  0.00000000000E+00 0.  1.
</event>
<event>
12    1  0.1061634E+000  0.2068951E+03  0.7818608E-02  0.1144168E+00
         21   -1    0    0  503  502  0.00000000000E+00  0.00000000000E+00  0.19695525356E+04  0.19695525356E+04  0.00000000000E+00 0. -1.
         21   -1    0    0  501  503 -0.00000000000E+00 -0.00000000000E+00 -0.39334340692E+02  0.39334340692E+02  0.00000000000E+00 0. -1.
          6    2    1    2  501    0 -0.11324652497E+03 -0.63218934057E+01  0.29127096350E+03  0.35693239892E+03  0.17232881785E+03 0.  0.
         24    2    3    3    0    0 -0.14008714864E+03  0.99252249071E+01  0.17967366098E+03  0.24091328039E+03  0.77676669061E+02 0.  0.
         -6    2    1    2    0  502  0.11324652497E+03  0.63218934057E+01  0.16389472314E+04  0.16519544774E+04  0.17303417653E+03 0.  0.
        -24    2    5    5    0    0  0.56862453969E+02  0.17558640426E+02  0.14730264208E+04  0.14762922067E+04  0.78039725071E+02 0.  0.
          5    1    3    3  501    0  0.26840623672E+02 -0.16247118313E+02  0.11159730252E+03  0.11601911853E+03  0.47000000000E+01 0. -1.
        -13    1    4    4    0    0 -0.11929986328E+03  0.29194861806E+02  0.17235481029E+03  0.21163879125E+03  0.00000000000E+00 0.  1.
         14    1    4    4    0    0 -0.20787285360E+02 -0.19269636899E+02  0.73188506916E+01  0.29274489138E+02  0.00000000000E+00 0. -1.
         -5    1    5    5    0  502  0.56384070997E+02 -0.11236747021E+02  0.16592081066E+03  0.17566227072E+03  0.47000000000E+01 0.  1.
         13    1    6    6    0    0  0.19119626760E+02 -0.21494935434E+02  0.95365794120E+03  0.95409174674E+03  0.00000000000E+00 0. -1.
        -14    1    6    6    0    0  0.37742827209E+02  0.39053575861E+02  0.51936847958E+03  0.52220045995E+03  0.00000000000E+00 0.  1.
</event>
<event>
12    1  0.1061634E+000  0.2937568E+03  0.7818608E-02  0.1088596E+00
         21   -1    0    0  503  502  0.00000000000E+00  0.00000000000E+00  0.99292922977E+03  0.99292922977E+03  0.00000000000E+00 0.  1.
         21   -1    0    0  501  503 -0.00000000000E+00 -0.00000000000E+00 -0.12268462097E+03  0.12268462097E+03  0.00000000000E+00 0.  1.
          6    2    1    2  501    0 -0.21870062147E+03 -0.91416231506E+02  0.13126807820E+03  0.32039098995E+03  0.17097423452E+03 0.  0.
         24    2    3    3    0    0 -0.88876023110E+02  0.16787901609E+02  0.99544238586E+02  0.14837048895E+03  0.62641563128E+02 0.  0.
         -6    2    1    2    0  502  0.21870062147E+03  0.91416231506E+02  0.73897653060E+03  0.79522286079E+03  0.17351137234E+03 0.  0.
        -24    2    5    5    0    0  0.16395574585E+03  0.82623194441E+02  0.36508542650E+03  0.41721364578E+03  0.84093868537E+02 0.  0.
          5    1    3    3  501    0 -0.12982459836E+03 -0.10820413312E+03  0.31723839611E+02  0.17202050100E+03  0.47000000000E+01 0. -1.
        -13    1    4    4    0    0 -0.60256720333E+02  0.39146162974E+02  0.78393454432E+02  0.10634297400E+03  0.00000000000E+00 0.  1.
         14    1    4    4    0    0 -0.28619302777E+02 -0.22358261365E+02  0.21150784154E+02  0.42027514952E+02  0.00000000000E+00 0. -1.
         -5    1    5    5    0  502  0.54744875626E+02  0.87930370649E+01  0.37389110410E+03  0.37800921502E+03  0.47000000000E+01 0.  1.
         11    1    6    6    0    0  0.69100970954E+02 -0.13862557326E+01  0.18089703692E+03  0.19365072646E+03  0.00000000000E+00 0. -1.
        -12    1    6    6    0    0  0.94854774893E+02  0.84009450174E+02  0.18418838958E+03  0.22356291932E+03  0.00000000000E+00 0.  1.
</event>
<event>
12    1  0.1061634E+000  0.4403509E+03  0.7818608E-02  0.1030745E+00
         21   -1    0    0  501  502  0.00000000000E+00  0.00000000000E+00  0.19923354054E+04  0.19923354054E+04  0.00000000000E+00 0.  1.
         21   -1    0    0  502  503 -0.00000000000E+00 -0.00000000000E+00 -0.98593734861E+02  0.98593734861E+02  0.00000000000E+00 0.  1.
         -6    2    1    2    0  503 -0.40104132361E+03 -0.44777321707E+02  0.81341613083E+03  0.92430487548E+03  0.17278469016E+03 0.  0.
        -24    2    3    3    0    0 -0.32029611079E+03 -0.67670327803E+02  0.52414370638E+03  0.62306658995E+03  0.79476277714E+02 0.  0.
          6    2    1    2  501    0  0.40104132361E+03  0.44777321707E+02  0.10803255397E+04  0.11666242647E+04  0.17626613867E+03 0.  0.
         24    2    5    5    0    0  0.17431847674E+03  0.64296654770E+02  0.38733117133E+03  0.43720837637E+03  0.81269532662E+02 0.  0.
          5    1    5    5  501    0  0.22672284687E+03 -0.19519333063E+02  0.69299436834E+03  0.72941588837E+03  0.47000000000E+01 0. -1.
        -11    1    6    6    0    0  0.54462420319E+02 -0.17932163251E+02  0.10333080948E+03  0.11817349066E+03  0.00000000000E+00 0.  1.
         12    1    6    6    0    0  0.11985605642E+03  0.82228818021E+02  0.28400036185E+03  0.31903488572E+03  0.00000000000E+00 0. -1.
         -5    1    3    3    0  503 -0.80745212820E+02  0.22893006096E+02  0.28927242445E+03  0.30123828553E+03  0.47000000000E+01 0.  1.
         11    1    4    4    0    0 -0.27894636136E+03 -0.83605152339E+02  0.47236626514E+03  0.55491511284E+03  0.00000000000E+00 0. -1.
        -12    1    4    4    0    0 -0.41349749428E+02  0.15934824536E+02  0.51777441240E+02  0.68151477109E+02  0.00000000000E+00 0.  1.
</event>
<event>
12    1  0.1061634E+000  0.2247704E+03  0.7818608E-02  0.1130533E+00
         21   -1    0    0  503  502  0.00000000000E+00  0.00000000000E+00  0.39371115759E+03  0.39371115759E+03  0.00000000000E+00 0. -1.
         21   -1    0    0  501  503 -0.00000000000E+00 -0.00000000000E+00 -0.21855085215E+03  0.21855085215E+03  0.00000000000E+00 0. -1.
          6    2    1    2  501    0  0.70823866040E+02 -0.12489515526E+03 -0.10955918379E+03  0.25004985458E+03  0.17293610154E+03 0.  0.
         24    2    3    3    0    0 -0.77439801384E+01 -0.28008116062E+02 -0.89808934691E+02  0.12366881504E+03  0.79899357122E+02 0.  0.
         -6    2    1    2    0  502 -0.70823866040E+02  0.12489515526E+03  0.28471948923E+03  0.36221215516E+03  0.17180697886E+03 0.  0.
        -24    2    5    5    0    0 -0.27047343987E+02  0.10472288136E+02  0.19053911665E+03  0.20761264357E+03  0.77179188638E+02 0.  0.
          5    1    3    3  501    0  0.78567846178E+02 -0.96887039198E+02 -0.19750249102E+02  0.12638103955E+03  0.47000000000E+01 0. -1.
        -13    1    4    4    0    0  0.11319143215E+02 -0.31054539625E+02 -0.97452807969E+02  0.10290557427E+03  0.00000000000E+00 0.  1.
         14    1    4    4    0    0 -0.19063123353E+02  0.30464235633E+01  0.76438732779E+01  0.20763240768E+02  0.00000000000E+00 0. -1.
         -5    1    5    5    0  502 -0.43776522052E+02  0.11442286712E+03  0.94180372581E+02  0.15459951159E+03  0.47000000000E+01 0.  1.
         11    1    6    6    0    0  0.13363870860E+02  0.85493202573E+01  0.34973240087E+01  0.16245466951E+02  0.00000000000E+00 0. -1.
        -12    1    6    6    0    0 -0.40411214848E+02  0.19229678790E+01  0.18704179264E+03  0.19136717662E+03  0.00000000000E+00 0.  1.
</event>
<event>
12    1  0.1061634E+000  0.2104504E+03  0.7818608E-02  0.1141342E+00
         21   -1    0    0  503  502  0.00000000000E+00  0.00000000000E+00  0.16581378502E+02  0.16581378502E+02  0.00000000000E+00 0.  1.
         21   -1    0    0  501  503 -0.00000000000E+00 -0.00000000000E+00 -0.27343199547E+04  0.27343199547E+04  0.00000000000E+00 0.  1.
          6    2    1    2  501    0 -0.97243279243E+01 -0.12037407199E+03 -0.15838473912E+04  0.15977678006E+04  0.17235111336E+03 0.  0.
         24    2    3    3    0    0 -0.27975172743E+02 -0.15029417738E+03 -0.14003124020E+04  0.14108574256E+04  0.79201653877E+02 0.  0.
         -6    2    1    2    0  502  0.97243279243E+01  0.12037407199E+03 -0.11338911850E+04  0.11531335326E+04  0.17153205190E+03 0.  0.
        -24    2    5    5    0    0  0.18615216517E+02  0.99588630891E+02 -0.11177029478E+04  0.11249336836E+04  0.77145908771E+02 0.  0.
          5    1    3    3  501    0  0.18250844819E+02  0.29920105395E+02 -0.18353498912E+03  0.18691037498E+03  0.47000000000E+01 0. -1.
        -13    1    4    4    0    0  0.14797316410E+02 -0.52692929585E+02 -0.73804979098E+03  0.74007634698E+03  0.00000000000E+00 0.  1.
         14    1    4    4    0    0 -0.42772489154E+02 -0.97601247798E+02 -0.66226261106E+03  0.67078107860E+03  0.00000000000E+00 0. -1.
         -5    1    5    5    0  502 -0.88908885926E+01  0.20785441098E+02 -0.16188237216E+02  0.28199849038E+02  0.47000000000E+01 0.  1.
         13    1    6    6    0    0  0.43472393628E+02  0.73935308564E+02 -0.61340778665E+03  0.61937500078E+03  0.00000000000E+00 0. -1.
        -14    1    6    6    0    0 -0.24857177111E+02  0.25653322327E+02 -0.50429516116E+03  0.50555868282E+03  0.00000000000E+00 0.  1.
</event>
<event>
12    1  0.1061634E+000  0.2164320E+03  0.7818608E-02  0.1136646E+00
         21   -1    0    0  503  502  0.00000000000E+00  0.00000000000E+00  0.23950493887E+03  0.23950493887E+03  0.00000000000E+00 0.  1.
         21   -1    0    0  501  503 -0.00000000000E+00 -0.00000000000E+00 -0.19684788617E+03  0.19684788617E+03  0.00000000000E+00 0.  1.
          6    2    1    2  501    0  0.55581430109E+02  0.11829944532E+03  0.41090425100E+02  0.21991520492E+03  0.17201808099E+03 0.  0.
         24    2    3    3    0    0 -0.35229243675E+02  0.66182420883E+02  0.13360823627E+02  0.11150033737E+03  0.81440783283E+02 0.  0.
         -6    2    1    2    0  502 -0.55581430109E+02 -0.11829944532E+03  0.15666276001E+01  0.21643762011E+03  0.17250720258E+03 0.  0.
        -24    2    5    5    0    0 -0.57895392938E+02 -0.71145938476E+02 -0.62021181543E+02  0.13710095077E+03  0.80848145658E+02 0.  0.
          5    1    3    3  501    0  0.90810673784E+02  0.52117024432E+02  0.27729601473E+02  0.10841486755E+03  0.47000000000E+01 0. -1.
        -11    1    4    4    0    0 -0.29949329218E+02  0.44233936704E+02 -0.30973730880E+02  0.61749295393E+02  0.00000000000E+00 0.  1.
         12    1    4    4    0    0 -0.52799144568E+01  0.21948484179E+02  0.44334554507E+02  0.49751041976E+02  0.00000000000E+00 0. -1.
         -5    1    5    5    0  502  0.23139628285E+01 -0.47153506839E+02  0.63587809143E+02  0.79336669345E+02  0.47000000000E+01 0.  1.
         11    1    6    6    0    0 -0.48511396844E+02  0.93728441366E+00 -0.33756022523E+02  0.59107556052E+02  0.00000000000E+00 0. -1.
        -12    1    6    6    0    0 -0.93839960936E+01 -0.72083222890E+02 -0.28265159020E+02  0.77993394716E+02  0.00000000000E+00 0.  1.
</event>
<event>
12    1  0.1061634E+000  0.2324390E+03  0.7818608E-02  0.1126317E+00
         21   -1    0    0  503  502  0.00000000000E+00  0.00000000000E+00  0.51724567767E+03  0.51724567767E+03  0.00000000000E+00 0.  1.
         21   -1    0    0  501  503 -0.00000000000E+00 -0.00000000000E+00 -0.21669373640E+03  0.21669373640E+03  0.00000000000E+00 0.  1.
          6    2    1    2  501    0 -0.10016119856E+03  0.10532299819E+03  0.41963167159E+03  0.47970680530E+03  0.18139095789E+03 0.  0.
         24    2    3    3    0    0 -0.53196294769E+02 -0.18266768691E+02  0.20866941694E+03  0.23069416394E+03  0.80705335006E+02 0.  0.
         -6    2    1    2    0  502  0.10016119856E+03 -0.10532299819E+03 -0.11907973033E+03  0.25423260877E+03  0.17125722624E+03 0.  0.
        -24    2    5    5    0    0  0.63697793515E+02 -0.13252186775E+03 -0.63162597472E+02  0.18199567805E+03  0.86680209846E+02 0.  0.
          5    1    3    3  501    0 -0.46964903788E+02  0.12358976688E+03  0.21096225466E+03  0.24901264136E+03  0.47000000000E+01 0. -1.
        -13    1    4    4    0    0 -0.71228028061E+02 -0.28538766531E+02  0.17587659154E+03  0.19188660356E+03  0.00000000000E+00 0.  1.
         14    1    4    4    0    0  0.18031733292E+02  0.10271997840E+02  0.32792825399E+02  0.38807560382E+02  0.00000000000E+00 0. -1.
         -5    1    5    5    0  502  0.36463405043E+02  0.27198869556E+02 -0.55917132859E+02  0.72236930719E+02  0.47000000000E+01 0.  1.
         11    1    6    6    0    0  0.64035536865E+02 -0.86854527143E+02 -0.49703227943E+01  0.10802297429E+03  0.00000000000E+00 0. -1.
        -12    1    6    6    0    0 -0.33774335077E+00 -0.45667340605E+02 -0.58192274677E+02  0.73972703754E+02  0.00000000000E+00 0.  1.
</event>
<event>
12    1  0.1061634E+000  0.1782764E+03  0.7818608E-02  0.1169890E+00
         21   -1    0    0  501  502  0.00000000000E+00  0.00000000000E+00  0.64514969488E+03  0.64514969488E+03  0.00000000000E+00 0.  1.
         21   -1    0    0  502  503 -0.00000000000E+00 -0.00000000000E+00 -0.63731178806E+02  0.63731178806E+02  0.00000000000E+00 0.  1.
         -6    2    1    2    0  503 -0.29797750718E+02  0.39662659200E+02  0.12023080301E+03  0.21503002924E+03  0.17123502854E+03 0.  0.
        -24    2    3    3    0    0 -0.41200051734E+02 -0.37482062893E+02  0.82243919708E+02  0.12815993128E+03  0.80984914372E+02 0.  0.
          6    2    1    2  501    0  0.29797750718E+02 -0.39662659200E+02  0.46118771306E+03  0.49385084445E+03  0.16950963808E+03 0.  0.
         24    2    5    5    0    0  0.24012774103E+02 -0.63004960494E+02  0.45758144583E+03  0.46908344355E+03  0.78180938032E+02 0.  0.
          5    1    5    5  501    0  0.57849766151E+01  0.23342301294E+02  0.36062672259E+01  0.24767400902E+02  0.47000000000E+01 0. -1.
        -13    1    6    6    0    0  0.33904007974E+02 -0.17527585795E+01  0.25395048964E+03  0.25620968973E+03  0.00000000000E+00 0.  1.
         14    1    6    6    0    0 -0.98912338711E+01 -0.61252201914E+02  0.20363095619E+03  0.21287375382E+03  0.00000000000E+00 0. -1.
         -5    1    3    3    0  503  0.11402301016E+02  0.77144722093E+02  0.37986883306E+02  0.86870097954E+02  0.47000000000E+01 0.  1.
         13    1    4    4    0    0 -0.32712690406E+02  0.18741231944E+02  0.16262977422E+02  0.41058961543E+02  0.00000000000E+00 0. -1.
        -14    1    4    4    0    0 -0.84873613274E+01 -0.56223294836E+02  0.65980942286E+02  0.87100969739E+02  0.00000000000E+00 0.  1.
</event>
<event>
12    1  0.1061634E+000  0.2728783E+03  0.7818608E-02  0.1099741E+00
         21   -1    0    0  501  502  0.00000000000E+00  0.00000000000E+00  0.50809136147E+03  0.50809136147E+03  0.00000000000E+00 0. -1.
         21   -1    0    0  502  503 -0.00000000000E+00 -0.00000000000E+00 -0.10337430946E+04  0.10337430946E+04  0.00000000000E+00 0. -1.
         -6    2    1    2    0  503 -0.10795079492E+03 -0.18176496313E+03  0.45155436801E+03  0.52724373118E+03  0.17144307759E+03 0.  0.
        -24    2    3    3    0    0 -0.74782941327E+01 -0.81645689068E+02  0.29091694845E+03  0.31289573605E+03  0.80926678643E+02 0.  0.
          6    2    1    2  501    0  0.10795079492E+03  0.18176496313E+03 -0.97720610114E+03  0.10145907249E+04  0.17254187599E+03 0.  0.
         24    2    5    5    0    0  0.70478715838E+02  0.11683928615E+03 -0.36449052240E+03  0.39728855360E+03  0.79788380906E+02 0.  0.
          5    1    5    5  501    0  0.37472079079E+02  0.64925676977E+02 -0.61271557874E+03  0.61730217129E+03  0.47000000000E+01 0. -1.
        -11    1    6    6    0    0  0.17175783794E+02  0.61157220350E+01 -0.14158543957E+03  0.14275449661E+03  0.00000000000E+00 0.  1.
         12    1    6    6    0    0  0.53302932044E+02  0.11072356412E+03 -0.22290508283E+03  0.25453405699E+03  0.00000000000E+00 0. -1.
         -5    1    3    3    0  503 -0.10047250078E+03 -0.10011927406E+03  0.16063741956E+03  0.21434799513E+03  0.47000000000E+01 0.  1.
         11    1    4    4    0    0  0.34300250891E+02 -0.29060600114E+02  0.82893240859E+02  0.94299072478E+02  0.00000000000E+00 0. -1.
        -12    1    4    4    0    0 -0.41778545024E+02 -0.52585088954E+02  0.20802370759E+03  0.21859666357E+03  0.00000000000E+00 0.  1.
</event>
<event>
12    1  0.1061634E+000  0.2069444E+03  0.7818608E-02  0.1144318E+00
         21   -1    0    0  503  502  0.00000000000E+00  0.00000000000E+00  0.26299618758E+03  0.26299618758E+03  0.00000000000E+00 0.  1.
         21   -1    0    0  501  503 -0.00000000000E+00 -0.00000000000E+00 -0.20616512007E+03  0.20616512007E+03  0.00000000000E+00 0.  1.
          6    2    1    2  501    0 -0.72188326216E+02  0.90334629787E+02 -0.80514603777E+02  0.22205540622E+03  0.17162314014E+03 0.  0.
         24    2    3    3    0    0  0.15455980352E+02  0.37645169187E+02  0.66792997156E+01  0.87583957439E+02  0.77267654709E+02 0.  0.
         -6    2    1    2    0  502  0.72188326216E+02 -0.90334629787E+02  0.13734567128E+03  0.24710590143E+03  0.16978219377E+03 0.  0.
        -24    2    5    5    0    0  0.94788776745E+02 -0.54957674259E+02  0.39980622072E+02  0.14097224911E+03  0.79179964144E+02 0.  0.
          5    1    3    3  501    0 -0.87644306567E+02  0.52689460600E+02 -0.87193903493E+02  0.13447144879E+03  0.47000000000E+01 0. -1.
        -13    1    4    4    0    0 -0.10806747633E+02 -0.20695150826E+02  0.14662989415E+01  0.23392842809E+02  0.00000000000E+00 0.  1.
         14    1    4    4    0    0  0.26262727984E+02  0.58340320013E+02  0.52130007742E+01  0.64191114630E+02  0.00000000000E+00 0. -1.
         -5    1    5    5    0  502 -0.22600450529E+02 -0.35376955529E+02  0.97365049207E+02  0.10613365231E+03  0.47000000000E+01 0.  1.
         11    1    6    6    0    0  0.67267739420E+02 -0.71205194944E+02  0.12360058704E+02  0.98731451953E+02  0.00000000000E+00 0. -1.
        -12    1    6    6    0    0  0.27521037325E+02  0.16247520685E+02  0.27620563368E+02  0.42240797159E+02  0.00000000000E+00 0.  1.
</event>
<event>
12    1  0.1061634E+000  0.2524487E+03  0.7818608E-02  0.1111993E+00
         21   -1    0    0  501  502  0.00000000000E+00  0.00000000000E+00  0.82505265477E+02  0.82505265477E+02  0.00000000000E+00 0.  1.
         21   -1    0    0  502  503 -0.00000000000E+00 -0.00000000000E+00 -0.76986963882E+03  0.76986963882E+03  0.00000000000E+00 0.  1.
         -6    2    1    2    0  503  0.57085854761E+02 -0.17450871579E+03 -0.36545690499E+03  0.44417237930E+03  0.17325780335E+03 0.  0.
        -24    2    3    3    0    0 -0.17676319129E+01 -0.16030446174E+03 -0.32497920789E+03  0.37119274043E+03  0.80448244284E+02 0.  0.
          6    2    1    2  501    0 -0.57085854761E+02  0.17450871579E+03 -0.32190746835E+03  0.40820252500E+03  0.17115138484E+03 0.  0.
         24    2    5    5    0    0 -0.95601031970E+02  0.16784570885E+03 -0.28887030149E+03  0.35680837230E+03  0.80959398293E+02 0.  0.
          5    1    5    5  501    0  0.38515177209E+02  0.66630069437E+01 -0.33037166867E+02  0.51394152698E+02  0.47000000000E+01 0. -1.
        -13    1    6    6    0    0 -0.76617108679E+02  0.13651412522E+03 -0.16419307409E+03  0.22686042693E+03  0.00000000000E+00 0.  1.
         14    1    6    6    0    0 -0.18983923291E+02  0.31331583631E+02 -0.12467722739E+03  0.12994794537E+03  0.00000000000E+00 0. -1.
         -5    1    3    3    0  503  0.58853486674E+02 -0.14204254055E+02 -0.40477697099E+02  0.72979638869E+02  0.47000000000E+01 0.  1.
         11    1    4    4    0    0 -0.96167460245E+01  0.57135570377E+01 -0.37433446649E+02  0.39069034620E+02  0.00000000000E+00 0. -1.
        -12    1    4    4    0    0  0.78491141116E+01 -0.16601801878E+03 -0.28754576124E+03  0.33212370581E+03  0.00000000000E+00 0.  1.
</event>
<event>
12    1  0.1061634E+000  0.3380861E+03  0.7818608E-02  0.1067644E+00
         21   -1    0    0  501  502  0.00000000000E+00  0.00000000000E+00  0.77301160755E+03  0.77301160755E+03  0.00000000000E+00 0.  1.
         21   -1    0    0  502  503 -0.00000000000E+00 -0.00000000000E+00 -0.16819645390E+03  0.16819645390E+03  0.00000000000E+00 0.  1.
         -6    2    1    2    0  503 -0.13754825224E+03 -0.25651723627E+03  0.46640423473E+03  0.57588659401E+03  0.17144049927E+03 0.  0.
        -24    2    3    3    0    0 -0.99957999030E+02 -0.25677998996E+03  0.45219630082E+03  0.53542610016E+03  0.79196271669E+02 0.  0.
          6    2    1    2  501    0  0.13754825224E+03  0.25651723627E+03  0.13841091893E+03  0.36532146744E+03  0.17199295885E+03 0.  0.
         24    2    5    5    0    0  0.55154645078E+02  0.10905143679E+03  0.13122957087E+03  0.19618090377E+03  0.79570698081E+02 0.  0.
          5    1    5    5  501    0  0.82393607165E+02  0.14746579948E+03  0.71813480521E+01  0.16914056367E+03  0.47000000000E+01 0. -1.
        -11    1    6    6    0    0 -0.10711026661E+02  0.38399281005E+02  0.98604877364E+01  0.41066532508E+02  0.00000000000E+00 0.  1.
         12    1    6    6    0    0  0.65865671738E+02  0.70652155781E+02  0.12136908314E+03  0.15511437126E+03  0.00000000000E+00 0. -1.
         -5    1    3    3    0  503 -0.37590253213E+02  0.26275369892E+00  0.14207933909E+02  0.40460493844E+02  0.47000000000E+01 0.  1.
         13    1    4    4    0    0 -0.67201242035E+00 -0.60141646363E+02  0.14878927833E+03  0.16048588278E+03  0.00000000000E+00 0. -1.
        -14    1    4    4    0    0 -0.99285986610E+02 -0.19663834360E+03  0.30340702249E+03  0.37494021738E+03  0.00000000000E+00 0.  1.
</event>
<event>
12    1  0.1061634E+000  0.1972336E+03  0.7818608E-02  0.1152472E+00
         21   -1    0    0  501  502  0.00000000000E+00  0.00000000000E+00  0.39266646049E+02  0.39266646049E+02  0.00000000000E+00 0. -1.
         21   -1    0    0  502  503 -0.00000000000E+00 -0.00000000000E+00 -0.14236152355E+04  0.14236152355E+04  0.00000000000E+00 0.  1.
         -6    2    1    2    0  503  0.55473066127E+02 -0.74169831333E+02 -0.28262539921E+03  0.34364325884E+03  0.17214862220E+03 0.  0.
        -24    2    3    3    0    0  0.88709877642E+02 -0.88762521098E+02 -0.17078688878E+03  0.22596754066E+03  0.78389670943E+02 0.  0.
          6    2    1    2  501    0 -0.55473066127E+02  0.74169831333E+02 -0.11017231903E+04  0.11192386227E+04  0.17413409114E+03 0.  0.
         24    2    5    5    0    0  0.17363827685E+02  0.26105609296E+02 -0.30460882341E+03  0.31734786559E+03  0.83307425520E+02 0.  0.
          5    1    5    5  501    0 -0.72836893811E+02  0.48064222037E+02 -0.79711436685E+03  0.80189075714E+03  0.47000000000E+01 0. -1.
        -11    1    6    6    0    0 -0.76101441642E+01  0.13668862176E+02 -0.49729276551E+01  0.16415909869E+02  0.00000000000E+00 0.  1.
         12    1    6    6    0    0  0.24973971849E+02  0.12436747120E+02 -0.29963589576E+03  0.30093195573E+03  0.00000000000E+00 0. -1.
         -5    1    3    3    0  503 -0.33236811516E+02  0.14592689765E+02 -0.11183851043E+03  0.11767571818E+03  0.47000000000E+01 0.  1.
         11    1    4    4    0    0  0.23917562118E+02 -0.75565798383E+02 -0.71918643124E+02  0.10702584217E+03  0.00000000000E+00 0. -1.
        -12    1    4    4    0    0  0.64792315524E+02 -0.13196722715E+02 -0.98868245658E+02  0.11894169850E+03  0.00000000000E+00 0.  1.
</event>
<event>
12    1  0.1061634E+000  0.2246409E+03  0.7818608E-02  0.1130497E+00
         21   -1    0    0  503  502  0.00000000000E+00  0.00000000000E+00  0.56134984853E+03  0.56134984853E+03  0.00000000000E+00 0. -1.
         21   -1    0    0  501  503 -0.00000000000E+00 -0.00000000000E+00 -0.14855116521E+03  0.14855116521E+03  0.00000000000E+00 0.  1.
          6    2    1    2  501    0 -0.13218072650E+03  0.57767655284E+02  0.42959378669E+03  0.48478280298E+03  0.17220539495E+03 0.  0.
         24    2    3    3    0    0 -0.37316699652E+02  0.55726118329E+02  0.11100767368E+03  0.15233347923E+03  0.79905249771E+02 0.  0.
         -6    2    1    2    0  502  0.13218072650E+03 -0.57767655284E+02 -0.16795103365E+02  0.22511821076E+03  0.17200955457E+03 0.  0.
        -24    2    5    5    0    0  0.84017855911E+02 -0.40730748090E+02  0.56987757973E+02  0.13525209402E+03  0.79545775671E+02 0.  0.
          5    1    3    3  501    0 -0.94864026848E+02  0.20415369547E+01  0.31858611300E+03  0.33244932375E+03  0.47000000000E+01 0. -1.
        -11    1    4    4    0    0 -0.98876846766E+01 -0.20586867129E+02  0.19169188071E+02  0.29816827091E+02  0.00000000000E+00 0.  1.
         12    1    4    4    0    0 -0.27429014975E+02  0.76312985458E+02  0.91838485613E+02  0.12251665214E+03  0.00000000000E+00 0. -1.
         -5    1    5    5    0  502  0.48162870589E+02 -0.17036907194E+02 -0.73782861339E+02  0.89866116737E+02  0.47000000000E+01 0.  1.
         11    1    6    6    0    0  0.79238924595E+02 -0.26739688675E+02  0.79176024851E+01  0.84003015127E+02  0.00000000000E+00 0. -1.
        -12    1    6    6    0    0  0.47789313163E+01 -0.13991059415E+02  0.49070155488E+02  0.51249078896E+02  0.00000000000E+00 0.  1.
</event>
<event>
12    1  0.1061634E+000  0.3433049E+03  0.7818608E-02  0.1065707E+00
         21   -1    0    0  503  502  0.00000000000E+00  0.00000000000E+00  0.68121173238E+03  0.68121173238E+03  0.00000000000E+00 0. -1.
         21   -1    0    0  501  503 -0.00000000000E+00 -0.00000000000E+00 -0.17187878706E+03  0.17187878706E+03  0.00000000000E+00 0. -1.
          6    2    1    2  501    0  0.24409947446E+03 -0.16467554929E+03  0.23450388998E+03  0.41333005130E+03  0.17072512095E+03 0.  0.
         24    2    3    3    0    0  0.13726631464E+03 -0.77391054039E+02  0.51481434077E+02  0.18408953020E+03  0.80044991688E+02 0.  0.
         -6    2    1    2    0  502 -0.24409947446E+03  0.16467554929E+03  0.27482905534E+03  0.43976046814E+03  0.17650968732E+03 0.  0.
        -24    2    5    5    0    0 -0.29993337881E+02  0.31274484460E+02  0.82024387100E+02  0.12221832619E+03  0.79571511754E+02 0.  0.
          5    1    3    3  501    0  0.10683315982E+03 -0.87284495252E+02  0.18302245590E+03  0.22924052109E+03  0.47000000000E+01 0. -1.
        -13    1    4    4    0    0  0.11032232069E+03 -0.25568953086E+02  0.54345181139E+02  0.12561124360E+03  0.00000000000E+00 0.  1.
         14    1    4    4    0    0  0.26943993953E+02 -0.51822100952E+02 -0.28637470616E+01  0.58478286607E+02  0.00000000000E+00 0. -1.
         -5    1    5    5    0  502 -0.21410613658E+03  0.13340106483E+03  0.19280466824E+03  0.31754214195E+03  0.47000000000E+01 0.  1.
         11    1    6    6    0    0 -0.31683211561E+02  0.12100405207E+02 -0.39234656322E+01  0.34141459891E+02  0.00000000000E+00 0. -1.
        -12    1    6    6    0    0  0.16898736794E+01  0.19174079253E+02  0.85947852732E+02  0.88076866302E+02  0.00000000000E+00 0.  1.
</event>
<event>
12    1  0.1061634E+000  0.1785838E+03  0.7818608E-02  0.1169189E+00
         21   -1    0    0  503  502  0.00000000000E+00  0.00000000000E+00  0.13991770806E+03  0.13991770806E+03  0.00000000000E+00 0. -1.
         21   -1    0    0  501  503 -0.00000000000E+00 -0.00000000000E+00 -0.34130306595E+03  0.34130306595E+03  0.00000000000E+00 0. -1.
          6    2    1    2  501    0 -0.41305645133E+02  0.13388630628E+02  0.37999251856E+02  0.18258183741E+03  0.17322463006E+03 0.  0.
         24    2    3    3    0    0 -0.42083268586E+02 -0.43716023665E+02  0.65670961946E+02  0.11894725735E+03  0.78445411392E+02 0.  0.
         -6    2    1    2    0  502  0.41305645133E+02 -0.13388630628E+02 -0.23938460975E+03  0.29863893660E+03  0.17319010168E+03 0.  0.
        -24    2    5    5    0    0  0.13304409640E+02  0.80739256230E+01 -0.26349164786E+02  0.82650739425E+02  0.76776758539E+02 0.  0.
          5    1    3    3  501    0  0.77762345345E+00  0.57104654292E+02 -0.27671710090E+02  0.63634580059E+02  0.47000000000E+01 0. -1.
        -13    1    4    4    0    0 -0.33770501905E+02 -0.18108548708E+02  0.79813616528E+02  0.88535753899E+02  0.00000000000E+00 0.  1.
         14    1    4    4    0    0 -0.83127666809E+01 -0.25607474956E+02 -0.14142654582E+02  0.30411503451E+02  0.00000000000E+00 0. -1.
         -5    1    5    5    0  502  0.28001235493E+02 -0.21462556251E+02 -0.21303544496E+03  0.21598819718E+03  0.47000000000E+01 0.  1.
         11    1    6    6    0    0 -0.24649070599E+02 -0.19449206043E+02 -0.90244240694E+01  0.32669382102E+02  0.00000000000E+00 0. -1.
        -12    1    6    6    0    0  0.37953480239E+02  0.27523131666E+02 -0.17324740716E+02  0.49981357323E+02  0.00000000000E+00 0.  1.
</event>
<event>
12    1  0.1061634E+000  0.2001401E+03  0.7818608E-02  0.1150222E+00
         21   -1    0    0  501  502  0.00000000000E+00  0.00000000000E+00  0.21017920212E+03  0.21017920212E+03  0.00000000000E+00 0.  1.
         21   -1    0    0  502  503 -0.00000000000E+00 -0.00000000000E+00 -0.25730478256E+03  0.25730478256E+03  0.00000000000E+00 0.  1.
         -6    2    1    2    0  503  0.96958498249E+02 -0.39507776068E+02  0.97713964868E+02  0.22271972276E+03  0.17057034099E+03 0.  0.
        -24    2    3    3    0    0  0.24337104704E+01  0.28773347696E+02  0.41900089261E+02  0.93357726498E+02  0.78270167577E+02 0.  0.
          6    2    1    2  501    0 -0.96958498249E+02  0.39507776068E+02 -0.14483954531E+03  0.24476426192E+03  0.16724005285E+03 0.  0.
         24    2    5    5    0    0 -0.10528389701E+03 -0.88504980122E+01 -0.14452519229E+03  0.19546899081E+03  0.78470152769E+02 0.  0.
          5    1    5    5  501    0  0.83253987592E+01  0.48358274081E+02 -0.31435301556E+00  0.49295271116E+02  0.47000000000E+01 0. -1.
        -13    1    6    6    0    0 -0.17859706339E+02 -0.29029723881E+02 -0.73564323247E+02  0.81076529488E+02  0.00000000000E+00 0.  1.
         14    1    6    6    0    0 -0.87424190669E+02  0.20179225868E+02 -0.70960869046E+02  0.11439246132E+03  0.00000000000E+00 0. -1.
         -5    1    3    3    0  503  0.94524787778E+02 -0.68281123764E+02  0.55813875606E+02  0.12936199626E+03  0.47000000000E+01 0.  1.
         13    1    4    4    0    0  0.27972190893E+02 -0.15558638567E+02  0.19718080131E+02  0.37594113654E+02  0.00000000000E+00 0. -1.
        -14    1    4    4    0    0 -0.25538480423E+02  0.44331986263E+02  0.22182009131E+02  0.55763612844E+02  0.00000000000E+00 0.  1.
</event>
<event>
12    1  0.1061634E+000  0.4858971E+03  0.7818608E-02  0.1017677E+00
         21   -1    0    0  503  502  0.00000000000E+00  0.00000000000E+00  0.11438007241E+04  0.11438007241E+04  0.00000000000E+00 0.  1.
         21   -1    0    0  501  503 -0.00000000000E+00 -0.00000000000E+00 -0.25696789181E+03  0.25696789181E+03  0.00000000000E+00 0. -1.
          6    2    1    2  501    0 -0.32551755804E+02  0.45287368914E+03  0.75613275653E+03  0.89760019202E+03  0.16671881748E+03 0.  0.
         24    2    3    3    0    0 -0.11545471027E+02  0.43313290450E+03  0.63290289580E+03  0.77095639567E+03  0.77911986611E+02 0.  0.
         -6    2    1    2    0  502  0.32551755804E+02 -0.45287368914E+03  0.13070007575E+03  0.50316842388E+03  0.17303686852E+03 0.  0.
        -24    2    5    5    0    0  0.34805172652E+02 -0.15521326612E+03  0.14248298797E+01  0.17860566490E+03  0.81212039578E+02 0.  0.
          5    1    3    3  501    0 -0.21006284777E+02  0.19740784645E+02  0.12322986073E+03  0.12664379635E+03  0.47000000000E+01 0. -1.
        -11    1    4    4    0    0 -0.76380326001E+01  0.37564777229E+03  0.58850383187E+03  0.69821654842E+03  0.00000000000E+00 0.  1.
         12    1    4    4    0    0 -0.39074384269E+01  0.57485132204E+02  0.44399063930E+02  0.72739847246E+02  0.00000000000E+00 0. -1.
         -5    1    5    5    0  502 -0.22534168474E+01 -0.29766042302E+03  0.12927524587E+03  0.32456275898E+03  0.47000000000E+01 0.  1.
         11    1    6    6    0    0  0.29344994060E+02 -0.22751640744E+02  0.23873755905E+02  0.44144332070E+02  0.00000000000E+00 0. -1.
        -12    1    6    6    0    0  0.54601785921E+01 -0.13246162538E+03 -0.22448926025E+02  0.13446133283E+03  0.00000000000E+00 0.  1.
</event>
<event>
12    1  0.1061634E+000  0.1899271E+03  0.7818608E-02  0.1159920E+00
         21   -1    0    0  501  502  0.00000000000E+00  0.00000000000E+00  0.13550993185E+03  0.13550993185E+03  0.00000000000E+00 0.  1.
         21   -1    0    0  502  503 -0.00000000000E+00 -0.00000000000E+00 -0.31321304053E+03  0.31321304053E+03  0.00000000000E+00 0.  1.
         -6    2    1    2    0  503  0.24453204742E+02  0.73337205617E+02  0.43552622630E+01  0.18997697974E+03  0.17348192866E+03 0.  0.
        -24    2    3    3    0    0  0.70737636125E+02  0.89300921823E+02  0.14299527755E+02  0.13979663259E+03  0.79750574836E+02 0.  0.
          6    2    1    2  501    0 -0.24453204742E+02 -0.73337205617E+02 -0.18205837094E+03  0.25874599264E+03  0.16681706546E+03 0.  0.
         24    2    5    5    0    0 -0.76172385460E+02 -0.40662242691E+02 -0.87296320431E+02  0.14585461532E+03  0.78722747429E+02 0.  0.
          5    1    5    5  501    0  0.51719180718E+02 -0.32674962926E+02 -0.94762050512E+02  0.11289137732E+03  0.47000000000E+01 0. -1.
        -13    1    6    6    0    0 -0.46219710753E+02 -0.57393465566E+02 -0.83452695075E+02  0.11133114509E+03  0.00000000000E+00 0.  1.
         14    1    6    6    0    0 -0.29952674707E+02  0.16731222875E+02 -0.38436253558E+01  0.34523470232E+02  0.00000000000E+00 0. -1.
         -5    1    3    3    0  503 -0.46284431383E+02 -0.15963716206E+02 -0.99442654922E+01  0.50180347147E+02  0.47000000000E+01 0.  1.
         13    1    4    4    0    0 -0.10995033085E+02  0.24695217148E+02  0.22667022215E+02  0.35278015797E+02  0.00000000000E+00 0. -1.
        -14    1    4    4    0    0  0.81732669210E+02  0.64605704675E+02 -0.83674944597E+01  0.10451861679E+03  0.00000000000E+00 0.  1.
</event>
<event>
12    1  0.1061634E+000  0.2543967E+03  0.7818608E-02  0.1110562E+00
         21   -1    0    0  501  502  0.00000000000E+00  0.00000000000E+00  0.16273635008E+03  0.16273635008E+03  0.00000000000E+00 0.  1.
         21   -1    0    0  502  503 -0.00000000000E+00 -0.00000000000E+00 -0.43548510826E+03  0.43548510826E+03  0.00000000000E+00 0.  1.
         -6    2    1    2    0  503 -0.13111451102E+03 -0.13246774583E+03 -0.22454457332E+03  0.33929802535E+03  0.17310160576E+03 0.  0.
        -24    2    3    3    0    0 -0.45893582238E+02 -0.13945064131E+03 -0.16878316361E+03  0.23710804373E+03  0.78611486630E+02 0.  0.
          6    2    1    2  501    0  0.13111451102E+03  0.13246774583E+03 -0.48204184864E+02  0.25892343299E+03  0.17314439646E+03 0.  0.
         24    2    5    5    0    0  0.88331669471E+02  0.15811435162E+03 -0.55636524807E+02  0.20827316550E+03  0.86485007699E+02 0.  0.
          5    1    5    5  501    0  0.42782841551E+02 -0.25646605784E+02  0.74323399434E+01  0.50650267486E+02  0.47000000000E+01 0. -1.
        -13    1    6    6    0    0  0.48186472003E+01  0.75177596586E+02  0.57075722715E+01  0.75547778065E+02  0.00000000000E+00 0.  1.
         14    1    6    6    0    0  0.83513022271E+02  0.82936755029E+02 -0.61344097078E+02  0.13272538744E+03  0.00000000000E+00 0. -1.
         -5    1    3    3    0  503 -0.85220928784E+02  0.69828954786E+01 -0.55761409709E+02  0.10218998163E+03  0.47000000000E+01 0.  1.
         11    1    4    4    0    0 -0.18483172541E+02 -0.63735050435E+01  0.10900725628E+01  0.19581559997E+02  0.00000000000E+00 0. -1.
        -12    1    4    4    0    0 -0.27410409697E+02 -0.13307713627E+03 -0.16987323617E+03  0.21752648373E+03  0.00000000000E+00 0.  1.
</event>
<event>
12    1  0.1061634E+000  0.1730554E+03  0.7818608E-02  0.1174898E+00
         21   -1    0    0  503  502  0.00000000000E+00  0.00000000000E+00  0.23233200055E+02  0.23233200055E+02  0.00000000000E+00 0.  1.
         21   -1    0    0  501  503 -0.00000000000E+00 -0.00000000000E+00 -0.12832643982E+04  0.12832643982E+04  0.00000000000E+00 0.  1.
          6    2    1    2  501    0 -0.34196746971E+01  0.16420397553E+02 -0.63267648984E+03  0.65571183912E+03  0.17145597550E+03 0.  0.
         24    2    3    3    0    0  0.19814591786E+02  0.58043621555E+02 -0.24124244480E+03  0.26135790478E+03  0.79676578526E+02 0.  0.
         -6    2    1    2    0  502  0.34196746971E+01 -0.16420397553E+02 -0.62735470830E+03  0.65078575913E+03  0.17224067646E+03 0.  0.
        -24    2    5    5    0    0  0.12015889584E+02 -0.41023736458E+02 -0.61469341042E+03  0.62143243462E+03  0.80640891804E+02 0.  0.
          5    1    3    3  501    0 -0.23234266483E+02 -0.41623224002E+02 -0.39143404504E+03  0.39435393434E+03  0.47000000000E+01 0. -1.
        -11    1    4    4    0    0  0.51346007546E+01 -0.20104537552E+02 -0.42362256938E+02  0.47171149742E+02  0.00000000000E+00 0.  1.
         12    1    4    4    0    0  0.14679991032E+02  0.78148159107E+02 -0.19888018787E+03  0.21418675504E+03  0.00000000000E+00 0. -1.
         -5    1    5    5    0  502 -0.85962148867E+01  0.24603338905E+02 -0.12661297881E+02  0.29353324508E+02  0.47000000000E+01 0.  1.
         13    1    6    6    0    0 -0.17491773580E+01 -0.12433244857E+02 -0.10391830515E+02  0.16298323243E+02  0.00000000000E+00 0. -1.
        -14    1    6    6    0    0  0.13765066942E+02 -0.28590491601E+02 -0.60430157991E+03  0.60513411138E+03  0.00000000000E+00 0.  1.
</event>
<event>
12    1  0.1061634E+000  0.3792498E+03  0.7818608E-02  0.1051832E+00
         21   -1    0    0  501  502  0.00000000000E+00  0.00000000000E+00  0.12748626977E+04  0.12748626977E+04  0.00000000000E+00 0.  1.
         21   -1    0    0  502  503 -0.00000000000E+00 -0.00000000000E+00 -0.11085730934E+03  0.11085730934E+03  0.00000000000E+00 0. -1.
         -6    2    1    2    0  503 -0.91745790167E+02 -0.31719404559E+03  0.58110360316E+03  0.69030294631E+03  0.17264821898E+03 0.  0.
        -24    2    3    3    0    0 -0.89662330248E+02 -0.26667324397E+03  0.56672263133E+03  0.63752421431E+03  0.78157728066E+02 0.  0.
          6    2    1    2  501    0  0.91745790167E+02  0.31719404559E+03  0.58290178517E+03  0.69541706068E+03  0.18655038079E+03 0.  0.
         24    2    5    5    0    0  0.11530005027E+03  0.13320275840E+03  0.28273151458E+03  0.34252631516E+03  0.79687457030E+02 0.  0.
          5    1    5    5  501    0 -0.23554260099E+02  0.18399128719E+03  0.30017027059E+03  0.35289074552E+03  0.47000000000E+01 0. -1.
        -13    1    6    6    0    0  0.17888648977E+02  0.27514483658E+02  0.12452972907E+03  0.12878161358E+03  0.00000000000E+00 0.  1.
         14    1    6    6    0    0  0.97411401290E+02  0.10568827474E+03  0.15820178551E+03  0.21374470159E+03  0.00000000000E+00 0. -1.
         -5    1    3    3    0  503 -0.20834599191E+01 -0.50520801616E+02  0.14380971829E+02  0.52778732003E+02  0.47000000000E+01 0.  1.
         13    1    4    4    0    0 -0.47272232520E+02 -0.41609278847E+02  0.12190431410E+03  0.13721026875E+03  0.00000000000E+00 0. -1.
        -14    1    4    4    0    0 -0.42390097728E+02 -0.22506396512E+03  0.44481831722E+03  0.50031394556E+03  0.00000000000E+00 0.  1.
</event>
<event>
12    1  0.1061634E+000  0.1997598E+03  0.7818608E-02  0.1150657E+00
         21   -1    0    0  501  502  0.00000000000E+00  0.00000000000E+00  0.32196377996E+03  0.32196377996E+03  0.00000000000E+00 0.  1.
         21   -1    0    0  502  503 -0.00000000000E+00 -0.00000000000E+00 -0.13132421689E+03  0.13132421689E+03  0.00000000000E+00 0.  1.
         -6    2    1    2    0  503  0.27111795193E+02 -0.96208189915E+02  0.33745878778E+02  0.19928089354E+03  0.16906515001E+03 0.  0.
        -24    2    3    3    0    0 -0.61069029650E+01 -0.85123370962E+01 -0.29762019315E+02  0.85925754134E+02  0.79923108567E+02 0.  0.
          6    2    1    2  501    0 -0.27111795193E+02  0.96208189915E+02  0.15689368428E+03  0.25400710331E+03  0.17295350566E+03 0.  0.
         24    2    5    5    0    0  0.96766754235E+01  0.12596870762E+03  0.13522981061E+03  0.20175297996E+03  0.80345565527E+02 0.  0.
          5    1    5    5  501    0 -0.36788470617E+02 -0.29760517706E+02  0.21663873675E+02  0.52254123350E+02  0.47000000000E+01 0. -1.
        -13    1    6    6    0    0  0.13601022891E+02  0.18541206154E+01 -0.48490426025E+01  0.14558118048E+02  0.00000000000E+00 0.  1.
         14    1    6    6    0    0 -0.39243474673E+01  0.12411458701E+03  0.14007885321E+03  0.18719486192E+03  0.00000000000E+00 0. -1.
         -5    1    3    3    0  503  0.33218698158E+02 -0.87695852818E+02  0.63507898093E+02  0.11335513940E+03  0.47000000000E+01 0.  1.
         11    1    4    4    0    0  0.23096219814E+02  0.25351774827E+02 -0.21427836917E+02  0.40438843350E+02  0.00000000000E+00 0. -1.
        -12    1    4    4    0    0 -0.29203122779E+02 -0.33864111923E+02 -0.83341823982E+01  0.45486910783E+02  0.00000000000E+00 0.  1.
</event>
<event>
12    1  0.1061634E+000  0.1747515E+03  0.7818608E-02  0.1173076E+00
         21   -1    0    0  501  502  0.00000000000E+00  0.00000000000E+00  0.75956196377E+02  0.75956196377E+02  0.00000000000E+00 0.  1.
         21   -1    0    0  502  503 -0.00000000000E+00 -0.00000000000E+00 -0.65310424176E+03  0.65310424176E+03  0.00000000000E+00 0.  1.
         -6    2    1    2    0  503 -0.27572235312E+02 -0.10017697892E+02 -0.51478115342E+03  0.54351334097E+03  0.17189105114E+03 0.  0.
        -24    2    3    3    0    0 -0.38140809008E+02 -0.25275899942E+02 -0.13613323715E+03  0.16438164620E+03  0.79971713256E+02 0.  0.
          6    2    1    2  501    0  0.27572235312E+02  0.10017697892E+02 -0.62366891956E+02  0.18554709716E+03  0.17227162745E+03 0.  0.
         24    2    5    5    0    0  0.79639055681E+02 -0.62309065175E+01 -0.67967690496E+02  0.13051592534E+03  0.77676228210E+02 0.  0.
          5    1    5    5  501    0 -0.52066820369E+02  0.16248604409E+02  0.56007985403E+01  0.55031171829E+02  0.47000000000E+01 0. -1.
        -11    1    6    6    0    0 -0.12962201329E+02  0.70770589066E+01  0.18754811516E+00  0.14769515915E+02  0.00000000000E+00 0.  1.
         12    1    6    6    0    0  0.92601257010E+02 -0.13307965424E+02 -0.68155238612E+02  0.11574640942E+03  0.00000000000E+00 0. -1.
         -5    1    3    3    0  503  0.10568573696E+02  0.15258202050E+02 -0.37864791627E+03  0.37913169477E+03  0.47000000000E+01 0.  1.
         11    1    4    4    0    0 -0.60667666140E+02 -0.56539977302E+01 -0.77571909932E+02  0.98640430938E+02  0.00000000000E+00 0. -1.
        -12    1    4    4    0    0  0.22526857132E+02 -0.19621902212E+02 -0.58561327219E+02  0.65741215263E+02  0.00000000000E+00 0.  1.
</event>
<event>
12    1  0.1061634E+000  0.2238897E+03  0.7818608E-02  0.1131031E+00
         21   -1    0    0  501  502  0.00000000000E+00  0.00000000000E+00  0.23092931076E+03  0.23092931076E+03  0.00000000000E+00 0.  1.
         21   -1    0    0  502  503 -0.00000000000E+00 -0.00000000000E+00 -0.24650621010E+03  0.24650621010E+03  0.00000000000E+00 0. -1.
         -6    2    1    2    0  503  0.12143652360E+03  0.77298371456E+02  0.74821901235E+02  0.23598462785E+03  0.17137257711E+03 0.  0.
        -24    2    3    3    0    0  0.15377229689E+03  0.52450120222E+02  0.49292642230E+02  0.18764343538E+03  0.79895931436E+02 0.  0.
          6    2    1    2  501    0 -0.12143652360E+03 -0.77298371456E+02 -0.90398800581E+02  0.24145089301E+03  0.17147805426E+03 0.  0.
         24    2    5    5    0    0 -0.39862149357E+02 -0.14102319789E+02 -0.10278288801E+03  0.13741448063E+03  0.80811824906E+02 0.  0.
          5    1    5    5  501    0 -0.81574374239E+02 -0.63196051667E+02  0.12384087427E+02  0.10403641238E+03  0.47000000000E+01 0. -1.
        -11    1    6    6    0    0 -0.44611341593E+02  0.71266715689E+01 -0.15968550170E+02  0.47916133409E+02  0.00000000000E+00 0.  1.
         12    1    6    6    0    0  0.47491922359E+01 -0.21228991357E+02 -0.86814337837E+02  0.89498347220E+02  0.00000000000E+00 0. -1.
         -5    1    3    3    0  503 -0.32335773297E+02  0.24848251234E+02  0.25529259005E+02  0.48341192470E+02  0.47000000000E+01 0.  1.
         13    1    4    4    0    0  0.37747945968E+02 -0.80454091509E+01 -0.15548634806E+02  0.41610047796E+02  0.00000000000E+00 0. -1.
        -14    1    4    4    0    0  0.11602435093E+03  0.60495529372E+02  0.64841277036E+02  0.14603338758E+03  0.00000000000E+00 0.  1.
</event>
<event>
12    1  0.1061634E+000  0.1750750E+03  0.7818608E-02  0.1173444E+00
         21   -1    0    0  503  502  0.00000000000E+00  0.00000000000E+00  0.44442965398E+02  0.44442965398E+02  0.00000000000E+00 0.  1.
         21   -1    0    0  501  503 -0.00000000000E+00 -0.00000000000E+00 -0.11100702864E+04  0.11100702864E+04  0.00000000000E+00 0.  1.
          6    2    1    2  501    0  0.15516182409E+02  0.23802407362E+02 -0.89024732605E+03  0.90670405603E+03  0.16960140675E+03 0.  0.
         24    2    3    3    0    0 -0.13580493018E+02 -0.44769825238E+02 -0.61637358718E+03  0.62284197254E+03  0.76334505535E+02 0.  0.
         -6    2    1    2    0  502 -0.15516182409E+02 -0.23802407362E+02 -0.17537999498E+03  0.24780919579E+03  0.17275401115E+03 0.  0.
        -24    2    5    5    0    0  0.45833339988E+02 -0.51685011980E+02 -0.11317814222E+03  0.15598129140E+03  0.82151298663E+02 0.  0.
          5    1    3    3  501    0  0.29096675427E+02  0.68572232600E+02 -0.27387373886E+03  0.28386208349E+03  0.47000000000E+01 0. -1.
        -11    1    4    4    0    0 -0.74930490534E+01  0.77379417581E+01 -0.39858131745E+03  0.39872683399E+03  0.00000000000E+00 0.  1.
         12    1    4    4    0    0 -0.60874439649E+01 -0.52507766996E+02 -0.21779226973E+03  0.22411513855E+03  0.00000000000E+00 0. -1.
         -5    1    5    5    0  502 -0.61349522396E+02  0.27882604618E+02 -0.62201852752E+02  0.91827904388E+02  0.47000000000E+01 0.  1.
         13    1    6    6    0    0 -0.16434819985E+02 -0.21551619439E+02 -0.68408358285E+02  0.73581785053E+02  0.00000000000E+00 0. -1.
        -14    1    6    6    0    0  0.62268159973E+02 -0.30133392541E+02 -0.44769783939E+02  0.82399506348E+02  0.00000000000E+00 0.  1.
</event>
<event>
12    1  0.1061634E+000  0.2486349E+03  0.7818608E-02  0.1114178E+00
         21   -1    0    0  503  502  0.00000000000E+00  0.00000000000E+00  0.72308063046E+03  0.72308063046E+03  0.00000000000E+00 0. -1.
         21   -1    0    0  501  503 -0.00000000000E+00 -0.00000000000E+00 -0.10296862464E+03  0.10296862464E+03  0.00000000000E+00 0. -1.
          6    2    1    2  501    0  0.24689243701E+02 -0.17785145952E+03  0.13985907177E+03  0.28527155991E+03  0.17198430896E+03 0.  0.
         24    2    3    3    0    0 -0.18101446367E+02 -0.45301058663E+02  0.56725552190E+01  0.91806412795E+02  0.77565399961E+02 0.  0.
         -6    2    1    2    0  502 -0.24689243701E+02  0.17785145952E+03  0.48025293404E+03  0.54077769519E+03  0.17192130337E+03 0.  0.
        -24    2    5    5    0    0 -0.69849278831E+02  0.82592226643E+02  0.19595901059E+03  0.23753047734E+03  0.79500919362E+02 0.  0.
          5    1    3    3  501    0  0.42790690068E+02 -0.13255040086E+03  0.13418651655E+03  0.19346514711E+03  0.47000000000E+01 0. -1.
        -11    1    4    4    0    0  0.17425066720E+02 -0.10194665042E+02 -0.25808908605E+02  0.32766811088E+02  0.00000000000E+00 0.  1.
         12    1    4    4    0    0 -0.35526513088E+02 -0.35106393620E+02  0.31481463824E+02  0.59039601707E+02  0.00000000000E+00 0. -1.
         -5    1    5    5    0  502  0.45160035130E+02  0.95259232876E+02  0.28429392345E+03  0.30324721785E+03  0.47000000000E+01 0.  1.
         11    1    6    6    0    0 -0.53818735948E+01  0.61701712080E+02  0.63277252397E+02  0.88544206519E+02  0.00000000000E+00 0. -1.
        -12    1    6    6    0    0 -0.64467405236E+02  0.20890514562E+02  0.13268175819E+03  0.14898627082E+03  0.00000000000E+00 0.  1.
</event>
<event>
12    1  0.1395497E+000  0.2022586E+03  0.7818608E-02  0.1147977E+00
         21   -1    0    0  501  502  0.00000000000E+00  0.00000000000E+00  0.21558580967E+03  0.21558580967E+03  0.00000000000E+00 0.  1.
         21   -1    0    0  502  503 -0.00000000000E+00 -0.00000000000E+00 -0.56624280209E+03  0.56624280209E+03  0.00000000000E+00 0.  1.
         -6    2    1    2    0  503  0.94678879668E+02 -0.46980124796E+02  0.14376315568E+03  0.24763779787E+03  0.17171316671E+03 0.  0.
        -24    2    3    3    0    0  0.11442689386E+03 -0.75641501610E+02  0.91170486540E+02  0.18439590169E+03  0.82913449690E+02 0.  0.
          6    2    1    2  501    0 -0.94678879668E+02  0.46980124796E+02 -0.49442014810E+03  0.53419081388E+03  0.17244512289E+03 0.  0.
         24    2    5    5    0    0 -0.51745969078E+02  0.13152999151E+02 -0.75319046123E+02  0.11151442121E+03  0.62544869711E+02 0.  0.
          5    1    5    5  501    0 -0.42932910591E+02  0.33827125645E+02 -0.41910110198E+03  0.42267639267E+03  0.47000000000E+01 0. -1.
        -11    1    6    6    0    0  0.14962927852E+01 -0.97314263912E+01  0.60960213946E+01  0.11580199849E+02  0.00000000000E+00 0.  1.
         12    1    6    6    0    0 -0.53242261863E+02  0.22884425542E+02 -0.81415067518E+02  0.99934221364E+02  0.00000000000E+00 0. -1.
         -5    1    3    3    0  503 -0.19748014192E+02  0.28661376814E+02  0.52592669140E+02  0.63241896182E+02  0.47000000000E+01 0.  1.
         11    1    4    4    0    0  0.49311446481E+02 -0.41251187918E+02  0.90179350775E+02  0.11075014476E+03  0.00000000000E+00 0. -1.
        -12    1    4    4    0    0  0.65115447379E+02 -0.34390313692E+02  0.99113576475E+00  0.73645756926E+02  0.00000000000E+00 0.  1.
</event>
<event>
12    1  0.1061634E+000  0.1821101E+03  0.7818608E-02  0.1166441E+00
         21   -1    0    0  503  502  0.00000000000E+00  0.00000000000E+00  0.17305700389E+03  0.17305700389E+03  0.00000000000E+00 0.  1.
         21   -1    0    0  501  503 -0.00000000000E+00 -0.00000000000E+00 -0.19571844738E+03  0.19571844738E+03  0.00000000000E+00 0.  1.
          6    2    1    2  501    0 -0.17147287059E+02  0.47052665169E+02 -0.46072918829E+02  0.18516663841E+03  0.17220913849E+03 0.  0.
         24    2    3    3    0    0  0.31347789888E+02  0.71212171477E+02 -0.63057435569E+02  0.12819280194E+03  0.80020603550E+02 0.  0.
         -6    2    1    2    0  502  0.17147287059E+02 -0.47052665169E+02  0.23411475346E+02  0.18360881286E+03  0.17508888094E+03 0.  0.
        -24    2    5    5    0    0 -0.24629713433E+02 -0.56550290169E+02 -0.38483650103E+02  0.10818587732E+03  0.80116381745E+02 0.  0.
          5    1    3    3  501    0 -0.48495076947E+02 -0.24159506308E+02  0.16984516740E+02  0.56973836469E+02  0.47000000000E+01 0. -1.
        -13    1    4    4    0    0  0.12465780587E+01 -0.17173504219E+02 -0.38866424122E+01  0.17651889226E+02  0.00000000000E+00 0.  1.
         14    1    4    4    0    0  0.30101211829E+02  0.88385675696E+02 -0.59170793157E+02  0.11054091272E+03  0.00000000000E+00 0. -1.
         -5    1    5    5    0  502  0.41777000492E+02  0.94976250002E+01  0.61895125449E+02  0.75422935538E+02  0.47000000000E+01 0.  1.
         13    1    6    6    0    0  0.73441908666E+01 -0.65907545770E+02 -0.16715691235E+02  0.68389736528E+02  0.00000000000E+00 0. -1.
        -14    1    6    6    0    0 -0.31973904299E+02  0.93572556008E+01 -0.21767958868E+02  0.39796140790E+02  0.00000000000E+00 0.  1.
</event>
<event>
12    1  0.1061634E+000  0.1915171E+03  0.7818608E-02  0.1157220E+00
         21   -1    0    0  503  502  0.00000000000E+00  0.00000000000E+00  0.18928764313E+03  0.18928764313E+03  0.00000000000E+00 0. -1.
         21   -1    0    0  501  503 -0.00000000000E+00 -0.00000000000E+00 -0.20593358079E+03  0.20593358079E+03  0.00000000000E+00 0. -1.
          6    2    1    2  501    0  0.55266307359E+02  0.64605498467E+02  0.40748560952E+02  0.19580412190E+03  0.17161169474E+03 0.  0.
         24    2    3    3    0    0  0.47100693354E+02  0.50869125491E+01 -0.35219632635E+02  0.98838170357E+02  0.79273005512E+02 0.  0.
         -6    2    1    2    0  502 -0.55266307359E+02 -0.64605498467E+02 -0.57394498611E+02  0.19941710202E+03  0.17101116029E+03 0.  0.
        -24    2    5    5    0    0 -0.13519586127E+01  0.24587342274E+01 -0.74168634918E+02  0.11162285416E+03  0.83371469937E+02 0.  0.
          5    1    3    3  501    0  0.81656140050E+01  0.59518585918E+02  0.75968193586E+02  0.96965951543E+02  0.47000000000E+01 0. -1.
        -13    1    4    4    0    0  0.18316699088E+02  0.34576997612E+02 -0.41631132462E+02  0.57133365203E+02  0.00000000000E+00 0.  1.
         14    1    4    4    0    0  0.28783994266E+02 -0.29490085063E+02  0.64114998278E+01  0.41704805154E+02  0.00000000000E+00 0. -1.
         -5    1    5    5    0  502 -0.53914348746E+02 -0.67064232695E+02  0.16774136307E+02  0.87794247855E+02  0.47000000000E+01 0.  1.
         11    1    6    6    0    0  0.15321734783E+02 -0.37015137131E+02 -0.29711711713E+02  0.49876464855E+02  0.00000000000E+00 0. -1.
        -12    1    6    6    0    0 -0.16673693396E+02  0.39473871358E+02 -0.44456923206E+02  0.61746389306E+02  0.00000000000E+00 0.  1.
</event>
<event>
12    1  0.1061634E+000  0.1721500E+03  0.7818608E-02  0.1175746E+00
         21   -1    0    0  501  502  0.00000000000E+00  0.00000000000E+00  0.31072723910E+03  0.31072723910E+03  0.00000000000E+00 0. -1.
         21   -1    0    0  502  503 -0.00000000000E+00 -0.00000000000E+00 -0.10618868355E+03  0.10618868355E+03  0.00000000000E+00 0. -1.
         -6    2    1    2    0  503 -0.10133871028E+01 -0.72377555810E+01  0.35072833639E+02  0.17568648398E+03  0.17199483985E+03 0.  0.
        -24    2    3    3    0    0  0.62900485961E+02 -0.16424104125E+02  0.40346521565E+02  0.11073054542E+03  0.80044922114E+02 0.  0.
          6    2    1    2  501    0  0.10133871028E+01  0.72377555810E+01  0.16946572191E+03  0.24122943868E+03  0.17152142467E+03 0.  0.
         24    2    5    5    0    0 -0.12699259000E+02  0.61442787058E+02  0.59273903164E+02  0.11757447914E+03  0.79836553577E+02 0.  0.
          5    1    5    5  501    0  0.13712646103E+02 -0.54205031477E+02  0.11019181875E+03  0.12365495954E+03  0.47000000000E+01 0. -1.
        -13    1    6    6    0    0 -0.34205003011E+02  0.38026588344E+02  0.67542967007E+02  0.84723409068E+02  0.00000000000E+00 0.  1.
         14    1    6    6    0    0  0.21505744011E+02  0.23416198714E+02 -0.82690638430E+01  0.32851070067E+02  0.00000000000E+00 0. -1.
         -5    1    3    3    0  503 -0.63913873064E+02  0.91863485436E+01 -0.52736879259E+01  0.64955938558E+02  0.47000000000E+01 0.  1.
         11    1    4    4    0    0 -0.11628033605E+02  0.14077738217E+02  0.21157931866E+02  0.27947306841E+02  0.00000000000E+00 0. -1.
        -12    1    4    4    0    0  0.74528519567E+02 -0.30501842342E+02  0.19188589699E+02  0.82783238579E+02  0.00000000000E+00 0.  1.
</event>
<event>
12    1  0.1061634E+000  0.4743392E+03  0.7818608E-02  0.1021303E+00
         21   -1    0    0  503  502  0.00000000000E+00  0.00000000000E+00  0.82555161708E+03  0.82555161708E+03  0.00000000000E+00 0. -1.
         21   -1    0    0  501  503 -0.00000000000E+00 -0.00000000000E+00 -0.33667112625E+03  0.33667112625E+03  0.00000000000E+00 0. -1.
          6    2    1    2  501    0 -0.38679875172E+03  0.19736239277E+03 -0.20391891255E+02  0.46626579730E+03  0.16859055754E+03 0.  0.
         24    2    3    3    0    0 -0.33209791969E+03  0.10398908202E+03 -0.79923156563E+01  0.35724013216E+03  0.80336028483E+02 0.  0.
         -6    2    1    2    0  502  0.38679875172E+03 -0.19736239277E+03  0.50927238209E+03  0.69595694603E+03  0.19087305511E+03 0.  0.
        -24    2    5    5    0    0  0.12070458658E+03 -0.10043221461E+03  0.12429919653E+03  0.21801551891E+03  0.86164083450E+02 0.  0.
          5    1    3    3  501    0 -0.54700832029E+02  0.93373310745E+02 -0.12399575599E+02  0.10902566514E+03  0.47000000000E+01 0.  1.
        -11    1    4    4    0    0 -0.27699013712E+03  0.11645965248E+03 -0.10779826694E+02  0.30067023694E+03  0.00000000000E+00 0.  1.
         12    1    4    4    0    0 -0.55107782570E+02 -0.12470570457E+02  0.27875110377E+01  0.56569895219E+02  0.00000000000E+00 0. -1.
         -5    1    5    5    0  502  0.26609416514E+03 -0.96930178156E+02  0.38497318556E+03  0.47794142712E+03  0.47000000000E+01 0.  1.
         13    1    6    6    0    0  0.10380883338E+03 -0.71271300375E+02  0.13305721247E+03  0.18319414274E+03  0.00000000000E+00 0. -1.
        -14    1    6    6    0    0  0.16895753192E+02 -0.29160914236E+02 -0.87580159408E+01  0.34821376168E+02  0.00000000000E+00 0.  1.
</event>
<event>
12    1  0.1061634E+000  0.2116373E+03  0.7818608E-02  0.1140288E+00
         21   -1    0    0  503  502  0.00000000000E+00  0.00000000000E+00  0.37920771722E+03  0.37920771722E+03  0.00000000000E+00 0.  1.
         21   -1    0    0  501  503 -0.00000000000E+00 -0.00000000000E+00 -0.19210963242E+03  0.19210963242E+03  0.00000000000E+00 0.  1.
          6    2    1    2  501    0 -0.15909598465E+02 -0.12146600577E+03  0.27088365848E+03  0.34375619224E+03  0.17257826455E+03 0.  0.
         24    2    3    3    0    0  0.71370782892E+01 -0.90253917361E+02  0.27217471803E+03  0.30465247622E+03  0.10265157886E+03 0.  0.
         -6    2    1    2    0  502  0.15909598465E+02  0.12146600577E+03 -0.83785573676E+02  0.22756115740E+03  0.17250203512E+03 0.  0.
        -24    2    5    5    0    0  0.14816808359E+02  0.13887023635E+03 -0.11082439087E+03  0.19504517567E+03  0.79095477672E+02 0.  0.
          5    1    3    3  501    0 -0.23046676754E+02 -0.31212088406E+02 -0.12910595578E+01  0.39103716023E+02  0.47000000000E+01 0. -1.
        -11    1    4    4    0    0  0.19551668001E+02  0.15596782920E+02  0.24455899699E+02  0.34980257134E+02  0.00000000000E+00 0.  1.
         12    1    4    4    0    0 -0.12414589712E+02 -0.10585070028E+03  0.24771881834E+03  0.26967221908E+03  0.00000000000E+00 0. -1.
         -5    1    5    5    0  502  0.10927901056E+01 -0.17404230579E+02  0.27038817197E+02  0.32515981727E+02  0.47000000000E+01 0.  1.
         11    1    6    6    0    0 -0.24989680622E+02  0.74109380066E+02 -0.29139423533E+02  0.83461310529E+02  0.00000000000E+00 0. -1.
        -12    1    6    6    0    0  0.39806488981E+02  0.64760856280E+02 -0.81684967340E+02  0.11158386514E+03  0.00000000000E+00 0.  1.
</event>
<event>
12    1  0.1061634E+000  0.1988012E+03  0.7818608E-02  0.1151162E+00
         21   -1    0    0  503  502  0.00000000000E+00  0.00000000000E+00  0.12490604496E+03  0.12490604496E+03  0.00000000000E+00 0.  1.
         21   -1    0    0  501  503 -0.00000000000E+00 -0.00000000000E+00 -0.33322357701E+03  0.33322357701E+03  0.00000000000E+00 0.  1.
          6    2    1    2  501    0 -0.39931291986E+02  0.89757840609E+02 -0.47796668365E+02  0.20261279251E+03  0.17063541295E+03 0.  0.
         24    2    3    3    0    0 -0.68104398108E+02  0.10251784185E+03 -0.71574011868E+02  0.16331910848E+03  0.80013593111E+02 0.  0.
         -6    2    1    2    0  502  0.39931291986E+02 -0.89757840609E+02 -0.16052086369E+03  0.25551682945E+03  0.17283207001E+03 0.  0.
        -24    2    5    5    0    0  0.86169841925E+02 -0.65961837773E+02 -0.10786962108E+03  0.18136498120E+03  0.97371430890E+02 0.  0.
          5    1    3    3  501    0  0.28173106122E+02 -0.12760001238E+02  0.23777343504E+02  0.39293684025E+02  0.47000000000E+01 0. -1.
        -11    1    4    4    0    0  0.32962571425E+01  0.59050187206E+02 -0.48813255945E+02  0.76684573912E+02  0.00000000000E+00 0.  1.
         12    1    4    4    0    0 -0.71400655251E+02  0.43467654642E+02 -0.22760755923E+02  0.86634534572E+02  0.00000000000E+00 0. -1.
         -5    1    5    5    0  502 -0.46238549939E+02 -0.23796002837E+02 -0.52651242610E+02  0.74151848256E+02  0.47000000000E+01 0.  1.
         13    1    6    6    0    0 -0.99246177080E+01 -0.42510893153E+02 -0.16378121226E+02  0.46625282071E+02  0.00000000000E+00 0. -1.
        -14    1    6    6    0    0  0.96094459633E+02 -0.23450944620E+02 -0.91491499849E+02  0.13473969912E+03  0.00000000000E+00 0.  1.
</event>
<event>
12    1  0.1061634E+000  0.1953035E+03  0.7818608E-02  0.1154170E+00
         21   -1    0    0  501  502  0.00000000000E+00  0.00000000000E+00  0.16767484229E+03  0.16767484229E+03  0.00000000000E+00 0. -1.
         21   -1    0    0  502  503 -0.00000000000E+00 -0.00000000000E+00 -0.29880423220E+03  0.29880423220E+03  0.00000000000E+00 0. -1.
         -6    2    1    2    0  503 -0.79378488477E+02 -0.44156023786E+02 -0.18146417137E+03  0.26659464338E+03  0.17289522700E+03 0.  0.
        -24    2    3    3    0    0 -0.68543367991E+02  0.24722582197E+02 -0.15928531979E+03  0.19327579413E+03  0.81696512344E+02 0.  0.
          6    2    1    2  501    0  0.79378488477E+02  0.44156023786E+02  0.50334781467E+02  0.19988443111E+03  0.17079079807E+03 0.  0.
         24    2    5    5    0    0  0.11499078499E+03  0.55008313329E+02  0.38673539914E+02  0.16058961713E+03  0.89691623197E+02 0.  0.
          5    1    5    5  501    0 -0.35612296511E+02 -0.10852289543E+02  0.11661241553E+02  0.39294813980E+02  0.47000000000E+01 0. -1.
        -13    1    6    6    0    0  0.54606035366E+02 -0.21144903760E+02  0.17569921335E+02  0.61136144703E+02  0.00000000000E+00 0.  1.
         14    1    6    6    0    0  0.60384749623E+02  0.76153217089E+02  0.21103618578E+02  0.99453472423E+02  0.00000000000E+00 0. -1.
         -5    1    3    3    0  503 -0.10835120486E+02 -0.68878605982E+02 -0.22178851580E+02  0.73318849250E+02  0.47000000000E+01 0.  1.
         11    1    4    4    0    0 -0.67199676143E+02  0.20647506546E+02 -0.16879149655E+03  0.18284606998E+03  0.00000000000E+00 0. -1.
        -12    1    4    4    0    0 -0.13436918483E+01  0.40750756505E+01  0.95061767554E+01  0.10429724150E+02  0.00000000000E+00 0.  1.
</event>
<event>
12    1  0.1061634E+000  0.1758040E+03  0.7818608E-02  0.1171976E+00
         21   -1    0    0  503  502  0.00000000000E+00  0.00000000000E+00  0.39251022735E+02  0.39251022735E+02  0.00000000000E+00 0.  1.
         21   -1    0    0  501  503 -0.00000000000E+00 -0.00000000000E+00 -0.83217222448E+03  0.83217222448E+03  0.00000000000E+00 0.  1.
          6    2    1    2  501    0  0.16652790677E+02 -0.26830762359E+02 -0.29420674213E+03  0.34262917931E+03  0.17274241561E+03 0.  0.
         24    2    3    3    0    0 -0.29581335285E+02 -0.50967083772E+02 -0.96415027007E+02  0.13802270584E+03  0.79257244893E+02 0.  0.
         -6    2    1    2    0  502 -0.16652790677E+02  0.26830762359E+02 -0.49871445961E+03  0.52879406790E+03  0.17294464079E+03 0.  0.
        -24    2    5    5    0    0  0.30780433199E+02  0.67616733394E+02 -0.37268320389E+03  0.38801277092E+03  0.78368885639E+02 0.  0.
          5    1    3    3  501    0  0.46234125963E+02  0.24136321413E+02 -0.19779171512E+03  0.20460647347E+03  0.47000000000E+01 0. -1.
        -11    1    4    4    0    0 -0.35705541714E+02  0.81371001862E+01 -0.53043681543E+02  0.64457197117E+02  0.00000000000E+00 0.  1.
         12    1    4    4    0    0  0.61242064282E+01 -0.59104183958E+02 -0.43371345464E+02  0.73565508719E+02  0.00000000000E+00 0. -1.
         -5    1    5    5    0  502 -0.47433223877E+02 -0.40785971034E+02 -0.12603125572E+03  0.14078129698E+03  0.47000000000E+01 0.  1.
         11    1    6    6    0    0 -0.26529733470E+02  0.20025742968E+02 -0.12759413702E+03  0.13185264859E+03  0.00000000000E+00 0. -1.
        -12    1    6    6    0    0  0.57310166669E+02  0.47590990426E+02 -0.24508906687E+03  0.25616012233E+03  0.00000000000E+00 0.  1.
</event>
<event>
12    1  0.1061634E+000  0.1859379E+03  0.7818608E-02  0.1162278E+00
         21   -1    0    0  503  502  0.00000000000E+00  0.00000000000E+00  0.48525222605E+02  0.48525222605E+02  0.00000000000E+00 0. -1.
         21   -1    0    0  501  503 -0.00000000000E+00 -0.00000000000E+00 -0.71117742055E+03  0.71117742055E+03  0.00000000000E+00 0. -1.
          6    2    1    2  501    0  0.15771885154E+02 -0.66352712233E+02 -0.34047107305E+03  0.38793483560E+03  0.17297817871E+03 0.  0.
         24    2    3    3    0    0  0.56204354103E+02  0.82521795728E+01 -0.22051831799E+03  0.24092657776E+03  0.78678201651E+02 0.  0.
         -6    2    1    2    0  502 -0.15771885154E+02  0.66352712233E+02 -0.32218112489E+03  0.37176780755E+03  0.17250852359E+03 0.  0.
        -24    2    5    5    0    0  0.15241274082E+02  0.63305870703E+02 -0.93025101174E+02  0.14045487558E+03  0.82667846984E+02 0.  0.
          5    1    3    3  501    0 -0.40432468950E+02 -0.74604891806E+02 -0.11995275505E+03  0.14700825784E+03  0.47000000000E+01 0. -1.
        -13    1    4    4    0    0 -0.11368760313E+01 -0.26161258552E+02 -0.34920540145E+02  0.43648001789E+02  0.00000000000E+00 0.  1.
         14    1    4    4    0    0  0.57341230135E+02  0.34413438125E+02 -0.18559777785E+03  0.19727857597E+03  0.00000000000E+00 0. -1.
         -5    1    5    5    0  502 -0.31013159236E+02  0.30468415301E+01 -0.22915602372E+03  0.23131293197E+03  0.47000000000E+01 0.  1.
         11    1    6    6    0    0  0.33895949589E+02  0.67332646850E+01 -0.67125729161E+02  0.75499243488E+02  0.00000000000E+00 0. -1.
        -12    1    6    6    0    0 -0.18654675507E+02  0.56572606018E+02 -0.25899372013E+02  0.64955632093E+02  0.00000000000E+00 0.  1.
</event>
<event>
12    1  0.1061634E+000  0.2207128E+03  0.7818608E-02  0.1133806E+00
         21   -1    0    0  501  502  0.00000000000E+00  0.00000000000E+00  0.20682497731E+03  0.20682497731E+03  0.00000000000E+00 0. -1.
         21   -1    0    0  502  503 -0.00000000000E+00 -0.00000000000E+00 -0.24098184042E+03  0.24098184042E+03  0.00000000000E+00 0. -1.
         -6    2    1    2    0  503  0.35144043945E+02  0.13280514601E+03  0.23705321307E+02  0.22198217393E+03  0.17274788755E+03 0.  0.
        -24    2    3    3    0    0  0.58593002489E+02  0.11771892323E+02  0.98293957676E+01  0.97830921560E+02  0.76828086027E+02 0.  0.
          6    2    1    2  501    0 -0.35144043945E+02 -0.13280514601E+03 -0.57862184423E+02  0.22582464380E+03  0.16963615985E+03 0.  0.
         24    2    5    5    0    0  0.10733747624E+02 -0.14924001006E+03 -0.47364588853E+02  0.17575303480E+03  0.79107085797E+02 0.  0.
          5    1    5    5  501    0 -0.45877791569E+02  0.16434864045E+02 -0.10497595571E+02  0.50071609004E+02  0.47000000000E+01 0. -1.
        -11    1    6    6    0    0 -0.19191944624E+02 -0.57867746596E+01  0.40564599030E+01  0.20451708152E+02  0.00000000000E+00 0.  1.
         12    1    6    6    0    0  0.29925692248E+02 -0.14345323540E+03 -0.51421048756E+02  0.15530132664E+03  0.00000000000E+00 0. -1.
         -5    1    3    3    0  503 -0.23448958544E+02  0.12103325369E+03  0.13875925540E+02  0.12415125237E+03  0.47000000000E+01 0.  1.
         11    1    4    4    0    0  0.27140919850E+02 -0.32312432678E+02  0.11199660233E+02  0.43659537620E+02  0.00000000000E+00 0. -1.
        -12    1    4    4    0    0  0.31452082640E+02  0.44084325002E+02 -0.13702644658E+01  0.54171383940E+02  0.00000000000E+00 0.  1.
</event>
<event>
12    1  0.1061634E+000  0.2151646E+03  0.7818608E-02  0.1138040E+00
         21   -1    0    0  501  502  0.00000000000E+00  0.00000000000E+00  0.16268849331E+03  0.16268849331E+03  0.00000000000E+00 0.  1.
         21   -1    0    0  502  503 -0.00000000000E+00 -0.00000000000E+00 -0.31784849768E+03  0.31784849768E+03  0.00000000000E+00 0.  1.
         -6    2    1    2    0  503  0.10316270426E+03  0.75010340313E+02  0.36407973487E+01  0.21519541511E+03  0.17328218770E+03 0.  0.
        -24    2    3    3    0    0  0.62930317399E+02  0.11365306721E+02  0.62243311622E+02  0.11966699037E+03  0.79728060925E+02 0.  0.
          6    2    1    2  501    0 -0.10316270426E+03 -0.75010340313E+02 -0.15880080171E+03  0.26534157588E+03  0.17005693917E+03 0.  0.
         24    2    5    5    0    0 -0.53359752236E+01 -0.27132866264E+02 -0.14988724216E+02  0.84880153216E+02  0.78837259548E+02 0.  0.
          5    1    5    5  501    0 -0.97826729040E+02 -0.47877474049E+02 -0.14381207750E+03  0.18046142266E+03  0.47000000000E+01 0. -1.
        -13    1    6    6    0    0 -0.11707354202E+02 -0.40394899848E+02  0.20260909304E+02  0.46683128879E+02  0.00000000000E+00 0.  1.
         14    1    6    6    0    0  0.63713789779E+01  0.13262033583E+02 -0.35249633521E+02  0.38197024337E+02  0.00000000000E+00 0. -1.
         -5    1    3    3    0  503  0.40232386864E+02  0.63645033592E+02 -0.58602514273E+02  0.95528424738E+02  0.47000000000E+01 0.  1.
         11    1    4    4    0    0  0.50736061466E+02  0.35890765542E+02  0.13260300582E+02  0.63546286719E+02  0.00000000000E+00 0. -1.
        -12    1    4    4    0    0  0.12194255933E+02 -0.24525458821E+02  0.48983011041E+02  0.56120703655E+02  0.00000000000E+00 0.  1.
</event>
<event>
12    1  0.1061634E+000  0.2121961E+03  0.7818608E-02  0.1140005E+00
         21   -1    0    0  501  502  0.00000000000E+00  0.00000000000E+00  0.34760106707E+03  0.34760106707E+03  0.00000000000E+00 0. -1.
         21   -1    0    0  502  503 -0.00000000000E+00 -0.00000000000E+00 -0.15749511995E+03  0.15749511995E+03  0.00000000000E+00 0. -1.
         -6    2    1    2    0  503 -0.10392667081E+03 -0.64335727193E+02  0.20228276051E+03  0.29255104078E+03  0.17241797343E+03 0.  0.
        -24    2    3    3    0    0 -0.13616827019E+03 -0.34439133727E+02  0.18417657222E+03  0.24476766411E+03  0.79134997959E+02 0.  0.
          6    2    1    2  501    0  0.10392667081E+03  0.64335727193E+02 -0.12176813387E+02  0.21254514625E+03  0.17345698518E+03 0.  0.
         24    2    5    5    0    0  0.90067489174E+02 -0.11143734221E+02  0.34930260151E+02  0.12237645773E+03  0.74293599417E+02 0.  0.
          5    1    5    5  501    0  0.13859181636E+02  0.75479461414E+02 -0.47107073538E+02  0.90168688513E+02  0.47000000000E+01 0. -1.
        -13    1    6    6    0    0  0.85345006842E+01  0.26071153912E+02  0.49868529983E+01  0.27882099474E+02  0.00000000000E+00 0.  1.
         14    1    6    6    0    0  0.81532988490E+02 -0.37214888132E+02  0.29943407152E+02  0.94494358258E+02  0.00000000000E+00 0. -1.
         -5    1    3    3    0  503  0.32241599378E+02 -0.29896593466E+02  0.18106188284E+02  0.47783376665E+02  0.47000000000E+01 0.  1.
         13    1    4    4    0    0 -0.60460285727E+02  0.18586123112E+02  0.10725268825E+03  0.12451517682E+03  0.00000000000E+00 0. -1.
        -14    1    4    4    0    0 -0.75707984461E+02 -0.53025256839E+02  0.76923883974E+02  0.12025248729E+03  0.00000000000E+00 0.  1.
</event>
<event>
12    1  0.1061634E+000  0.1744310E+03  0.7818608E-02  0.1173574E+00
         21   -1    0    0  501  502  0.00000000000E+00  0.00000000000E+00  0.26107518564E+03  0.26107518564E+03  0.00000000000E+00 0.  1.
         21   -1    0    0  502  503 -0.00000000000E+00 -0.00000000000E+00 -0.13040694394E+03  0.13040694394E+03  0.00000000000E+00 0.  1.
         -6    2    1    2    0  503  0.11051860432E+02 -0.23219702418E+02  0.13095139694E+03  0.21811568955E+03  0.17252503433E+03 0.  0.
        -24    2    3    3    0    0 -0.15872220380E+02  0.53055108506E+02  0.79667356344E+02  0.12222567063E+03  0.74333404173E+02 0.  0.
          6    2    1    2  501    0 -0.11051860432E+02  0.23219702418E+02 -0.28315523952E+00  0.17336644003E+03  0.17144837168E+03 0.  0.
         24    2    5    5    0    0 -0.24852029370E+02 -0.10472358193E+02 -0.56552077892E+02  0.10618101551E+03  0.85726173900E+02 0.  0.
          5    1    5    5  501    0  0.13800168938E+02  0.33692060611E+02  0.56268922652E+02  0.67185424516E+02  0.47000000000E+01 0. -1.
        -11    1    6    6    0    0  0.23989271149E+02  0.11573171092E+02  0.21221771451E+01  0.26719413452E+02  0.00000000000E+00 0.  1.
         12    1    6    6    0    0 -0.48841300519E+02 -0.22045529285E+02 -0.58674255037E+02  0.79461602060E+02  0.00000000000E+00 0. -1.
         -5    1    3    3    0  503  0.26924080812E+02 -0.76274810924E+02  0.51284040593E+02  0.95890018921E+02  0.47000000000E+01 0.  1.
         13    1    4    4    0    0  0.25770380004E+02  0.19612521831E+01  0.30596268965E+02  0.40051100737E+02  0.00000000000E+00 0. -1.
        -14    1    4    4    0    0 -0.41642600384E+02  0.51093856323E+02  0.49071087379E+02  0.82174569894E+02  0.00000000000E+00 0.  1.
</event>
<event>
12    1  0.1061634E+000  0.2766975E+03  0.7818608E-02  0.1097797E+00
         21   -1    0    0  501  502  0.00000000000E+00  0.00000000000E+00  0.88124661558E+02  0.88124661558E+02  0.00000000000E+00 0.  1.
         21   -1    0    0  502  503 -0.00000000000E+00 -0.00000000000E+00 -0.87769400390E+03  0.87769400390E+03  0.00000000000E+00 0.  1.
         -6    2    1    2    0  503  0.12993487475E+03 -0.16768925011E+03 -0.33219347543E+03  0.43233556142E+03  0.17764789971E+03 0.  0.
        -24    2    3    3    0    0  0.80467773962E+02 -0.17795289402E+03 -0.19983323279E+03  0.29058345287E+03  0.79769210964E+02 0.  0.
          6    2    1    2  501    0 -0.12993487475E+03  0.16768925011E+03 -0.45737586692E+03  0.53348310404E+03  0.17438114112E+03 0.  0.
         24    2    5    5    0    0 -0.11861970227E+02  0.67801900957E+02 -0.27201345126E+03  0.29202915721E+03  0.80943850166E+02 0.  0.
          5    1    5    5  501    0 -0.11807290453E+03  0.99887349158E+02 -0.18536241565E+03  0.24145394683E+03  0.47000000000E+01 0. -1.
        -11    1    6    6    0    0  0.31450972655E+02  0.33933382868E+02 -0.81245912393E+02  0.93496184063E+02  0.00000000000E+00 0.  1.
         12    1    6    6    0    0 -0.43312942882E+02  0.33868518089E+02 -0.19076753887E+03  0.19853297314E+03  0.00000000000E+00 0. -1.
         -5    1    3    3    0  503  0.49467100791E+02  0.10263643908E+02 -0.13236024264E+03  0.14175210855E+03  0.47000000000E+01 0.  1.
         13    1    4    4    0    0  0.42812853103E+02 -0.90293670139E+02 -0.47032381698E+02  0.11044424922E+03  0.00000000000E+00 0. -1.
        -14    1    4    4    0    0  0.37654920859E+02 -0.87659223883E+02 -0.15280085109E+03  0.18013920365E+03  0.00000000000E+00 0.  1.
</event>
<event>
12    1  0.1061634E+000  0.1909467E+03  0.7818608E-02  0.1157892E+00
         21   -1    0    0  503  502  0.00000000000E+00  0.00000000000E+00  0.12417909255E+03  0.12417909255E+03  0.00000000000E+00 0. -1.
         21   -1    0    0  501  503 -0.00000000000E+00 -0.00000000000E+00 -0.35789470075E+03  0.35789470075E+03  0.00000000000E+00 0. -1.
          6    2    1    2  501    0  0.37664267507E+02 -0.73179144071E+02 -0.12876739848E+02  0.19013128326E+03  0.17091024040E+03 0.  0.
         24    2    3    3    0    0 -0.31235854575E+01 -0.10018897624E+03  0.20698987662E+02  0.13061154317E+03  0.81137780171E+02 0.  0.
         -6    2    1    2    0  502 -0.37664267507E+02  0.73179144071E+02 -0.22083886836E+03  0.29194251003E+03  0.17229869185E+03 0.  0.
        -24    2    5    5    0    0 -0.10305072291E+02  0.47481510576E+02 -0.23400683136E+03  0.25188780769E+03  0.79546100974E+02 0.  0.
          5    1    3    3  501    0  0.40787852964E+02  0.27009832173E+02 -0.33575727509E+02  0.59519740097E+02  0.47000000000E+01 0. -1.
        -13    1    4    4    0    0  0.26308179099E+02 -0.14886173376E+02 -0.14782778601E+02  0.33648907686E+02  0.00000000000E+00 0.  1.
         14    1    4    4    0    0 -0.29431764557E+02 -0.85302802868E+02  0.35481766263E+02  0.96962635480E+02  0.00000000000E+00 0. -1.
         -5    1    5    5    0  502 -0.27359195215E+02  0.25697633494E+02  0.13167963002E+02  0.40054702341E+02  0.47000000000E+01 0.  1.
         13    1    6    6    0    0 -0.35955476599E+02 -0.32403634319E+01 -0.81693899676E+02  0.89315113486E+02  0.00000000000E+00 0. -1.
        -14    1    6    6    0    0  0.25650404308E+02  0.50721874008E+02 -0.15231293168E+03  0.16257269421E+03  0.00000000000E+00 0.  1.
</event>
<event>
12    1  0.1061634E+000  0.4957533E+03  0.7818608E-02  0.1014912E+00
         21   -1    0    0  503  502  0.00000000000E+00  0.00000000000E+00  0.54713469104E+03  0.54713469104E+03  0.00000000000E+00 0. -1.
         21   -1    0    0  501  503 -0.00000000000E+00 -0.00000000000E+00 -0.45335627582E+03  0.45335627582E+03  0.00000000000E+00 0.  1.
          6    2    1    2  501    0  0.46242834314E+03 -0.46217423050E+02  0.96290661405E+02  0.50501804350E+03  0.17261318041E+03 0.  0.
         24    2    3    3    0    0  0.42514833971E+03 -0.85487428539E+02  0.92704647178E+02  0.45054895608E+03  0.79630390011E+02 0.  0.
         -6    2    1    2    0  502 -0.46242834314E+03  0.46217423050E+02 -0.25122461816E+01  0.49547292336E+03  0.17178790314E+03 0.  0.
        -24    2    5    5    0    0 -0.95226809057E+02 -0.10965212059E+02  0.92308601210E+01  0.12363046890E+03  0.77530013691E+02 0.  0.
          5    1    3    3  501    0  0.37280003431E+02  0.39270005489E+02  0.35860142269E+01  0.54469087425E+02  0.47000000000E+01 0. -1.
        -11    1    4    4    0    0  0.12392401140E+03 -0.43299895455E+02  0.60953249875E+02  0.14473195991E+03  0.00000000000E+00 0.  1.
         12    1    4    4    0    0  0.30122432831E+03 -0.42187533083E+02  0.31751397302E+02  0.30581699617E+03  0.00000000000E+00 0. -1.
         -5    1    5    5    0  502 -0.36720153409E+03  0.57182635109E+02 -0.11743106303E+02  0.37184245446E+03  0.47000000000E+01 0.  1.
         13    1    6    6    0    0 -0.46267571731E+02 -0.75712967130E+01  0.43354529677E+02  0.63856307216E+02  0.00000000000E+00 0. -1.
        -14    1    6    6    0    0 -0.48959237326E+02 -0.33939153459E+01 -0.34123669556E+02  0.59774161683E+02  0.00000000000E+00 0.  1.
</event>
<event>
12    1  0.1061634E+000  0.1791300E+03  0.7818608E-02  0.1169068E+00
         21   -1    0    0  503  502  0.00000000000E+00  0.00000000000E+00  0.27499728001E+03  0.27499728001E+03  0.00000000000E+00 0. -1.
         21   -1    0    0  501  503 -0.00000000000E+00 -0.00000000000E+00 -0.11671306808E+03  0.11671306808E+03  0.00000000000E+00 0. -1.
          6    2    1    2  501    0 -0.12508490457E+02  0.42012466006E+02  0.60114804639E+02  0.18894795536E+03  0.17368370812E+03 0.  0.
         24    2    3    3    0    0  0.48487516052E+02  0.22064610452E+02  0.77107842866E+02  0.12239509592E+03  0.78721368301E+02 0.  0.
         -6    2    1    2    0  502  0.12508490457E+02 -0.42012466006E+02  0.98169407295E+02  0.20276239273E+03  0.17191231992E+03 0.  0.
        -24    2    5    5    0    0  0.47399017429E+02 -0.24101249947E+02  0.12353661781E+03  0.15581832066E+03  0.78679832293E+02 0.  0.
          5    1    3    3  501    0 -0.60996006509E+02  0.19947855555E+02 -0.16993038227E+02  0.66552859438E+02  0.47000000000E+01 0. -1.
        -11    1    4    4    0    0 -0.71627417663E+01 -0.18409718273E+02  0.98263046384E+00  0.19778477170E+02  0.00000000000E+00 0.  1.
         12    1    4    4    0    0  0.55650257818E+02  0.40474328725E+02  0.76125212402E+02  0.10261661875E+03  0.00000000000E+00 0. -1.
         -5    1    5    5    0  502 -0.34890526972E+02 -0.17911216060E+02 -0.25367210515E+02  0.46944072069E+02  0.47000000000E+01 0.  1.
         13    1    6    6    0    0  0.52380067608E+02 -0.12030752130E+02  0.30350274167E+02  0.61721549085E+02  0.00000000000E+00 0. -1.
        -14    1    6    6    0    0 -0.49810501791E+01 -0.12070497817E+02  0.93186343643E+02  0.94096771571E+02  0.00000000000E+00 0.  1.
</event>
<event>
12    1  0.1061634E+000  0.1857658E+03  0.7818608E-02  0.1162783E+00
         21   -1    0    0  501  502  0.00000000000E+00  0.00000000000E+00  0.18242218277E+03  0.18242218277E+03  0.00000000000E+00 0. -1.
         21   -1    0    0  502  503 -0.00000000000E+00 -0.00000000000E+00 -0.26465653152E+03  0.26465653152E+03  0.00000000000E+00 0. -1.
         -6    2    1    2    0  503  0.29519520489E+02 -0.63243261102E+02  0.79639459858E+02  0.20211726975E+03  0.17215642596E+03 0.  0.
        -24    2    3    3    0    0  0.42630714968E+02 -0.10633760601E+03  0.43173765341E+02  0.14397208198E+03  0.75755673494E+02 0.  0.
          6    2    1    2  501    0 -0.29519520489E+02  0.63243261102E+02 -0.16187380860E+03  0.24496144454E+03  0.17009370134E+03 0.  0.
         24    2    5    5    0    0  0.22521904280E+02  0.70471839351E+02 -0.15710914984E+03  0.19199584997E+03  0.81887759320E+02 0.  0.
          5    1    5    5  501    0 -0.52041424769E+02 -0.72285782485E+01 -0.47646587588E+01  0.52965594574E+02  0.47000000000E+01 0. -1.
        -11    1    6    6    0    0 -0.26766501035E+02  0.31924653678E+01 -0.38018498894E+02  0.46605189313E+02  0.00000000000E+00 0.  1.
         12    1    6    6    0    0  0.49288405315E+02  0.67279373983E+02 -0.11909065095E+03  0.14539066065E+03  0.00000000000E+00 0. -1.
         -5    1    3    3    0  503 -0.13111194479E+02  0.43094344908E+02  0.36465694517E+02  0.58145187766E+02  0.47000000000E+01 0.  1.
         13    1    4    4    0    0  0.40644751705E+02 -0.13967026501E+02  0.25779367834E+01  0.43054842103E+02  0.00000000000E+00 0. -1.
        -14    1    4    4    0    0  0.19859632627E+01 -0.92370579509E+02  0.40595828558E+02  0.10091723988E+03  0.00000000000E+00 0.  1.
</event>
<event>
12    1  0.1061634E+000  0.5814936E+03  0.7818608E-02  0.9944632E-01
         21   -1    0    0  503  502  0.00000000000E+00  0.00000000000E+00  0.15275715128E+03  0.15275715128E+03  0.00000000000E+00 0.  1.
         21   -1    0    0  501  503 -0.00000000000E+00 -0.00000000000E+00 -0.22743672109E+04  0.22743672109E+04  0.00000000000E+00 0. -1.
          6    2    1    2  501    0  0.41739959937E+03 -0.36621607837E+03 -0.86166452505E+03  0.10395193798E+04  0.17262139422E+03 0.  0.
         24    2    3    3    0    0  0.17823649237E+03 -0.11746281519E+03 -0.25751652365E+03  0.34375068604E+03  0.79271773250E+02 0.  0.
         -6    2    1    2    0  502 -0.41739959937E+03  0.36621607837E+03 -0.12599455345E+04  0.13876049823E+04  0.17218651304E+03 0.  0.
        -24    2    5    5    0    0 -0.13712912141E+03  0.13435527069E+03 -0.44229886091E+03  0.49268646766E+03  0.10127160680E+03 0.  0.
          5    1    3    3  501    0  0.23916310700E+03 -0.24875326318E+03 -0.60414800140E+03  0.69576869381E+03  0.47000000000E+01 0. -1.
        -13    1    4    4    0    0 -0.35971841729E+01  0.58003679878E+01 -0.15310007839E+02  0.16762468279E+02  0.00000000000E+00 0.  1.
         14    1    4    4    0    0  0.18183367655E+03 -0.12326318318E+03 -0.24220651582E+03  0.32698821776E+03  0.00000000000E+00 0. -1.
         -5    1    5    5    0  502 -0.28027047796E+03  0.23186080768E+03 -0.81764667362E+03  0.89491851464E+03  0.47000000000E+01 0.  1.
         13    1    6    6    0    0 -0.15264162747E+03  0.12261607732E+03 -0.38082171722E+03  0.42820479815E+03  0.00000000000E+00 0. -1.
        -14    1    6    6    0    0  0.15512506059E+02  0.11739193367E+02 -0.61477143695E+02  0.64481669504E+02  0.00000000000E+00 0.  1.
</event>
<event>
12    1  0.1061634E+000  0.2783074E+03  0.7818608E-02  0.1096656E+00
         21   -1    0    0  501  502  0.00000000000E+00  0.00000000000E+00  0.10298389450E+03  0.10298389450E+03  0.00000000000E+00 0.  1.
         21   -1    0    0  502  503 -0.00000000000E+00 -0.00000000000E+00 -0.81673864342E+03  0.81673864342E+03  0.00000000000E+00 0.  1.
         -6    2    1    2    0  503  0.18934394654E+03 -0.11017364842E+03 -0.48682759347E+03  0.56062512023E+03  0.17120180132E+03 0.  0.
        -24    2    3    3    0    0  0.13281179811E+03 -0.14407244977E+03 -0.38145957062E+03  0.43624858395E+03  0.80034857889E+02 0.  0.
          6    2    1    2  501    0 -0.18934394654E+03  0.11017364842E+03 -0.22692715545E+03  0.35909741769E+03  0.17165563962E+03 0.  0.
         24    2    5    5    0    0 -0.11523447378E+03  0.10489028676E+03 -0.74378144783E+02  0.18935226012E+03  0.77725245505E+02 0.  0.
          5    1    5    5  501    0 -0.74109472761E+02  0.52833616605E+01 -0.15254901066E+03  0.16974515757E+03  0.47000000000E+01 0. -1.
        -13    1    6    6    0    0 -0.17291917249E+02  0.37529659323E+02 -0.55186823014E+02  0.68942520736E+02  0.00000000000E+00 0.  1.
         14    1    6    6    0    0 -0.97942556527E+02  0.67360627433E+02 -0.19191321769E+02  0.12040973938E+03  0.00000000000E+00 0. -1.
         -5    1    3    3    0  503  0.56532148425E+02  0.33898801356E+02 -0.10536802285E+03  0.12437653628E+03  0.47000000000E+01 0.  1.
         11    1    4    4    0    0  0.86974975960E+02 -0.59835596120E+02 -0.26582881752E+03  0.28602430881E+03  0.00000000000E+00 0. -1.
        -12    1    4    4    0    0  0.45836822152E+02 -0.84236853652E+02 -0.11563075311E+03  0.15022427514E+03  0.00000000000E+00 0.  1.
</event>
<event>
12    1  0.1061634E+000  0.1743410E+03  0.7818608E-02  0.1173493E+00
         21   -1    0    0  501  502  0.00000000000E+00  0.00000000000E+00  0.12532049343E+03  0.12532049343E+03  0.00000000000E+00 0.  1.
         21   -1    0    0  502  503 -0.00000000000E+00 -0.00000000000E+00 -0.35019409527E+03  0.35019409527E+03  0.00000000000E+00 0.  1.
         -6    2    1    2    0  503 -0.28652144680E+02  0.10781971950E+02  0.19631759466E+02  0.17544280292E+03  0.17163209141E+03 0.  0.
        -24    2    3    3    0    0  0.17329052433E+02  0.62171788294E+02  0.72916073179E+01  0.10523202692E+03  0.82794834586E+02 0.  0.
          6    2    1    2  501    0  0.28652144680E+02 -0.10781971950E+02 -0.24450536130E+03  0.30007178578E+03  0.17123962335E+03 0.  0.
         24    2    5    5    0    0  0.38779849357E+02 -0.46022256209E+02 -0.72999848101E+02  0.12462755221E+03  0.81124128125E+02 0.  0.
          5    1    5    5  501    0 -0.10127704678E+02  0.35240284258E+02 -0.17150551320E+03  0.17544423357E+03  0.47000000000E+01 0. -1.
        -11    1    6    6    0    0  0.57468768000E+01  0.13240320304E+02  0.99004533670E+01  0.17502904090E+02  0.00000000000E+00 0.  1.
         12    1    6    6    0    0  0.33032972557E+02 -0.59262576513E+02 -0.82900301468E+02  0.10712464812E+03  0.00000000000E+00 0. -1.
         -5    1    3    3    0  503 -0.45981197113E+02 -0.51389816344E+02  0.12340152148E+02  0.70210776002E+02  0.47000000000E+01 0.  1.
         13    1    4    4    0    0 -0.95749213164E+01  0.26794282727E+02  0.40679430456E+02  0.49643013278E+02  0.00000000000E+00 0. -1.
        -14    1    4    4    0    0  0.26903973750E+02  0.35377505567E+02 -0.33387823138E+02  0.55589013641E+02  0.00000000000E+00 0.  1.
</event>
<event>
12    1  0.1061634E+000  0.1987530E+03  0.7818608E-02  0.1151842E+00
         21   -1    0    0  503  502  0.00000000000E+00  0.00000000000E+00  0.22915074059E+03  0.22915074059E+03  0.00000000000E+00 0. -1.
         21   -1    0    0  501  503 -0.00000000000E+00 -0.00000000000E+00 -0.27688496195E+03  0.27688496195E+03  0.00000000000E+00 0. -1.
          6    2    1    2  501    0 -0.88303091079E+02  0.25719382998E+02 -0.18255855641E+03  0.26987101764E+03  0.17619255684E+03 0.  0.
         24    2    3    3    0    0  0.36892491515E+01 -0.17926879721E+02 -0.13778462278E+03  0.15854095861E+03  0.76260407199E+02 0.  0.
         -6    2    1    2    0  502  0.88303091079E+02 -0.25719382998E+02  0.13482433505E+03  0.23616468490E+03  0.17069632251E+03 0.  0.
        -24    2    5    5    0    0 -0.21265868592E+02 -0.20798638734E+02  0.50867245815E+02  0.97960294670E+02  0.78255492426E+02 0.  0.
          5    1    3    3  501    0 -0.91992340230E+02  0.43646262720E+02 -0.44773933634E+02  0.11133005903E+03  0.47000000000E+01 0. -1.
        -13    1    4    4    0    0  0.20867416784E+02 -0.30750168117E+02 -0.27599338553E+02  0.46289798131E+02  0.00000000000E+00 0.  1.
         14    1    4    4    0    0 -0.17178167632E+02  0.12823288395E+02 -0.11018528423E+03  0.11225116048E+03  0.00000000000E+00 0. -1.
         -5    1    5    5    0  502  0.10956895967E+03 -0.49207442642E+01  0.83957089232E+02  0.13820439023E+03  0.47000000000E+01 0.  1.
         11    1    6    6    0    0 -0.32353609239E+02 -0.45409551956E+02  0.27094181880E+02  0.61990952013E+02  0.00000000000E+00 0. -1.
        -12    1    6    6    0    0  0.11087740648E+02  0.24610913222E+02  0.23773063935E+02  0.35969342657E+02  0.00000000000E+00 0.  1.
</event>
<event>
12    1  0.1061634E+000  0.2056066E+03  0.7818608E-02  0.1145182E+00
         21   -1    0    0  501  502  0.00000000000E+00  0.00000000000E+00  0.55345190909E+03  0.55345190909E+03  0.00000000000E+00 0. -1.
         21   -1    0    0  502  503 -0.00000000000E+00 -0.00000000000E+00 -0.12550529771E+03  0.12550529771E+03  0.00000000000E+00 0. -1.
         -6    2    1    2    0  503  0.11284825469E+03  0.85150015982E+01  0.42656874621E+03  0.47334594674E+03  0.17113812029E+03 0.  0.
        -24    2    3    3    0    0 -0.11368394917E+02 -0.12459757039E+02  0.13533233820E+03  0.15599684577E+03  0.75734326289E+02 0.  0.
          6    2    1    2  501    0 -0.11284825469E+03 -0.85150015982E+01  0.13778651645E+01  0.20561126005E+03  0.17165913290E+03 0.  0.
         24    2    5    5    0    0 -0.13045103812E+03  0.32043783717E+02  0.33530226862E+02  0.15074107313E+03  0.59618097865E+02 0.  0.
          5    1    5    5  501    0  0.17602783427E+02 -0.40558785315E+02 -0.32152361698E+02  0.54870186926E+02  0.47000000000E+01 0. -1.
        -11    1    6    6    0    0 -0.10408462636E+02  0.10837556267E+02  0.24196966645E+02  0.28483010991E+02  0.00000000000E+00 0.  1.
         12    1    6    6    0    0 -0.12004257548E+03  0.21206227450E+02  0.93332602174E+01  0.12225806214E+03  0.00000000000E+00 0. -1.
         -5    1    3    3    0  503  0.12421664961E+03  0.20974758637E+02  0.29123640801E+03  0.31734910097E+03  0.47000000000E+01 0.  1.
         11    1    4    4    0    0  0.15703172444E+01 -0.23355443306E+02  0.13701306637E+03  0.13899828410E+03  0.00000000000E+00 0. -1.
        -12    1    4    4    0    0 -0.12938712162E+02  0.10895686268E+02 -0.16807281628E+01  0.16998561669E+02  0.00000000000E+00 0.  1.
</event>
<event>
12    1  0.1061634E+000  0.2774265E+03  0.7818608E-02  0.1097255E+00
         21   -1    0    0  503  502  0.00000000000E+00  0.00000000000E+00  0.10206894391E+03  0.10206894391E+03  0.00000000000E+00 0.  1.
         21   -1    0    0  501  503 -0.00000000000E+00 -0.00000000000E+00 -0.78169902788E+03  0.78169902788E+03  0.00000000000E+00 0.  1.
          6    2    1    2  501    0 -0.48792945548E+02 -0.21028255273E+03 -0.25171484289E+03  0.37379062586E+03  0.17250961230E+03 0.  0.
         24    2    3    3    0    0 -0.71250467107E+02 -0.20175090494E+03 -0.16080144071E+03  0.27963933281E+03  0.80999977864E+02 0.  0.
         -6    2    1    2    0  502  0.48792945548E+02  0.21028255273E+03 -0.42791524108E+03  0.50997734593E+03  0.17425824600E+03 0.  0.
        -24    2    5    5    0    0 -0.39004309194E+02  0.11627815002E+03 -0.19528829325E+03  0.24411540333E+03  0.80080386827E+02 0.  0.
          5    1    3    3  501    0  0.22457521559E+02 -0.85316477938E+01 -0.90913402174E+02  0.94151293053E+02  0.47000000000E+01 0. -1.
        -11    1    4    4    0    0 -0.46597472375E+02 -0.51288329265E+02 -0.84080846688E+02  0.10895598162E+03  0.00000000000E+00 0.  1.
         12    1    4    4    0    0 -0.24652994731E+02 -0.15046257567E+03 -0.76720594025E+02  0.17068335119E+03  0.00000000000E+00 0. -1.
         -5    1    5    5    0  502  0.87797254742E+02  0.94004402712E+02 -0.23262694783E+03  0.26586194261E+03  0.47000000000E+01 0.  1.
         13    1    6    6    0    0  0.22392162848E+02  0.15986831033E+02 -0.25027149245E+02  0.37193358585E+02  0.00000000000E+00 0. -1.
        -14    1    6    6    0    0 -0.61396472042E+02  0.10029131898E+03 -0.17026114400E+03  0.20692204474E+03  0.00000000000E+00 0.  1.
</event>
<event>
12    1  0.1061634E+000  0.2596483E+03  0.7818608E-02  0.1107489E+00
         21   -1    0    0  501  502  0.00000000000E+00  0.00000000000E+00  0.15019867536E+03  0.15019867536E+03  0.00000000000E+00 0. -1.
         21   -1    0    0  502  503 -0.00000000000E+00 -0.00000000000E+00 -0.50185246239E+03  0.50185246239E+03  0.00000000000E+00 0. -1.
         -6    2    1    2    0  503  0.97126372715E+01  0.19411704887E+03 -0.68617192485E+02  0.26856201330E+03  0.17216698841E+03 0.  0.
        -24    2    3    3    0    0 -0.97397358950E+01  0.76793512853E+02 -0.95912725653E+02  0.14645409768E+03  0.79104018317E+02 0.  0.
          6    2    1    2  501    0 -0.97126372715E+01 -0.19411704887E+03 -0.28303659454E+03  0.38348912445E+03  0.17081695097E+03 0.  0.
         24    2    5    5    0    0  0.42603078246E+02 -0.17833697415E+03 -0.24881501366E+03  0.31884276766E+03  0.78311562639E+02 0.  0.
          5    1    5    5  501    0 -0.52315715518E+02 -0.15780074725E+02 -0.34221580874E+02  0.64646356788E+02  0.47000000000E+01 0. -1.
        -13    1    6    6    0    0  0.16264529456E+02 -0.16873883256E+03 -0.22704630804E+03  0.28335023297E+03  0.00000000000E+00 0.  1.
         14    1    6    6    0    0  0.26338548790E+02 -0.95981415918E+01 -0.21768705628E+02  0.35492534695E+02  0.00000000000E+00 0. -1.
         -5    1    3    3    0  503  0.19452373167E+02  0.11732353602E+03  0.27295533168E+02  0.12210791562E+03  0.47000000000E+01 0.  1.
         11    1    4    4    0    0  0.15383904108E+02 -0.89440821616E+01 -0.39295251396E+01  0.18223673591E+02  0.00000000000E+00 0. -1.
        -12    1    4    4    0    0 -0.25123640003E+02  0.85737595014E+02 -0.91983200513E+02  0.12823042409E+03  0.00000000000E+00 0.  1.
</event>
<event>
12    1  0.1061634E+000  0.2163559E+03  0.7818608E-02  0.1136667E+00
         21   -1    0    0  503  502  0.00000000000E+00  0.00000000000E+00  0.23764160760E+02  0.23764160760E+02  0.00000000000E+00 0.  1.
         21   -1    0    0  501  503 -0.00000000000E+00 -0.00000000000E+00 -0.19935312328E+04  0.19935312328E+04  0.00000000000E+00 0.  1.
          6    2    1    2  501    0 -0.16230497001E+02 -0.12893887839E+03 -0.87111279365E+03  0.89757862764E+03  0.17297754229E+03 0.  0.
         24    2    3    3    0    0 -0.60349351758E+02 -0.58082683888E+02 -0.32295404690E+03  0.34308140015E+03  0.79936776891E+02 0.  0.
         -6    2    1    2    0  502  0.16230497001E+02  0.12893887839E+03 -0.10986542784E+04  0.11197167659E+04  0.17273027838E+03 0.  0.
        -24    2    5    5    0    0 -0.54561536585E+02  0.84764368348E+02 -0.77387846861E+03  0.78435976812E+03  0.78551908004E+02 0.  0.
          5    1    3    3  501    0  0.44118854757E+02 -0.70856194501E+02 -0.54815874675E+03  0.55449722748E+03  0.47000000000E+01 0. -1.
        -13    1    4    4    0    0 -0.16862156800E+02 -0.22268183847E+02 -0.18602619033E+02  0.33559823877E+02  0.00000000000E+00 0.  1.
         14    1    4    4    0    0 -0.43487194958E+02 -0.35814500042E+02 -0.30435142786E+03  0.30952157628E+03  0.00000000000E+00 0. -1.
         -5    1    5    5    0  502  0.70792033586E+02  0.44174510042E+02 -0.32477580976E+03  0.33535699778E+03  0.47000000000E+01 0.  1.
         11    1    6    6    0    0 -0.52422258321E+02  0.20871304658E+02 -0.49721495906E+03  0.50040625499E+03  0.00000000000E+00 0. -1.
        -12    1    6    6    0    0 -0.21392782636E+01  0.63893063690E+02 -0.27666350955E+03  0.28395351313E+03  0.00000000000E+00 0.  1.
</event>
<event>
12    1  0.1061634E+000  0.1910795E+03  0.7818608E-02  0.1157600E+00
         21   -1    0    0  501  502  0.00000000000E+00  0.00000000000E+00  0.49129108099E+02  0.49129108099E+02  0.00000000000E+00 0. -1.
         21   -1    0    0  502  503 -0.00000000000E+00 -0.00000000000E+00 -0.77446345078E+03  0.77446345078E+03  0.00000000000E+00 0. -1.
         -6    2    1    2    0  503  0.81592829922E+02 -0.47085301372E+00 -0.44744902686E+03  0.48635138595E+03  0.17224815639E+03 0.  0.
        -24    2    3    3    0    0  0.81881041602E+02 -0.55561315259E+02 -0.37151042874E+03  0.39241628718E+03  0.78606482277E+02 0.  0.
          6    2    1    2  501    0 -0.81592829922E+02  0.47085301372E+00 -0.27788531582E+03  0.33724117293E+03  0.17278237286E+03 0.  0.
         24    2    5    5    0    0 -0.20058821522E+02  0.12377213482E+02 -0.43147770627E+02  0.94234998658E+02  0.80392494224E+02 0.  0.
          5    1    5    5  501    0 -0.61534008401E+02 -0.11906360468E+02 -0.23473754520E+03  0.24300617427E+03  0.47000000000E+01 0. -1.
        -13    1    6    6    0    0 -0.27524308253E+02  0.41383641817E+02 -0.12220224713E+02  0.51181317362E+02  0.00000000000E+00 0.  1.
         14    1    6    6    0    0  0.74654867309E+01 -0.29006428335E+02 -0.30927545914E+02  0.43053681297E+02  0.00000000000E+00 0. -1.
         -5    1    3    3    0  503 -0.28821167962E+00  0.55090462246E+02 -0.75938598123E+02  0.93935098772E+02  0.47000000000E+01 0.  1.
         11    1    4    4    0    0  0.30803660638E+02 -0.15249869696E+02 -0.26770881692E+03  0.26990634429E+03  0.00000000000E+00 0. -1.
        -12    1    4    4    0    0  0.51077380964E+02 -0.40311445563E+02 -0.10380161182E+03  0.12250994289E+03  0.00000000000E+00 0.  1.
</event>
<event>
12    1  0.1061634E+000  0.2822555E+03  0.7818608E-02  0.1094636E+00
         21   -1    0    0  501  502  0.00000000000E+00  0.00000000000E+00  0.81885512173E+03  0.81885512173E+03  0.00000000000E+00 0. -1.
         21   -1    0    0  502  503 -0.00000000000E+00 -0.00000000000E+00 -0.11750616370E+03  0.11750616370E+03  0.00000000000E+00 0.  1.
         -6    2    1    2    0  503  0.21000033041E+03  0.72512578968E+02  0.15373644124E+03  0.32028689679E+03  0.17201915594E+03 0.  0.
        -24    2    3    3    0    0  0.25884412548E+02  0.12161395892E+02  0.24108436489E+02  0.87120762622E+02  0.78682324615E+02 0.  0.
          6    2    1    2  501    0 -0.21000033041E+03 -0.72512578968E+02  0.54761251679E+03  0.61607438864E+03  0.17409759018E+03 0.  0.
         24    2    5    5    0    0 -0.17308512528E+03 -0.32971694379E+02  0.52093602274E+03  0.55557695680E+03  0.79030512561E+02 0.  0.
          5    1    5    5  501    0 -0.36915205134E+02 -0.39540884588E+02  0.26676494054E+02  0.60497431839E+02  0.47000000000E+01 0. -1.
        -11    1    6    6    0    0 -0.15230481912E+02 -0.96504506294E+01  0.15910284918E+03  0.16012125216E+03  0.00000000000E+00 0.  1.
         12    1    6    6    0    0 -0.15785464336E+03 -0.23321243750E+02  0.36183317356E+03  0.39545570464E+03  0.00000000000E+00 0. -1.
         -5    1    3    3    0  503  0.18411591786E+03  0.60351183076E+02  0.12962800475E+03  0.23316613417E+03  0.47000000000E+01 0.  1.
         11    1    4    4    0    0  0.51741705904E+02  0.14945665928E+00  0.33443275770E+01  0.51849889046E+02  0.00000000000E+00 0. -1.
        -12    1    4    4    0    0 -0.25857293356E+02  0.12011939232E+02  0.20764108912E+02  0.35270873575E+02  0.00000000000E+00 0.  1.
</event>
<event>
12    1  0.1061634E+000  0.2132144E+03  0.7818608E-02  0.1139480E+00
         21   -1    0    0  503  502  0.00000000000E+00  0.00000000000E+00  0.18380144216E+03  0.18380144216E+03  0.00000000000E+00 0.  1.
         21   -1    0    0  501  503 -0.00000000000E+00 -0.00000000000E+00 -0.29934876787E+03  0.29934876787E+03  0.00000000000E+00 0.  1.
          6    2    1    2  501    0  0.11705422376E+03 -0.46823978778E+02 -0.16118458460E+03  0.26728423551E+03  0.17194829441E+03 0.  0.
         24    2    3    3    0    0  0.11815437519E+03 -0.54002641123E+01 -0.55615151231E+02  0.15377595505E+03  0.81020861993E+02 0.  0.
         -6    2    1    2    0  502 -0.11705422376E+03  0.46823978778E+02  0.45637258889E+02  0.21586597452E+03  0.16917796330E+03 0.  0.
        -24    2    5    5    0    0 -0.12567363956E+03  0.39715604371E+02 -0.14206025833E+02  0.15480754314E+03  0.79952306624E+02 0.  0.
          5    1    3    3  501    0 -0.11001514225E+01 -0.41423714665E+02 -0.10556943337E+03  0.11350828046E+03  0.47000000000E+01 0. -1.
        -13    1    4    4    0    0  0.50444301606E+02 -0.42515216508E+02 -0.21783633334E+02  0.69474440484E+02  0.00000000000E+00 0.  1.
         14    1    4    4    0    0  0.67710073580E+02  0.37114952396E+02 -0.33831517898E+02  0.84301514570E+02  0.00000000000E+00 0. -1.
         -5    1    5    5    0  502  0.86194157929E+01  0.71083744062E+01  0.59843284722E+02  0.61058431373E+02  0.47000000000E+01 0.  1.
         13    1    6    6    0    0 -0.60327809708E+02  0.18353846612E+02  0.33233588803E+02  0.71279588483E+02  0.00000000000E+00 0. -1.
        -14    1    6    6    0    0 -0.65345829849E+02  0.21361757760E+02 -0.47439614636E+02  0.83527954662E+02  0.00000000000E+00 0.  1.
</event>
<event>
12    1  0.1061634E+000  0.3036588E+03  0.7818608E-02  0.1083754E+00
         21   -1    0    0  501  502  0.00000000000E+00  0.00000000000E+00  0.87176344422E+02  0.87176344422E+02  0.00000000000E+00 0. -1.
         21   -1    0    0  502  503 -0.00000000000E+00 -0.00000000000E+00 -0.10642823269E+04  0.10642823269E+04  0.00000000000E+00 0. -1.
         -6    2    1    2    0  503 -0.24552965789E+03  0.30367675354E+02 -0.55652830852E+03  0.63271573519E+03  0.17145971762E+03 0.  0.
        -24    2    3    3    0    0 -0.96784932689E+02  0.67269439184E+02 -0.20776770603E+03  0.25173964500E+03  0.79453939813E+02 0.  0.
          6    2    1    2  501    0  0.24552965789E+03 -0.30367675354E+02 -0.42057767396E+03  0.51874293613E+03  0.17607284101E+03 0.  0.
         24    2    5    5    0    0  0.19984723395E+03 -0.69254791916E+02 -0.24517137076E+03  0.33330142812E+03  0.79029727469E+02 0.  0.
          5    1    5    5  501    0  0.45682423938E+02  0.38887116561E+02 -0.17540630320E+03  0.18544150801E+03  0.47000000000E+01 0. -1.
        -11    1    6    6    0    0  0.74148101645E+02 -0.35046002552E+02 -0.15341215580E+03  0.17395819273E+03  0.00000000000E+00 0.  1.
         12    1    6    6    0    0  0.12569913231E+03 -0.34208789364E+02 -0.91759214962E+02  0.15934323539E+03  0.00000000000E+00 0. -1.
         -5    1    3    3    0  503 -0.14874472520E+03 -0.36901763830E+02 -0.34876060249E+03  0.38097609019E+03  0.47000000000E+01 0.  1.
         11    1    4    4    0    0 -0.89265123536E+02  0.82059623378E+02 -0.15726232047E+03  0.19857865321E+03  0.00000000000E+00 0. -1.
        -12    1    4    4    0    0 -0.75198091523E+01 -0.14790184194E+02 -0.50505385554E+02  0.53160991790E+02  0.00000000000E+00 0.  1.
</event>
<event>
12    1  0.1061634E+000  0.3860699E+03  0.7818608E-02  0.1048735E+00
         21   -1    0    0  503  502  0.00000000000E+00  0.00000000000E+00  0.18652054584E+04  0.18652054584E+04  0.00000000000E+00 0. -1.
         21   -1    0    0  501  503 -0.00000000000E+00 -0.00000000000E+00 -0.96649294224E+02  0.96649294224E+02  0.00000000000E+00 0.  1.
          6    2    1    2  501    0 -0.17131298912E+02  0.34525168144E+03  0.12928810201E+04  0.13492236954E+04  0.17137982137E+03 0.  0.
         24    2    3    3    0    0 -0.61180489333E+02  0.22985617171E+03  0.10077170289E+04  0.10384230411E+04  0.79068894010E+02 0.  0.
         -6    2    1    2    0  502  0.17131298912E+02 -0.34525168144E+03  0.47567514408E+03  0.61263105722E+03  0.17192371750E+03 0.  0.
        -24    2    5    5    0    0  0.29493349216E+02 -0.10105597363E+03  0.10917597404E+03  0.17203135722E+03  0.81198689067E+02 0.  0.
          5    1    3    3  501    0  0.44049190421E+02  0.11539550973E+03  0.28516399123E+03  0.31080065434E+03  0.47000000000E+01 0. -1.
        -13    1    4    4    0    0 -0.70118762589E+02  0.22993387838E+03  0.98714751041E+03  0.10159952936E+04  0.00000000000E+00 0.  1.
         14    1    4    4    0    0  0.89382732559E+01 -0.77706672710E-01  0.20569518448E+02  0.22427747464E+02  0.00000000000E+00 0. -1.
         -5    1    5    5    0  502 -0.12362050304E+02 -0.24419570781E+03  0.36649917004E+03  0.44059970000E+03  0.47000000000E+01 0.  1.
         13    1    6    6    0    0  0.31373428207E+02 -0.17086120319E+02  0.71601562307E+02  0.80018817974E+02  0.00000000000E+00 0. -1.
        -14    1    6    6    0    0 -0.18800789917E+01 -0.83969853310E+02  0.37574411731E+02  0.92012539248E+02  0.00000000000E+00 0.  1.
</event>
<event>
12    1  0.1061634E+000  0.2139237E+03  0.7818608E-02  0.1138873E+00
         21   -1    0    0  503  502  0.00000000000E+00  0.00000000000E+00  0.41830548479E+03  0.41830548479E+03  0.00000000000E+00 0. -1.
         21   -1    0    0  501  503 -0.00000000000E+00 -0.00000000000E+00 -0.11791260762E+03  0.11791260762E+03  0.00000000000E+00 0. -1.
          6    2    1    2  501    0 -0.11710195001E+03  0.38221394668E+02  0.22693200244E+03  0.31186776399E+03  0.17489890444E+03 0.  0.
         24    2    3    3    0    0 -0.92312998422E+02  0.44556566647E+02  0.60020053878E+02  0.14294081203E+03  0.79515354285E+02 0.  0.
         -6    2    1    2    0  502  0.11710195001E+03 -0.38221394668E+02  0.73460874725E+02  0.22435032842E+03  0.17251906573E+03 0.  0.
        -24    2    5    5    0    0  0.54451792995E+02 -0.41046127264E+02  0.10937556043E+03  0.15192812231E+03  0.80432324389E+02 0.  0.
          5    1    3    3  501    0 -0.24788951593E+02 -0.63351719783E+01  0.16691194856E+03  0.16892695196E+03  0.47000000000E+01 0. -1.
        -13    1    4    4    0    0 -0.89464873040E+02  0.62667931260E+02  0.59963470087E+02  0.12460678497E+03  0.00000000000E+00 0.  1.
         14    1    4    4    0    0 -0.28481253818E+01 -0.18111364614E+02  0.56583790856E-01  0.18334027056E+02  0.00000000000E+00 0. -1.
         -5    1    5    5    0  502  0.62650157019E+02  0.28247325955E+01 -0.35914685703E+02  0.72422206110E+02  0.47000000000E+01 0.  1.
         11    1    6    6    0    0 -0.14432998089E+02 -0.36096897011E+00  0.50698800075E+02  0.52714419863E+02  0.00000000000E+00 0. -1.
        -12    1    6    6    0    0  0.68884791085E+02 -0.40685158294E+02  0.58676760353E+02  0.99213702449E+02  0.00000000000E+00 0.  1.
</event>
<event>
12    1  0.1061634E+000  0.3881812E+03  0.7818608E-02  0.1047957E+00
         21   -1    0    0  501  502  0.00000000000E+00  0.00000000000E+00  0.36460122634E+03  0.36460122634E+03  0.00000000000E+00 0. -1.
         21   -1    0    0  502  503 -0.00000000000E+00 -0.00000000000E+00 -0.54338265436E+03  0.54338265436E+03  0.00000000000E+00 0. -1.
         -6    2    1    2    0  503  0.16220688095E+03 -0.30834775619E+03  0.13281431442E+03  0.41021227385E+03  0.17101186078E+03 0.  0.
        -24    2    3    3    0    0  0.79392931379E+02 -0.63384426564E+02  0.39579657432E+02  0.13529415083E+03  0.80107021423E+02 0.  0.
          6    2    1    2  501    0 -0.16220688095E+03  0.30834775619E+03 -0.31159574244E+03  0.49777160685E+03  0.17115856658E+03 0.  0.
         24    2    5    5    0    0 -0.10953245499E+03  0.89260438524E+02 -0.12821522265E+03  0.20721291580E+03  0.80828612341E+02 0.  0.
          5    1    5    5  501    0 -0.52674425962E+02  0.21908731766E+03 -0.18338051978E+03  0.29055869105E+03  0.47000000000E+01 0. -1.
        -13    1    6    6    0    0 -0.17611040011E+02  0.45993549952E+02 -0.81292252831E+01  0.49916326699E+02  0.00000000000E+00 0.  1.
         14    1    6    6    0    0 -0.91921414982E+02  0.43266888572E+02 -0.12008599737E+03  0.15729658910E+03  0.00000000000E+00 0. -1.
         -5    1    3    3    0  503  0.82813949576E+02 -0.24496332962E+03  0.93234656986E+02  0.27491812302E+03  0.47000000000E+01 0.  1.
         13    1    4    4    0    0  0.53917315365E+01 -0.42167551056E+02 -0.10072810252E+02  0.43687923244E+02  0.00000000000E+00 0. -1.
        -14    1    4    4    0    0  0.74001199842E+02 -0.21216875508E+02  0.49652467684E+02  0.91606227581E+02  0.00000000000E+00 0.  1.
</event>
<event>
12    1  0.1061634E+000  0.3114622E+03  0.7818608E-02  0.1080329E+00
         21   -1    0    0  503  502  0.00000000000E+00  0.00000000000E+00  0.18752752304E+03  0.18752752304E+03  0.00000000000E+00 0.  1.
         21   -1    0    0  501  503 -0.00000000000E+00 -0.00000000000E+00 -0.55928420037E+03  0.55928420037E+03  0.00000000000E+00 0.  1.
          6    2    1    2  501    0 -0.17480683653E+03 -0.18184860209E+03 -0.30056788406E+03  0.43283918870E+03  0.18270841843E+03 0.  0.
         24    2    3    3    0    0 -0.15567787765E+03 -0.20748733024E+03 -0.29334744824E+03  0.39971086030E+03  0.80183867793E+02 0.  0.
         -6    2    1    2    0  502  0.17480683653E+03  0.18184860209E+03 -0.71188793281E+02  0.31397253471E+03  0.17287152480E+03 0.  0.
        -24    2    5    5    0    0  0.18726054180E+03  0.19794921338E+03 -0.71948013097E+02  0.29306820804E+03  0.80386916749E+02 0.  0.
          5    1    3    3  501    0 -0.19128958887E+02  0.25638728149E+02 -0.72204358156E+01  0.33128328400E+02  0.47000000000E+01 0. -1.
        -11    1    4    4    0    0 -0.14478761787E+03 -0.16266687780E+03 -0.27321058656E+03  0.34938230068E+03  0.00000000000E+00 0.  1.
         12    1    4    4    0    0 -0.10890259777E+02 -0.44820452440E+02 -0.20136861681E+02  0.50328559618E+02  0.00000000000E+00 0. -1.
         -5    1    5    5    0  502 -0.12453705271E+02 -0.16100611287E+02  0.75921981515E+00  0.20904326670E+02  0.47000000000E+01 0.  1.
         13    1    6    6    0    0  0.14754038034E+02  0.29524362743E+02  0.15685574478E+02  0.36543219349E+02  0.00000000000E+00 0. -1.
        -14    1    6    6    0    0  0.17250650377E+03  0.16842485063E+03 -0.87633587574E+02  0.25652498869E+03  0.00000000000E+00 0.  1.
</event>
<event>
12    1  0.1061634E+000  0.1953989E+03  0.7818608E-02  0.1154025E+00
         21   -1    0    0  501  502  0.00000000000E+00  0.00000000000E+00  0.97356355721E+03  0.97356355721E+03  0.00000000000E+00 0. -1.
         21   -1    0    0  502  503 -0.00000000000E+00 -0.00000000000E+00 -0.31270397807E+03  0.31270397807E+03  0.00000000000E+00 0. -1.
         -6    2    1    2    0  503 -0.87620786110E+02 -0.22884006117E+02 -0.27120455825E+03  0.33426435886E+03  0.17314638113E+03 0.  0.
        -24    2    3    3    0    0  0.17548881634E+02  0.16391219345E+02 -0.97156117230E+02  0.12709739198E+03  0.78344116649E+02 0.  0.
          6    2    1    2  501    0  0.87620786110E+02  0.22884006117E+02  0.93206413739E+03  0.95200317642E+03  0.17136339109E+03 0.  0.
         24    2    5    5    0    0  0.87797436185E+02 -0.36070485161E+02  0.75581483381E+03  0.76609575252E+03  0.81468824257E+02 0.  0.
          5    1    5    5  501    0 -0.17665007535E+00  0.58954491278E+02  0.17624930358E+03  0.18590742390E+03  0.47000000000E+01 0. -1.
        -13    1    6    6    0    0  0.29032277343E+02 -0.93246904930E+01  0.53924411435E+03  0.54010558027E+03  0.00000000000E+00 0.  1.
         14    1    6    6    0    0  0.58765158843E+02 -0.26745794668E+02  0.21657071946E+03  0.22599017225E+03  0.00000000000E+00 0. -1.
         -5    1    3    3    0  503 -0.10516966774E+03 -0.39275225463E+02 -0.17404844102E+03  0.20716696689E+03  0.47000000000E+01 0.  1.
         11    1    4    4    0    0 -0.32696846652E+01  0.96788407784E+01  0.12006538661E+02  0.15764763470E+02  0.00000000000E+00 0. -1.
        -12    1    4    4    0    0  0.20818566299E+02  0.67123785668E+01 -0.10916265589E+03  0.11133262851E+03  0.00000000000E+00 0.  1.
</event>
<event>
12    1  0.1061634E+000  0.2226689E+03  0.7818608E-02  0.1132310E+00
         21   -1    0    0  501  502  0.00000000000E+00  0.00000000000E+00  0.74264453289E+03  0.74264453289E+03  0.00000000000E+00 0.  1.
         21   -1    0    0  502  503 -0.00000000000E+00 -0.00000000000E+00 -0.91987661444E+02  0.91987661444E+02  0.00000000000E+00 0.  1.
         -6    2    1    2    0  503  0.54476100716E+02 -0.13072901033E+03  0.54550716036E+03  0.58838456144E+03  0.16899884748E+03 0.  0.
        -24    2    3    3    0    0  0.56177023487E+02 -0.23639062572E+02  0.15577291540E+03  0.18417419326E+03  0.77073140876E+02 0.  0.
          6    2    1    2  501    0 -0.54476100716E+02  0.13072901033E+03  0.10514971108E+03  0.24624763289E+03  0.17182466433E+03 0.  0.
         24    2    5    5    0    0  0.20074196781E+02  0.52839802241E+02  0.62604393453E+01  0.99872588367E+02  0.82099468507E+02 0.  0.
          5    1    5    5  501    0 -0.74550297497E+02  0.77889208090E+02  0.98889271739E+02  0.14637504452E+03  0.47000000000E+01 0. -1.
        -13    1    6    6    0    0  0.15736828036E+02  0.24577352778E+02 -0.37549743100E+02  0.47557094456E+02  0.00000000000E+00 0.  1.
         14    1    6    6    0    0  0.43373687456E+01  0.28262449463E+02  0.43810182446E+02  0.52315493911E+02  0.00000000000E+00 0. -1.
         -5    1    3    3    0  503 -0.17009227710E+01 -0.10708994776E+03  0.38973424496E+03  0.40421036818E+03  0.47000000000E+01 0.  1.
         11    1    4    4    0    0 -0.44648616356E+01  0.26228815367E+01 -0.68789182731E+01  0.86101111252E+01  0.00000000000E+00 0. -1.
        -12    1    4    4    0    0  0.60641885122E+02 -0.26261944109E+02  0.16265183367E+03  0.17556408213E+03  0.00000000000E+00 0.  1.
</event>
<event>
12    1  0.1061634E+000  0.1849381E+03  0.7818608E-02  0.1163228E+00
         21   -1    0    0  501  502  0.00000000000E+00  0.00000000000E+00  0.56266940166E+03  0.56266940166E+03  0.00000000000E+00 0.  1.
         21   -1    0    0  502  503 -0.00000000000E+00 -0.00000000000E+00 -0.81236740654E+02  0.81236740654E+02  0.00000000000E+00 0.  1.
         -6    2    1    2    0  503 -0.48073608122E+02  0.46472680910E+02  0.40317158476E+03  0.44356444669E+03  0.17242769424E+03 0.  0.
        -24    2    3    3    0    0 -0.34072289559E+02  0.65029307158E+02  0.13299957359E+03  0.17235347545E+03  0.81407015793E+02 0.  0.
          6    2    1    2  501    0  0.48073608122E+02 -0.46472680910E+02  0.78261076248E+02  0.20034169563E+03  0.17187558606E+03 0.  0.
         24    2    5    5    0    0  0.50340000127E+02 -0.39473222550E+02 -0.25966861935E+02  0.95748760647E+02  0.66342266582E+02 0.  0.
          5    1    5    5  501    0 -0.22663920054E+01 -0.69994583598E+01  0.10422793818E+03  0.10459293498E+03  0.47000000000E+01 0. -1.
        -11    1    6    6    0    0  0.55144638302E+02 -0.36286718886E+02  0.31295275356E+01  0.66086693392E+02  0.00000000000E+00 0.  1.
         12    1    6    6    0    0 -0.48046381743E+01 -0.31865036642E+01 -0.29096389470E+02  0.29662067254E+02  0.00000000000E+00 0. -1.
         -5    1    3    3    0  503 -0.14001318563E+02 -0.18556626248E+02  0.27017201117E+03  0.27121097123E+03  0.47000000000E+01 0.  1.
         13    1    4    4    0    0  0.22054542261E+02  0.73764169731E+01  0.98656706249E+01  0.25261548223E+02  0.00000000000E+00 0. -1.
        -14    1    4    4    0    0 -0.56126831820E+02  0.57652890185E+02  0.12313390297E+03  0.14709192723E+03  0.00000000000E+00 0.  1.
</event>
<event>
12    1  0.1061634E+000  0.8991027E+03  0.7818608E-02  0.9426741E-01
         21   -1    0    0  503  502  0.00000000000E+00  0.00000000000E+00  0.52030438908E+03  0.52030438908E+03  0.00000000000E+00 0.  1.
         21   -1    0    0  501  503 -0.00000000000E+00 -0.00000000000E+00 -0.16836103730E+04  0.16836103730E+04  0.00000000000E+00 0. -1.
          6    2    1    2  501    0  0.65025127765E+03 -0.59657133643E+03 -0.27524662229E+03  0.94017620886E+03  0.17159987496E+03 0.  0.
         24    2    3    3    0    0  0.65389055609E+03 -0.56822553637E+03 -0.26737515104E+03  0.91016323186E+03  0.80340013081E+02 0.  0.
         -6    2    1    2    0  502 -0.65025127765E+03  0.59657133643E+03 -0.88805936165E+03  0.12637385532E+04  0.17222548475E+03 0.  0.
        -24    2    5    5    0    0 -0.22189564233E+03  0.26628600281E+03 -0.39308369509E+03  0.53052647451E+03  0.82447786084E+02 0.  0.
          5    1    3    3  501    0 -0.36392784470E+01 -0.28345800059E+02 -0.78714712571E+01  0.30012976999E+02  0.47000000000E+01 0. -1.
        -13    1    4    4    0    0  0.46734304299E+03 -0.41963003649E+03 -0.22934361133E+03  0.66865340754E+03  0.00000000000E+00 0.  1.
         14    1    4    4    0    0  0.18654751311E+03 -0.14859549989E+03 -0.38031539706E+02  0.24150982432E+03  0.00000000000E+00 0. -1.
         -5    1    5    5    0  502 -0.42835563532E+03  0.33028533362E+03 -0.49497566656E+03  0.73321207873E+03  0.47000000000E+01 0.  1.
         11    1    6    6    0    0 -0.19726569058E+03  0.23880252211E+03 -0.38239664770E+03  0.49210526660E+03  0.00000000000E+00 0. -1.
        -12    1    6    6    0    0 -0.24629951752E+02  0.27483480705E+02 -0.10687047384E+02  0.38421207904E+02  0.00000000000E+00 0.  1.
</event>
<event>
12    1  0.1061634E+000  0.1778407E+03  0.7818608E-02  0.1170812E+00
         21   -1    0    0  501  502  0.00000000000E+00  0.00000000000E+00  0.29083531467E+03  0.29083531467E+03  0.00000000000E+00 0. -1.
         21   -1    0    0  502  503 -0.00000000000E+00 -0.00000000000E+00 -0.26337739814E+03  0.26337739814E+03  0.00000000000E+00 0. -1.
         -6    2    1    2    0  503 -0.28012991322E+02 -0.55503944739E+01  0.22750634156E+03  0.28654374856E+03  0.17185066141E+03 0.  0.
        -24    2    3    3    0    0  0.15528304498E+02 -0.49267003126E+02  0.18769763585E+03  0.21296515545E+03  0.86344595050E+02 0.  0.
          6    2    1    2  501    0  0.28012991322E+02  0.55503944739E+01 -0.20004842502E+03  0.26766896425E+03  0.17553281034E+03 0.  0.
         24    2    5    5    0    0 -0.23663600507E+01 -0.32058410550E+01 -0.14703955186E+02  0.79588558173E+02  0.78116932974E+02 0.  0.
          5    1    5    5  501    0  0.30379351372E+02  0.87562355289E+01 -0.18534446984E+03  0.18808040608E+03  0.47000000000E+01 0. -1.
        -11    1    6    6    0    0  0.20048204712E+01 -0.21019182232E+02 -0.41822130584E+02  0.46849929919E+02  0.00000000000E+00 0.  1.
         12    1    6    6    0    0 -0.43711805218E+01  0.17813341177E+02  0.27118175398E+02  0.32738628254E+02  0.00000000000E+00 0. -1.
         -5    1    3    3    0  503 -0.43541295820E+02  0.43716608652E+02  0.39808705707E+02  0.73578593108E+02  0.47000000000E+01 0.  1.
         13    1    4    4    0    0 -0.60417046488E+01 -0.42005556706E+02  0.26204832714E+02  0.49876469871E+02  0.00000000000E+00 0. -1.
        -14    1    4    4    0    0  0.21570009147E+02 -0.72614464196E+01  0.16149280314E+03  0.16308868558E+03  0.00000000000E+00 0.  1.
</event>
<event>
12    1  0.1061634E+000  0.2776723E+03  0.7818608E-02  0.1096968E+00
         21   -1    0    0  501  502  0.00000000000E+00  0.00000000000E+00  0.32275174824E+03  0.32275174824E+03  0.00000000000E+00 0.  1.
         21   -1    0    0  502  503 -0.00000000000E+00 -0.00000000000E+00 -0.24355805109E+03  0.24355805109E+03  0.00000000000E+00 0.  1.
         -6    2    1    2    0  503  0.24866455178E+02 -0.21729212840E+03  0.37975531311E+00  0.27767254231E+03  0.17107801401E+03 0.  0.
        -24    2    3    3    0    0  0.17881060235E+02 -0.23092240362E+03 -0.26591771153E+02  0.24630164202E+03  0.79451165859E+02 0.  0.
          6    2    1    2  501    0 -0.24866455178E+02  0.21729212840E+03  0.78813941839E+02  0.28863725702E+03  0.17107197039E+03 0.  0.
         24    2    5    5    0    0  0.52930250720E+02  0.10515833324E+03  0.39027844427E+02  0.14640034545E+03  0.77781758887E+02 0.  0.
          5    1    5    5  501    0 -0.77796705898E+02  0.11213379516E+03  0.39786097412E+02  0.14223691157E+03  0.47000000000E+01 0. -1.
        -13    1    6    6    0    0  0.19677977667E+02  0.83650759412E+02 -0.63544952216E+01  0.86168741228E+02  0.00000000000E+00 0.  1.
         14    1    6    6    0    0  0.33252273053E+02  0.21507573833E+02  0.45382339649E+02  0.60231604224E+02  0.00000000000E+00 0. -1.
         -5    1    3    3    0  503  0.69853949429E+01  0.13630275219E+02  0.26971526466E+02  0.31370900290E+02  0.47000000000E+01 0.  1.
         11    1    4    4    0    0  0.72086698781E+01 -0.82882083768E+02 -0.48452472782E+02  0.96275889245E+02  0.00000000000E+00 0. -1.
        -12    1    4    4    0    0  0.10672390357E+02 -0.14804031986E+03  0.21860701629E+02  0.15002575277E+03  0.00000000000E+00 0.  1.
</event>
<event>
12    1  0.1061634E+000  0.1753815E+03  0.7818608E-02  0.1172755E+00
         21   -1    0    0  501  502  0.00000000000E+00  0.00000000000E+00  0.10578238204E+03  0.10578238204E+03  0.00000000000E+00 0.  1.
         21   -1    0    0  502  503 -0.00000000000E+00 -0.00000000000E+00 -0.36357845569E+03  0.36357845569E+03  0.00000000000E+00 0.  1.
         -6    2    1    2    0  503 -0.19001557316E+02  0.25914994884E+02 -0.22446014688E+02  0.17681202367E+03  0.17241236034E+03 0.  0.
        -24    2    3    3    0    0 -0.69979541007E+02  0.49318205430E+02 -0.33995780329E+02  0.11934940824E+03  0.75889041508E+02 0.  0.
          6    2    1    2  501    0  0.19001557316E+02 -0.25914994884E+02 -0.23535005896E+03  0.29254881406E+03  0.17077034934E+03 0.  0.
         24    2    5    5    0    0 -0.51346517462E+02 -0.58536715603E+01 -0.10378139513E+03  0.14193768691E+03  0.81884056227E+02 0.  0.
          5    1    5    5  501    0  0.70348074778E+02 -0.20061323324E+02 -0.13156866383E+03  0.15061112715E+03  0.47000000000E+01 0. -1.
        -11    1    6    6    0    0 -0.46722650104E+02 -0.12447319676E+02 -0.11692208084E+03  0.12652554994E+03  0.00000000000E+00 0.  1.
         12    1    6    6    0    0 -0.46238673581E+01  0.65936481157E+01  0.13140685715E+02  0.15412136966E+02  0.00000000000E+00 0. -1.
         -5    1    3    3    0  503  0.50977983691E+02 -0.23403210547E+02  0.11549765641E+02  0.57462615424E+02  0.47000000000E+01 0.  1.
         13    1    4    4    0    0 -0.10822842670E+02  0.20973754444E+02 -0.46892440449E+02  0.52496983439E+02  0.00000000000E+00 0. -1.
        -14    1    4    4    0    0 -0.59156698337E+02  0.28344450986E+02  0.12896660119E+02  0.66852424803E+02  0.00000000000E+00 0.  1.
</event>
<event>
12    1  0.1061634E+000  0.2117704E+03  0.7818608E-02  0.1140389E+00
         21   -1    0    0  503  502  0.00000000000E+00  0.00000000000E+00  0.92490249638E+03  0.92490249638E+03  0.00000000000E+00 0. -1.
         21   -1    0    0  501  503 -0.00000000000E+00 -0.00000000000E+00 -0.64261490743E+02  0.64261490743E+02  0.00000000000E+00 0. -1.
          6    2    1    2  501    0  0.95397703211E+02  0.77840113529E+02  0.18248191702E+03  0.27870889814E+03  0.17093623024E+03 0.  0.
         24    2    3    3    0    0  0.33084844318E+02  0.93384147516E+02  0.17313984508E+03  0.21364067483E+03  0.76483501871E+02 0.  0.
         -6    2    1    2    0  502 -0.95397703211E+02 -0.77840113529E+02  0.67815908861E+03  0.71045508898E+03  0.17229880713E+03 0.  0.
        -24    2    5    5    0    0  0.53307235290E+00 -0.48770007855E+02  0.17875685386E+03  0.20107068912E+03  0.78080800390E+02 0.  0.
          5    1    3    3  501    0  0.62312858893E+02 -0.15544033987E+02  0.93420719436E+01  0.65068223306E+02  0.47000000000E+01 0. -1.
        -13    1    4    4    0    0  0.44665974161E+02  0.24980996062E+02  0.10285166447E+03  0.11488065241E+03  0.00000000000E+00 0.  1.
         14    1    4    4    0    0 -0.11581129843E+02  0.68403151454E+02  0.70288180606E+02  0.98760022429E+02  0.00000000000E+00 0. -1.
         -5    1    5    5    0  502 -0.95930775564E+02 -0.29070105674E+02  0.49940223475E+03  0.50938439986E+03  0.47000000000E+01 0.  1.
         13    1    6    6    0    0  0.24480521486E+02  0.10683340704E+02  0.68707503039E+02  0.73716691968E+02  0.00000000000E+00 0. -1.
        -14    1    6    6    0    0 -0.23947449133E+02 -0.59453348560E+02  0.11004935082E+03  0.12735399716E+03  0.00000000000E+00 0.  1.
</event>
<event>
12    1  0.1061634E+000  0.2104037E+03  0.7818608E-02  0.1141329E+00
         21   -1    0    0  501  502  0.00000000000E+00  0.00000000000E+00  0.46824524686E+03  0.46824524686E+03  0.00000000000E+00 0. -1.
         21   -1    0    0  502  503 -0.00000000000E+00 -0.00000000000E+00 -0.10521112361E+03  0.10521112361E+03  0.00000000000E+00 0. -1.
         -6    2    1    2    0  503  0.11421714649E+03  0.38255950662E+02  0.27377458412E+03  0.34528574719E+03  0.17251275312E+03 0.  0.
        -24    2    3    3    0    0  0.13906504806E+03 -0.27238797420E+01  0.18793178075E+03  0.24685891344E+03  0.79211500513E+02 0.  0.
          6    2    1    2  501    0 -0.11421714649E+03 -0.38255950662E+02  0.89259539133E+02  0.22817062329E+03  0.17200434208E+03 0.  0.
         24    2    5    5    0    0 -0.10497228240E+03 -0.47734099484E+02  0.12592559063E+03  0.18890496208E+03  0.80809071263E+02 0.  0.
          5    1    5    5  501    0 -0.92448640897E+01  0.94781488220E+01 -0.36666051501E+02  0.39265661204E+02  0.47000000000E+01 0. -1.
        -13    1    6    6    0    0 -0.36249558849E+02  0.20917850109E+02  0.52485804860E+02  0.67129328030E+02  0.00000000000E+00 0.  1.
         14    1    6    6    0    0 -0.68722723547E+02 -0.68651949593E+02  0.73439785775E+02  0.12177563405E+03  0.00000000000E+00 0. -1.
         -5    1    3    3    0  503 -0.24847901576E+02  0.40979830404E+02  0.85842803363E+02  0.98426833750E+02  0.47000000000E+01 0.  1.
         13    1    4    4    0    0  0.22283001697E+02  0.25952001127E+02  0.72532555112E+02  0.80193578784E+02  0.00000000000E+00 0. -1.
        -14    1    4    4    0    0  0.11678204637E+03 -0.28675880869E+02  0.11539922564E+03  0.16666533465E+03  0.00000000000E+00 0.  1.
</event>
<event>
12    1  0.1061634E+000  0.2675053E+03  0.7818608E-02  0.1102880E+00
         21   -1    0    0  501  502  0.00000000000E+00  0.00000000000E+00  0.19256189470E+03  0.19256189470E+03  0.00000000000E+00 0.  1.
         21   -1    0    0  502  503 -0.00000000000E+00 -0.00000000000E+00 -0.55247624209E+03  0.55247624209E+03  0.00000000000E+00 0.  1.
         -6    2    1    2    0  503 -0.11174723880E+03  0.16999275497E+03  0.34362300970E+02  0.26857913686E+03  0.17195639827E+03 0.  0.
        -24    2    3    3    0    0 -0.52720869111E+02  0.15183961604E+03 -0.26073421804E+02  0.18204466189E+03  0.81398258942E+02 0.  0.
          6    2    1    2  501    0  0.11174723880E+03 -0.16999275497E+03 -0.39427664836E+03  0.47645899993E+03  0.17370699769E+03 0.  0.
         24    2    5    5    0    0  0.12254636422E+03 -0.12514466321E+03 -0.38331401677E+03  0.42881194613E+03  0.79191234223E+02 0.  0.
          5    1    5    5  501    0 -0.10799125420E+02 -0.44848091759E+02 -0.10962631593E+02  0.47647053799E+02  0.47000000000E+01 0. -1.
        -13    1    6    6    0    0 -0.48882900305E+01 -0.26269125744E-01  0.10360255271E+01  0.49969409024E+01  0.00000000000E+00 0.  1.
         14    1    6    6    0    0  0.12743465425E+03 -0.12511839408E+03 -0.38435004229E+03  0.42381500522E+03  0.00000000000E+00 0. -1.
         -5    1    3    3    0  503 -0.59026369688E+02  0.18153138931E+02  0.60435722774E+02  0.86534474972E+02  0.47000000000E+01 0.  1.
         13    1    4    4    0    0  0.18769159484E+02  0.30902217014E+02 -0.20242217809E+02  0.41436406045E+02  0.00000000000E+00 0. -1.
        -14    1    4    4    0    0 -0.71490028594E+02  0.12093739902E+03 -0.58312039950E+01  0.14060825584E+03  0.00000000000E+00 0.  1.
</event>
<event>
12    1  0.1061634E+000  0.3685333E+03  0.7818608E-02  0.1055313E+00
         21   -1    0    0  503  502  0.00000000000E+00  0.00000000000E+00  0.40068087055E+03  0.40068087055E+03  0.00000000000E+00 0. -1.
         21   -1    0    0  501  503 -0.00000000000E+00 -0.00000000000E+00 -0.51419364883E+03  0.51419364883E+03  0.00000000000E+00 0. -1.
          6    2    1    2  501    0  0.26938763314E+02  0.32428716227E+03 -0.32424565063E+03  0.49086865128E+03  0.17299979848E+03 0.  0.
         24    2    3    3    0    0 -0.51499936312E+02  0.17876597265E+03 -0.16438270739E+03  0.26085278911E+03  0.80081125621E+02 0.  0.
         -6    2    1    2    0  502 -0.26938763314E+02 -0.32428716227E+03  0.21073287235E+03  0.42400586811E+03  0.17171130457E+03 0.  0.
        -24    2    5    5    0    0 -0.34910644661E+02 -0.29998821650E+03  0.12721048423E+03  0.33652976294E+03  0.76538166293E+02 0.  0.
          5    1    3    3  501    0  0.78438699626E+02  0.14552118962E+03 -0.15986294324E+03  0.23001586217E+03  0.47000000000E+01 0. -1.
        -13    1    4    4    0    0 -0.54045761949E+02  0.14624888978E+03 -0.90953457597E+02  0.18050543924E+03  0.00000000000E+00 0.  1.
         14    1    4    4    0    0  0.25458256370E+01  0.32517082872E+02 -0.73429249788E+02  0.80347349870E+02  0.00000000000E+00 0. -1.
         -5    1    5    5    0  502  0.79718813476E+01 -0.24298945777E+02  0.83522388117E+02  0.87476105166E+02  0.47000000000E+01 0.  1.
         11    1    6    6    0    0  0.17859236457E+02 -0.23393071476E+02  0.63739487065E+01  0.30113374803E+02  0.00000000000E+00 0. -1.
        -12    1    6    6    0    0 -0.52769881118E+02 -0.27659514502E+03  0.12083653552E+03  0.30641638814E+03  0.00000000000E+00 0.  1.
</event>
<event>
12    1  0.1061634E+000  0.1820757E+03  0.7818608E-02  0.1166065E+00
         21   -1    0    0  501  502  0.00000000000E+00  0.00000000000E+00  0.82309767381E+02  0.82309767381E+02  0.00000000000E+00 0.  1.
         21   -1    0    0  502  503 -0.00000000000E+00 -0.00000000000E+00 -0.40049535529E+03  0.40049535529E+03  0.00000000000E+00 0.  1.
         -6    2    1    2    0  503 -0.30571588647E+02  0.46033947667E+02 -0.16235664445E+03  0.24315076699E+03  0.17236260941E+03 0.  0.
        -24    2    3    3    0    0 -0.46384135444E+02 -0.28342095657E+02 -0.12119750593E+03  0.15655979090E+03  0.82869598023E+02 0.  0.
          6    2    1    2  501    0  0.30571588647E+02 -0.46033947667E+02 -0.15582894346E+03  0.23965435568E+03  0.17348718744E+03 0.  0.
         24    2    5    5    0    0 -0.10642457901E+02 -0.84739084788E+01 -0.73487033193E+01  0.80979134270E+02  0.79489293062E+02 0.  0.
          5    1    5    5  501    0  0.41214046547E+02 -0.37560039188E+02 -0.14848024014E+03  0.15867522141E+03  0.47000000000E+01 0. -1.
        -13    1    6    6    0    0 -0.21771528341E+02 -0.27784730649E+02  0.23876439747E+02  0.42615432399E+02  0.00000000000E+00 0.  1.
         14    1    6    6    0    0  0.11129070440E+02  0.19310822170E+02 -0.31225143066E+02  0.38363701871E+02  0.00000000000E+00 0. -1.
         -5    1    3    3    0  503  0.15812546798E+02  0.74376043324E+02 -0.41159138519E+02  0.86590976091E+02  0.47000000000E+01 0.  1.
         11    1    4    4    0    0 -0.21429052806E+01 -0.11348890008E+02  0.11106764067E+02  0.16023406489E+02  0.00000000000E+00 0. -1.
        -12    1    4    4    0    0 -0.44241230164E+02 -0.16993205648E+02 -0.13230427000E+03  0.14053638441E+03  0.00000000000E+00 0.  1.
</event>
<event>
12    1  0.1061634E+000  0.2470285E+03  0.7818608E-02  0.1115570E+00
         21   -1    0    0  501  502  0.00000000000E+00  0.00000000000E+00  0.16808988899E+03  0.16808988899E+03  0.00000000000E+00 0.  1.
         21   -1    0    0  502  503 -0.00000000000E+00 -0.00000000000E+00 -0.36251608318E+03  0.36251608318E+03  0.00000000000E+00 0.  1.
         -6    2    1    2    0  503 -0.17397437205E+03  0.18008869904E+01 -0.74091303543E+02  0.25790037180E+03  0.17536463495E+03 0.  0.
        -24    2    3    3    0    0 -0.14647678734E+03  0.47554359004E+02 -0.83636462132E+01  0.17309640784E+03  0.78584664779E+02 0.  0.
          6    2    1    2  501    0  0.17397437205E+03 -0.18008869904E+01 -0.12033489065E+03  0.27270560036E+03  0.17209745273E+03 0.  0.
         24    2    5    5    0    0  0.15930044742E+03  0.34346267201E+02 -0.13925172786E+03  0.22909507926E+03  0.80853033402E+02 0.  0.
          5    1    5    5  501    0  0.14673924627E+02 -0.36147154191E+02  0.18916837216E+02  0.43610521097E+02  0.47000000000E+01 0. -1.
        -13    1    6    6    0    0  0.10500322126E+03 -0.17173230376E+02 -0.91318266250E+02  0.14021277426E+03  0.00000000000E+00 0.  1.
         14    1    6    6    0    0  0.54297226167E+02  0.51519497577E+02 -0.47933461612E+02  0.88882304999E+02  0.00000000000E+00 0. -1.
         -5    1    3    3    0  503 -0.27497584708E+02 -0.45753472013E+02 -0.65727657330E+02  0.84803963965E+02  0.47000000000E+01 0.  1.
         13    1    4    4    0    0 -0.10528064018E+03  0.15079650673E+02 -0.37887240350E+02  0.11290195766E+03  0.00000000000E+00 0. -1.
        -14    1    4    4    0    0 -0.41196147161E+02  0.32474708330E+02  0.29523594136E+02  0.60194450183E+02  0.00000000000E+00 0.  1.
</event>
<event>
12    1  0.1061634E+000  0.2965427E+03  0.7818608E-02  0.1087316E+00
         21   -1    0    0  503  502  0.00000000000E+00  0.00000000000E+00  0.62066283184E+02  0.62066283184E+02  0.00000000000E+00 0.  1.
         21   -1    0    0  501  503 -0.00000000000E+00 -0.00000000000E+00 -0.16070945984E+04  0.16070945984E+04  0.00000000000E+00 0.  1.
          6    2    1    2  501    0 -0.93401904176E+02  0.22127387806E+03 -0.10719518649E+04  0.11122132778E+04  0.17392966958E+03 0.  0.
         24    2    3    3    0    0 -0.12425854045E+03  0.13055062758E+03 -0.79783183755E+03  0.82178821080E+03  0.79476859281E+02 0.  0.
         -6    2    1    2    0  502  0.93401904176E+02 -0.22127387806E+03 -0.47307645041E+03  0.55694760383E+03  0.16942036670E+03 0.  0.
        -24    2    5    5    0    0  0.11821013675E+03 -0.12112071511E+03 -0.34393398951E+03  0.39158143539E+03  0.80009795315E+02 0.  0.
          5    1    3    3  501    0  0.30856636278E+02  0.90723250484E+02 -0.27412002730E+03  0.29042506701E+03  0.47000000000E+01 0. -1.
        -11    1    4    4    0    0 -0.13524224318E+02 -0.69737755808E+01 -0.26993871105E+02  0.30987211338E+02  0.00000000000E+00 0.  1.
         12    1    4    4    0    0 -0.11073431614E+03  0.13752440316E+03 -0.77083796645E+03  0.79080099946E+03  0.00000000000E+00 0. -1.
         -5    1    5    5    0  502 -0.24808232573E+02 -0.10015316296E+03 -0.12914246091E+03  0.16536616843E+03  0.47000000000E+01 0.  1.
         13    1    6    6    0    0  0.38463067773E+02 -0.95800883070E+02 -0.20093484175E+03  0.22590269456E+03  0.00000000000E+00 0. -1.
        -14    1    6    6    0    0  0.79747068976E+02 -0.25319832036E+02 -0.14299914775E+03  0.16567874083E+03  0.00000000000E+00 0.  1.
</event>
<event>
12    1  0.1061634E+000  0.2040703E+03  0.7818608E-02  0.1146874E+00
         21   -1    0    0  501  502  0.00000000000E+00  0.00000000000E+00  0.54249087973E+03  0.54249087973E+03  0.00000000000E+00 0.  1.
         21   -1    0    0  502  503 -0.00000000000E+00 -0.00000000000E+00 -0.10515845985E+03  0.10515845985E+03  0.00000000000E+00 0.  1.
         -6    2    1    2    0  503  0.10651211414E+03  0.54370135844E+01  0.46627722605E+02  0.20686044458E+03  0.17100499244E+03 0.  0.
        -24    2    3    3    0    0  0.83739296384E+02 -0.21433654164E+02 -0.30597736305E+02  0.12185164787E+03  0.80249182749E+02 0.  0.
          6    2    1    2  501    0 -0.10651211414E+03 -0.54370135844E+01  0.39070469728E+03  0.44078889500E+03  0.17398361390E+03 0.  0.
         24    2    5    5    0    0 -0.11811338482E+03  0.10744407057E+02  0.17282893742E+03  0.22195479211E+03  0.72992288444E+02 0.  0.
          5    1    5    5  501    0  0.11601270685E+02 -0.16181420641E+02  0.21787575986E+03  0.21883410290E+03  0.47000000000E+01 0. -1.
        -11    1    6    6    0    0 -0.33728625121E+02 -0.12679153990E+02  0.10551625589E+03  0.11149915406E+03  0.00000000000E+00 0.  1.
         12    1    6    6    0    0 -0.84384759703E+02  0.23423561047E+02  0.67312681527E+02  0.11045563805E+03  0.00000000000E+00 0. -1.
         -5    1    3    3    0  503  0.22772817755E+02  0.26870667748E+02  0.77225458910E+02  0.85008796707E+02  0.47000000000E+01 0.  1.
         11    1    4    4    0    0  0.15641814152E+02 -0.20533546958E+01 -0.46656691477E+02  0.49251695149E+02  0.00000000000E+00 0. -1.
        -12    1    4    4    0    0  0.68097482232E+02 -0.19380299468E+02  0.16058955172E+02  0.72599952721E+02  0.00000000000E+00 0.  1.
</event>
<event>
12    1  0.1061634E+000  0.2091730E+03  0.7818608E-02  0.1142841E+00
         21   -1    0    0  503  502  0.00000000000E+00  0.00000000000E+00  0.24896212141E+02  0.24896212141E+02  0.00000000000E+00 0.  1.
         21   -1    0    0  501  503 -0.00000000000E+00 -0.00000000000E+00 -0.18166655254E+04  0.18166655254E+04  0.00000000000E+00 0.  1.
          6    2    1    2  501    0  0.11323896397E+03 -0.18894694343E+02 -0.11014266940E+04  0.11211128898E+04  0.17485215791E+03 0.  0.
         24    2    3    3    0    0  0.83642158319E+02  0.16391010277E+02 -0.10262494428E+04  0.10328249465E+04  0.79213479083E+02 0.  0.
         -6    2    1    2    0  502 -0.11323896397E+03  0.18894694343E+02 -0.69034261931E+03  0.72044884773E+03  0.17115355013E+03 0.  0.
        -24    2    5    5    0    0 -0.10911305631E+03  0.30073498181E+02 -0.69382957501E+03  0.70717339560E+03  0.76711524159E+02 0.  0.
          5    1    3    3  501    0  0.29596805651E+02 -0.35285704620E+02 -0.75177251154E+02  0.88287943381E+02  0.47000000000E+01 0. -1.
        -13    1    4    4    0    0 -0.10168165650E+02 -0.10927451852E+02 -0.25086253533E+03  0.25130621247E+03  0.00000000000E+00 0.  1.
         14    1    4    4    0    0  0.93810323969E+02  0.27318462129E+02 -0.77538690750E+03  0.78151873399E+03  0.00000000000E+00 0. -1.
         -5    1    5    5    0  502 -0.41259076583E+01 -0.11178803838E+02  0.34869556958E+01  0.13275452131E+02  0.47000000000E+01 0.  1.
         13    1    6    6    0    0 -0.26920648364E+02  0.44300178522E+02 -0.21725551746E+03  0.22335439775E+03  0.00000000000E+00 0. -1.
        -14    1    6    6    0    0 -0.82192407947E+02 -0.14226680341E+02 -0.47657405754E+03  0.48381899785E+03  0.00000000000E+00 0.  1.
</event>
<event>
12    1  0.1061634E+000  0.1726228E+03  0.7818608E-02  0.1175233E+00
         21   -1    0    0  501  502  0.00000000000E+00  0.00000000000E+00  0.16839468470E+03  0.16839468470E+03  0.00000000000E+00 0.  1.
         21   -1    0    0  502  503 -0.00000000000E+00 -0.00000000000E+00 -0.20236891950E+03  0.20236891950E+03  0.00000000000E+00 0.  1.
         -6    2    1    2    0  503  0.95906117945E+01  0.38268234006E+01  0.49171201842E+02  0.17948940968E+03  0.17231371589E+03 0.  0.
        -24    2    3    3    0    0 -0.46054774278E+02  0.33169944723E+01  0.74380443285E+02  0.11821735429E+03  0.79440844826E+02 0.  0.
          6    2    1    2  501    0 -0.95906117945E+01 -0.38268234006E+01 -0.83145436646E+02  0.19127419452E+03  0.17194775207E+03 0.  0.
         24    2    5    5    0    0 -0.19724561583E+02 -0.23996677201E+02  0.18897648655E+02  0.86658702367E+02  0.78662003057E+02 0.  0.
          5    1    5    5  501    0  0.10133949788E+02  0.20169853800E+02 -0.10204308530E+03  0.10461549215E+03  0.47000000000E+01 0. -1.
        -13    1    6    6    0    0 -0.13704804029E+01  0.53632213637E+01  0.43711455902E+02  0.44060568959E+02  0.00000000000E+00 0.  1.
         14    1    6    6    0    0 -0.18354081180E+02 -0.29359898565E+02 -0.24813807248E+02  0.42598133407E+02  0.00000000000E+00 0. -1.
         -5    1    3    3    0  503  0.55645386073E+02  0.50982892829E+00 -0.25209241442E+02  0.61272055383E+02  0.47000000000E+01 0.  1.
         13    1    4    4    0    0 -0.52003718141E+02 -0.13609860473E+02  0.14456558402E+02  0.55665133462E+02  0.00000000000E+00 0. -1.
        -14    1    4    4    0    0  0.59489438626E+01  0.16926854946E+02  0.59923884883E+02  0.62552220831E+02  0.00000000000E+00 0.  1.
</event>
<event>
12    1  0.1061634E+000  0.1840039E+03  0.7818608E-02  0.1164198E+00
         21   -1    0    0  503  502  0.00000000000E+00  0.00000000000E+00  0.52868949477E+03  0.52868949477E+03  0.00000000000E+00 0. -1.
         21   -1    0    0  501  503 -0.00000000000E+00 -0.00000000000E+00 -0.64166930127E+02  0.64166930127E+02  0.00000000000E+00 0. -1.
          6    2    1    2  501    0 -0.27632648177E+02  0.58106625606E+02  0.20703597931E+03  0.27638088706E+03  0.17141340326E+03 0.  0.
         24    2    3    3    0    0 -0.51928842414E+02  0.26676106905E+02  0.21432893537E+03  0.23571813053E+03  0.78853821527E+02 0.  0.
         -6    2    1    2    0  502  0.27632648177E+02 -0.58106625606E+02  0.25748658534E+03  0.31647553784E+03  0.17238759015E+03 0.  0.
        -24    2    5    5    0    0  0.58049221221E+02 -0.29328624094E+02  0.25366996818E+03  0.27416717161E+03  0.81174533912E+02 0.  0.
          5    1    3    3  501    0  0.24296194237E+02  0.31430518701E+02 -0.72929560637E+01  0.40662756527E+02  0.47000000000E+01 0. -1.
        -13    1    4    4    0    0 -0.70402236697E+02  0.15704989059E+02  0.12974764653E+03  0.14845057559E+03  0.00000000000E+00 0.  1.
         14    1    4    4    0    0  0.18473394283E+02  0.10971117846E+02  0.84581288837E+02  0.87267554936E+02  0.00000000000E+00 0. -1.
         -5    1    5    5    0  502 -0.30416573043E+02 -0.28778001511E+02  0.38166171578E+01  0.42308366232E+02  0.47000000000E+01 0.  1.
         13    1    6    6    0    0 -0.10054317975E+02  0.17886048061E+02  0.63300470542E+02  0.66542840306E+02  0.00000000000E+00 0. -1.
        -14    1    6    6    0    0  0.68103539196E+02 -0.47214672156E+02  0.19036949764E+03  0.20762433130E+03  0.00000000000E+00 0.  1.
</event>
<event>
12    1  0.1061634E+000  0.4196430E+03  0.7818608E-02  0.1037240E+00
         21   -1    0    0  501  502  0.00000000000E+00  0.00000000000E+00  0.19022136906E+03  0.19022136906E+03  0.00000000000E+00 0.  1.
         21   -1    0    0  502  503 -0.00000000000E+00 -0.00000000000E+00 -0.10999383866E+04  0.10999383866E+04  0.00000000000E+00 0.  1.
         -6    2    1    2    0  503  0.33636345618E+03 -0.18143812940E+03 -0.19734204661E+03  0.46372853085E+03  0.17332079366E+03 0.  0.
        -24    2    3    3    0    0  0.33442034561E+03 -0.20176919802E+03 -0.19012118267E+03  0.44156191393E+03  0.79265899996E+02 0.  0.
          6    2    1    2  501    0 -0.33636345618E+03  0.18143812940E+03 -0.71237497092E+03  0.82643122480E+03  0.17161089907E+03 0.  0.
         24    2    5    5    0    0 -0.32445860394E+03  0.20149142333E+03 -0.62923470838E+03  0.73995432985E+03  0.75656544300E+02 0.  0.
          5    1    5    5  501    0 -0.11904852243E+02 -0.20053293932E+02 -0.83140262544E+02  0.86476894951E+02  0.47000000000E+01 0. -1.
        -13    1    6    6    0    0 -0.16284786535E+03  0.57460456921E+02 -0.26785835870E+03  0.31869928096E+03  0.00000000000E+00 0.  1.
         14    1    6    6    0    0 -0.16161073859E+03  0.14403096641E+03 -0.36137634968E+03  0.42125504889E+03  0.00000000000E+00 0. -1.
         -5    1    3    3    0  503  0.19431105643E+01  0.20331068619E+02 -0.72208639350E+01  0.22166616923E+02  0.47000000000E+01 0.  1.
         13    1    4    4    0    0  0.80881966568E+02 -0.59249547210E+02 -0.87700253204E+02  0.13320561464E+03  0.00000000000E+00 0. -1.
        -14    1    4    4    0    0  0.25353837905E+03 -0.14251965081E+03 -0.10242092947E+03  0.30835629929E+03  0.00000000000E+00 0.  1.
</event>
<event>
12    1  0.1061634E+000  0.1720356E+03  0.7818608E-02  0.1175749E+00
         21   -1    0    0  501  502  0.00000000000E+00  0.00000000000E+00  0.17101632271E+04  0.17101632271E+04  0.00000000000E+00 0.  1.
         21   -1    0    0  502  503 -0.00000000000E+00 -0.00000000000E+00 -0.22123536509E+02  0.22123536509E+02  0.00000000000E+00 0.  1.
         -6    2    1    2    0  503  0.98115048749E+01  0.56464764616E+01  0.12483797215E+04  0.12601778302E+04  0.17166271086E+03 0.  0.
        -24    2    3    3    0    0  0.38627184444E+02 -0.43412322778E+02  0.50496162336E+03  0.51457091778E+03  0.80126769645E+02 0.  0.
          6    2    1    2  501    0 -0.98115048749E+01 -0.56464764616E+01  0.43965996905E+03  0.47210893338E+03  0.17163277157E+03 0.  0.
         24    2    5    5    0    0 -0.61849642189E+02 -0.23358694017E+02  0.18991719626E+03  0.21634491531E+03  0.79784548115E+02 0.  0.
          5    1    5    5  501    0  0.52038137314E+02  0.17712217555E+02  0.24974277278E+03  0.25576401808E+03  0.47000000000E+01 0. -1.
        -11    1    6    6    0    0 -0.35155112582E+02  0.22441762018E+02  0.41894038313E+02  0.59115353922E+02  0.00000000000E+00 0.  1.
         12    1    6    6    0    0 -0.26694529607E+02 -0.45800456035E+02  0.14802315795E+03  0.15722956139E+03  0.00000000000E+00 0. -1.
         -5    1    3    3    0  503 -0.28815679569E+02  0.49058799240E+02  0.74341809819E+03  0.74560691244E+03  0.47000000000E+01 0.  1.
         11    1    4    4    0    0 -0.20519822700E+02 -0.90184408593E+01  0.54287104039E+02  0.58732317033E+02  0.00000000000E+00 0. -1.
        -12    1    4    4    0    0  0.59147007144E+02 -0.34393881919E+02  0.45067451932E+03  0.45583860075E+03  0.00000000000E+00 0.  1.
</event>
<event>
12    1  0.1061634E+000  0.3766019E+03  0.7818608E-02  0.1052213E+00
         21   -1    0    0  503  502  0.00000000000E+00  0.00000000000E+00  0.88895941938E+03  0.88895941938E+03  0.00000000000E+00 0.  1.
         21   -1    0    0  501  503 -0.00000000000E+00 -0.00000000000E+00 -0.22025809858E+03  0.22025809858E+03  0.00000000000E+00 0.  1.
          6    2    1    2  501    0 -0.19144320684E+03  0.27502441436E+03  0.62576083858E+03  0.73034625226E+03  0.17187231057E+03 0.  0.
         24    2    3    3    0    0 -0.16091384549E+03  0.12679229149E+03  0.42967347714E+03  0.48260213533E+03  0.79473097408E+02 0.  0.
         -6    2    1    2    0  502  0.19144320684E+03 -0.27502441436E+03  0.42940482219E+02  0.37887126571E+03  0.17149525074E+03 0.  0.
        -24    2    5    5    0    0  0.18429690992E+03 -0.21402087920E+03  0.83524055994E+02  0.30510394691E+03  0.79635813245E+02 0.  0.
          5    1    3    3  501    0 -0.30529361348E+02  0.14823212287E+03  0.19608736144E+03  0.24774411693E+03  0.47000000000E+01 0.  1.
        -13    1    4    4    0    0 -0.51582098725E+02 -0.85410044040E+00  0.95410549777E+02  0.10846481183E+03  0.00000000000E+00 0.  1.
         14    1    4    4    0    0 -0.10933174676E+03  0.12764639193E+03  0.33426292736E+03  0.37413732350E+03  0.00000000000E+00 0. -1.
         -5    1    5    5    0  502  0.71462969123E+01 -0.61003535164E+02 -0.40583573774E+02  0.73767318796E+02  0.47000000000E+01 0.  1.
         11    1    6    6    0    0  0.14092611330E+03 -0.20041783406E+03  0.53946506753E+02  0.25087387909E+03  0.00000000000E+00 0. -1.
        -12    1    6    6    0    0  0.43370796623E+02 -0.13603045139E+02  0.29577549241E+02  0.54230067821E+02  0.00000000000E+00 0.  1.
</event>
<event>
12    1  0.1061634E+000  0.2112910E+03  0.7818608E-02  0.1140820E+00
         21   -1    0    0  501  502  0.00000000000E+00  0.00000000000E+00  0.57314064548E+02  0.57314064548E+02  0.00000000000E+00 0. -1.
         21   -1    0    0  502  503 -0.00000000000E+00 -0.00000000000E+00 -0.91265318626E+03  0.91265318626E+03  0.00000000000E+00 0. -1.
         -6    2    1    2    0  503  0.11679363225E+03  0.35485167382E+02 -0.23734403235E+03  0.31685025087E+03  0.17076868022E+03 0.  0.
        -24    2    3    3    0    0  0.39885555945E+02 -0.19738218974E+01 -0.20774738448E+03  0.22620765799E+03  0.80101031380E+02 0.  0.
          6    2    1    2  501    0 -0.11679363225E+03 -0.35485167382E+02 -0.61799508936E+03  0.65311699994E+03  0.17246430210E+03 0.  0.
         24    2    5    5    0    0 -0.10825678141E+03 -0.47064647793E+02 -0.62154744516E+03  0.63757121529E+03  0.79001368287E+02 0.  0.
          5    1    5    5  501    0 -0.85368508348E+01  0.11579480411E+02  0.35523557939E+01  0.15545784652E+02  0.47000000000E+01 0. -1.
        -11    1    6    6    0    0 -0.56347358041E+02 -0.42270792658E+01 -0.13438036610E+03  0.14577714413E+03  0.00000000000E+00 0.  1.
         12    1    6    6    0    0 -0.51909423373E+02 -0.42837568527E+02 -0.48716707905E+03  0.49179407116E+03  0.00000000000E+00 0. -1.
         -5    1    3    3    0  503  0.76908076304E+02  0.37458989279E+02 -0.29596647868E+02  0.90642592878E+02  0.47000000000E+01 0.  1.
         11    1    4    4    0    0  0.12688457827E+02 -0.25697390844E+02 -0.19817385911E+02  0.34843674355E+02  0.00000000000E+00 0. -1.
        -12    1    4    4    0    0  0.27197098118E+02  0.23723568947E+02 -0.18792999857E+03  0.19136398363E+03  0.00000000000E+00 0.  1.
</event>
<event>
12    1  0.1061634E+000  0.2883675E+03  0.7818608E-02  0.1091309E+00
         21   -1    0    0  503  502  0.00000000000E+00  0.00000000000E+00  0.15049867727E+03  0.15049867727E+03  0.00000000000E+00 0.  1.
         21   -1    0    0  501  503 -0.00000000000E+00 -0.00000000000E+00 -0.66053707596E+03  0.66053707596E+03  0.00000000000E+00 0.  1.
          6    2    1    2  501    0  0.18716454369E+02 -0.23054679316E+03 -0.90185427086E+02  0.30214104519E+03  0.17220241123E+03 0.  0.
         24    2    3    3    0    0 -0.52536164979E+01 -0.14924316297E+03  0.93656363161E+01  0.17130775889E+03  0.83411695433E+02 0.  0.
         -6    2    1    2    0  502 -0.18716454369E+02  0.23054679316E+03 -0.41985297160E+03  0.50889470804E+03  0.17086596095E+03 0.  0.
        -24    2    5    5    0    0  0.33738198087E+02  0.19225721186E+03 -0.25553579315E+03  0.33214684318E+03  0.83197850508E+02 0.  0.
          5    1    3    3  501    0  0.23970070866E+02 -0.81303630188E+02 -0.99551063402E+02  0.13083328630E+03  0.47000000000E+01 0. -1.
        -11    1    4    4    0    0  0.96501542739E+01  0.46775179480E+01 -0.10963935397E+02  0.15336640149E+02  0.00000000000E+00 0.  1.
         12    1    4    4    0    0 -0.14903770772E+02 -0.15392068092E+03  0.20329571713E+02  0.15597111875E+03  0.00000000000E+00 0. -1.
         -5    1    5    5    0  502 -0.52454652456E+02  0.38289581294E+02 -0.16431717845E+03  0.17674786486E+03  0.47000000000E+01 0.  1.
         13    1    6    6    0    0  0.24667973585E+02  0.18904146422E+03 -0.25927636209E+03  0.32182202544E+03  0.00000000000E+00 0. -1.
        -14    1    6    6    0    0  0.90702245020E+01  0.32157476419E+01  0.37405689422E+01  0.10324817743E+02  0.00000000000E+00 0.  1.
</event>
<event>
12    1  0.1061634E+000  0.3443168E+03  0.7818608E-02  0.1065048E+00
         21   -1    0    0  503  502  0.00000000000E+00  0.00000000000E+00  0.17591556204E+03  0.17591556204E+03  0.00000000000E+00 0. -1.
         21   -1    0    0  501  503 -0.00000000000E+00 -0.00000000000E+00 -0.68154836062E+03  0.68154836062E+03  0.00000000000E+00 0.  1.
          6    2    1    2  501    0  0.29170358872E+03  0.58656628603E+02 -0.20372137547E+03  0.40007060064E+03  0.17327002891E+03 0.  0.
         24    2    3    3    0    0  0.30153002909E+03  0.68022067733E+02 -0.16575121866E+03  0.35947388663E+03  0.78744196851E+02 0.  0.
         -6    2    1    2    0  502 -0.29170358872E+03 -0.58656628603E+02 -0.30191142311E+03  0.45739332202E+03  0.17183294176E+03 0.  0.
        -24    2    5    5    0    0 -0.27432254492E+03 -0.64254820001E+01 -0.23169039204E+03  0.36804413868E+03  0.80510277489E+02 0.  0.
          5    1    3    3  501    0 -0.98264403697E+01 -0.93654391303E+01 -0.37970156805E+02  0.40596714008E+02  0.47000000000E+01 0. -1.
        -13    1    4    4    0    0  0.10889887697E+03  0.49646701603E+02 -0.97214167123E+02  0.15418934682E+03  0.00000000000E+00 0.  1.
         14    1    4    4    0    0  0.19263115212E+03  0.18375366130E+02 -0.68537051541E+02  0.20528453980E+03  0.00000000000E+00 0. -1.
         -5    1    5    5    0  502 -0.17381043797E+02 -0.52231146603E+02 -0.70221031074E+02  0.89349183343E+02  0.47000000000E+01 0.  1.
         11    1    6    6    0    0 -0.86530239404E+02 -0.39601187432E+02 -0.72495532564E+02  0.11963000719E+03  0.00000000000E+00 0. -1.
        -12    1    6    6    0    0 -0.18779230552E+03  0.33175705432E+02 -0.15919485947E+03  0.24841413149E+03  0.00000000000E+00 0.  1.
</event>
<event>
12    1  0.1061634E+000  0.3173147E+03  0.7818608E-02  0.1077023E+00
         21   -1    0    0  501  502  0.00000000000E+00  0.00000000000E+00  0.25584848409E+04  0.25584848409E+04  0.00000000000E+00 0. -1.
         21   -1    0    0  502  503 -0.00000000000E+00 -0.00000000000E+00 -0.50672474739E+02  0.50672474739E+02  0.00000000000E+00 0.  1.
         -6    2    1    2    0  503 -0.20731557822E+02  0.26498288233E+03  0.18759427673E+04  0.19025903106E+04  0.17332887332E+03 0.  0.
        -24    2    3    3    0    0  0.32375225039E+02  0.17605564629E+03  0.14930910851E+04  0.15059470398E+04  0.80695430420E+02 0.  0.
          6    2    1    2  501    0  0.20731557822E+02 -0.26498288233E+03  0.63186959881E+03  0.70656700501E+03  0.17126592552E+03 0.  0.
         24    2    5    5    0    0  0.31208489206E+02 -0.24883733051E+03  0.43321804557E+03  0.50692989788E+03  0.80037862968E+02 0.  0.
          5    1    5    5  501    0 -0.10476931384E+02 -0.16145551820E+02  0.19865155324E+03  0.19963710712E+03  0.47000000000E+01 0. -1.
        -13    1    6    6    0    0  0.19571540648E+02 -0.20589676817E+03  0.28472884019E+03  0.35191907704E+03  0.00000000000E+00 0.  1.
         14    1    6    6    0    0  0.11636948558E+02 -0.42940562337E+02  0.14848920538E+03  0.15501082084E+03  0.00000000000E+00 0. -1.
         -5    1    3    3    0  503 -0.53106782862E+02  0.88927236033E+02  0.38285168219E+03  0.39664327078E+03  0.47000000000E+01 0.  1.
         13    1    4    4    0    0  0.49049844392E+02  0.65781501223E+02  0.51141729442E+03  0.51795824366E+03  0.00000000000E+00 0. -1.
        -14    1    4    4    0    0 -0.16674619353E+02  0.11027414507E+03  0.98167379068E+03  0.98798879615E+03  0.00000000000E+00 0.  1.
</event>
<event>
12    1  0.1061634E+000  0.1810674E+03  0.7818608E-02  0.1166999E+00
         21   -1    0    0  501  502  0.00000000000E+00  0.00000000000E+00  0.10470853662E+03  0.10470853662E+03  0.00000000000E+00 0. -1.
         21   -1    0    0  502  503 -0.00000000000E+00 -0.00000000000E+00 -0.32693832195E+03  0.32693832195E+03  0.00000000000E+00 0. -1.
         -6    2    1    2    0  503  0.19378845890E+02  0.51818001483E+02 -0.63938344113E+02  0.19114411217E+03  0.17142728728E+03 0.  0.
        -24    2    3    3    0    0 -0.51122819816E+02  0.53641270281E+02 -0.26016938185E+02  0.11093231626E+03  0.78346468548E+02 0.  0.
          6    2    1    2  501    0 -0.19378845890E+02 -0.51818001483E+02 -0.15829144122E+03  0.24050274639E+03  0.17240865904E+03 0.  0.
         24    2    5    5    0    0  0.39005271799E+02 -0.10810293351E+02 -0.61859760019E+02  0.12045485402E+03  0.95102409414E+02 0.  0.
          5    1    5    5  501    0 -0.58384117688E+02 -0.41007708132E+02 -0.96431681201E+02  0.12004789237E+03  0.47000000000E+01 0. -1.
        -13    1    6    6    0    0  0.94421600222E+00 -0.13051124007E+02 -0.77972608681E+02  0.79062956472E+02  0.00000000000E+00 0.  1.
         14    1    6    6    0    0  0.38061055797E+02  0.22408306561E+01  0.16112848662E+02  0.41391897545E+02  0.00000000000E+00 0. -1.
         -5    1    3    3    0  503  0.70501665706E+02 -0.18232687978E+01 -0.37921405928E+02  0.80211795915E+02  0.47000000000E+01 0.  1.
         11    1    4    4    0    0 -0.12349324787E+01 -0.18051126408E+02 -0.13767408471E+02  0.22735649514E+02  0.00000000000E+00 0. -1.
        -12    1    4    4    0    0 -0.49887887337E+02  0.71692396689E+02 -0.12249529714E+02  0.88196666741E+02  0.00000000000E+00 0.  1.
</event>
<event>
12    1  0.1061634E+000  0.2333992E+03  0.7818608E-02  0.1124272E+00
         21   -1    0    0  503  502  0.00000000000E+00  0.00000000000E+00  0.76552525124E+02  0.76552525124E+02  0.00000000000E+00 0. -1.
         21   -1    0    0  501  503 -0.00000000000E+00 -0.00000000000E+00 -0.71208328915E+03  0.71208328915E+03  0.00000000000E+00 0. -1.
          6    2    1    2  501    0  0.15121165070E+03  0.39415156489E+02 -0.30706346823E+03  0.38568921991E+03  0.17334844380E+03 0.  0.
         24    2    3    3    0    0  0.15016663400E+03  0.57572979695E+02 -0.17019084857E+03  0.24753350119E+03  0.80269815716E+02 0.  0.
         -6    2    1    2    0  502 -0.15121165070E+03 -0.39415156489E+02 -0.32846729580E+03  0.40294659436E+03  0.17336861202E+03 0.  0.
        -24    2    5    5    0    0 -0.35192592789E+02 -0.68789304798E+02 -0.18866612593E+03  0.21885498814E+03  0.79574567030E+02 0.  0.
          5    1    3    3  501    0  0.10450166942E+01 -0.18157823206E+02 -0.13687261965E+03  0.13815571872E+03  0.47000000000E+01 0. -1.
        -11    1    4    4    0    0  0.12136175368E+03  0.44443542978E+02 -0.17278165147E+03  0.21577164516E+03  0.00000000000E+00 0.  1.
         12    1    4    4    0    0  0.28804880318E+02  0.13129436718E+02  0.25908029023E+01  0.31761856028E+02  0.00000000000E+00 0. -1.
         -5    1    5    5    0  502 -0.11601905791E+03  0.29374148309E+02 -0.13980116987E+03  0.18409160623E+03  0.47000000000E+01 0.  1.
         11    1    6    6    0    0  0.13813988007E+02 -0.18833566512E+01 -0.13579993647E+01  0.14007764247E+02  0.00000000000E+00 0. -1.
        -12    1    6    6    0    0 -0.49006580796E+02 -0.66905948147E+02 -0.18730812656E+03  0.20484722389E+03  0.00000000000E+00 0.  1.
</event>
<event>
12    1  0.1061634E+000  0.2607334E+03  0.7818608E-02  0.1108040E+00
         21   -1    0    0  501  502  0.00000000000E+00  0.00000000000E+00  0.32495729888E+03  0.32495729888E+03  0.00000000000E+00 0. -1.
         21   -1    0    0  502  503 -0.00000000000E+00 -0.00000000000E+00 -0.20366180692E+03  0.20366180692E+03  0.00000000000E+00 0. -1.
         -6    2    1    2    0  503 -0.35100434685E+02 -0.18366764273E+03  0.39498562195E+02  0.26370824279E+03  0.18170321240E+03 0.  0.
        -24    2    3    3    0    0 -0.85492507789E+02 -0.12777683954E+03 -0.86938961493E+01  0.17422223296E+03  0.81497932592E+02 0.  0.
          6    2    1    2  501    0  0.35100434685E+02  0.18366764273E+03  0.81796929768E+02  0.26491086301E+03  0.16888216045E+03 0.  0.
         24    2    5    5    0    0  0.79388077002E+02  0.13995586416E+03  0.27116301207E+02  0.18193992841E+03  0.80478152786E+02 0.  0.
          5    1    5    5  501    0 -0.44287642318E+02  0.43711778576E+02  0.54680628561E+02  0.82970934599E+02  0.47000000000E+01 0. -1.
        -11    1    6    6    0    0 -0.10523186549E+02 -0.22891822133E+01  0.60376665368E+01  0.12346304206E+02  0.00000000000E+00 0.  1.
         12    1    6    6    0    0  0.89911263551E+02  0.14224504637E+03  0.21078634670E+02  0.16959362420E+03  0.00000000000E+00 0. -1.
         -5    1    3    3    0  503  0.50392073105E+02 -0.55890803189E+02  0.48192458345E+02  0.89486009824E+02  0.47000000000E+01 0.  1.
         11    1    4    4    0    0 -0.19212063956E+02 -0.38266023952E+02  0.34270291985E+02  0.54843822836E+02  0.00000000000E+00 0. -1.
        -12    1    4    4    0    0 -0.66280443833E+02 -0.89510815592E+02 -0.42964188134E+02  0.11937841013E+03  0.00000000000E+00 0.  1.
</event>
<event>
12    1  0.1061634E+000  0.2069624E+03  0.7818608E-02  0.1145096E+00
         21   -1    0    0  503  502  0.00000000000E+00  0.00000000000E+00  0.74044875192E+02  0.74044875192E+02  0.00000000000E+00 0. -1.
         21   -1    0    0  501  503 -0.00000000000E+00 -0.00000000000E+00 -0.57156222658E+03  0.57156222658E+03  0.00000000000E+00 0. -1.
          6    2    1    2  501    0 -0.18793152639E+02  0.10395193546E+03 -0.28380109363E+03  0.34810405024E+03  0.17168046358E+03 0.  0.
         24    2    3    3    0    0 -0.26645511822E+02 -0.56017248140E+01 -0.16720220624E+03  0.18785095490E+03  0.81179066672E+02 0.  0.
         -6    2    1    2    0  502  0.18793152639E+02 -0.10395193546E+03 -0.21371625775E+03  0.29750305153E+03  0.17797258038E+03 0.  0.
        -24    2    5    5    0    0  0.18981977685E+01  0.15306391232E+02 -0.11670505564E+03  0.14277344440E+03  0.80785503944E+02 0.  0.
          5    1    3    3  501    0  0.78523591823E+01  0.10955366027E+03 -0.11659888739E+03  0.16025309534E+03  0.47000000000E+01 0. -1.
        -13    1    4    4    0    0  0.21973638418E+02 -0.19272257654E+02 -0.97420333742E+02  0.10171028526E+03  0.00000000000E+00 0.  1.
         14    1    4    4    0    0 -0.48619150240E+02  0.13670532840E+02 -0.69781872498E+02  0.86140669648E+02  0.00000000000E+00 0. -1.
         -5    1    5    5    0  502  0.16894954871E+02 -0.11925832669E+03 -0.97011202116E+02  0.15472960713E+03  0.47000000000E+01 0.  1.
         11    1    6    6    0    0  0.10340100192E+02  0.14150745191E+02  0.69290788185E+01  0.18846044538E+02  0.00000000000E+00 0. -1.
        -12    1    6    6    0    0 -0.84419024232E+01  0.11556460406E+01 -0.12363413445E+03  0.12392739986E+03  0.00000000000E+00 0.  1.
</event>
<event>
12    1  0.1061634E+000  0.3612494E+03  0.7818608E-02  0.1058104E+00
         21   -1    0    0  501  502  0.00000000000E+00  0.00000000000E+00  0.18415254657E+03  0.18415254657E+03  0.00000000000E+00 0. -1.
         21   -1    0    0  502  503 -0.00000000000E+00 -0.00000000000E+00 -0.76343490086E+03  0.76343490086E+03  0.00000000000E+00 0. -1.
         -6    2    1    2    0  503 -0.48274827969E+02  0.31391830703E+03 -0.16236511763E+03  0.39593438340E+03  0.17183259886E+03 0.  0.
        -24    2    3    3    0    0  0.33650949522E+02  0.21531634140E+03 -0.10694253911E+03  0.25619200310E+03  0.81878706030E+02 0.  0.
          6    2    1    2  501    0  0.48274827969E+02 -0.31391830703E+03 -0.41691723665E+03  0.55165306403E+03  0.17212192868E+03 0.  0.
         24    2    5    5    0    0  0.90761066024E+02 -0.17608714504E+03 -0.21515625991E+03  0.30359643466E+03  0.81451367118E+02 0.  0.
          5    1    5    5  501    0 -0.42486238055E+02 -0.13783116199E+03 -0.20176097674E+03  0.24805662937E+03  0.47000000000E+01 0. -1.
        -13    1    6    6    0    0  0.85572013732E+02 -0.18473517433E+03 -0.20904579518E+03  0.29180438423E+03  0.00000000000E+00 0.  1.
         14    1    6    6    0    0  0.51890522914E+01  0.86480292898E+01 -0.61104647263E+01  0.11792050435E+02  0.00000000000E+00 0. -1.
         -5    1    3    3    0  503 -0.81925777490E+02  0.98601965628E+02 -0.55422578517E+02  0.13974238030E+03  0.47000000000E+01 0.  1.
         11    1    4    4    0    0  0.25008344076E+02  0.53120777936E+02 -0.66690599811E+02  0.88853083375E+02  0.00000000000E+00 0. -1.
        -12    1    4    4    0    0  0.86426054454E+01  0.16219556347E+03 -0.40251939303E+02  0.16733891972E+03  0.00000000000E+00 0.  1.
</event>
<event>
12    1  0.1061634E+000  0.2234200E+03  0.7818608E-02  0.1131433E+00
         21   -1    0    0  503  502  0.00000000000E+00  0.00000000000E+00  0.56027634064E+02  0.56027634064E+02  0.00000000000E+00 0.  1.
         21   -1    0    0  501  503 -0.00000000000E+00 -0.00000000000E+00 -0.91922028390E+03  0.91922028390E+03  0.00000000000E+00 0.  1.
          6    2    1    2  501    0  0.14001876213E+03  0.21906840260E+02 -0.34400133103E+03  0.41018706152E+03  0.17271753324E+03 0.  0.
         24    2    3    3    0    0 -0.36038178492E+01 -0.15963434445E+00 -0.10851936876E+03  0.13344129491E+03  0.77570050953E+02 0.  0.
         -6    2    1    2    0  502 -0.14001876213E+03 -0.21906840260E+02 -0.51919131881E+03  0.56506085645E+03  0.17218879920E+03 0.  0.
        -24    2    5    5    0    0 -0.51892843879E+02 -0.74333194205E+02 -0.36318509207E+03  0.37831307779E+03  0.54763881488E+02 0.  0.
          5    1    3    3  501    0  0.14362257997E+03  0.22066474604E+02 -0.23548196227E+03  0.27674576661E+03  0.47000000000E+01 0. -1.
        -11    1    4    4    0    0  0.15090520743E+02  0.22984398380E+02 -0.98160134002E+02  0.10193830631E+03  0.00000000000E+00 0.  1.
         12    1    4    4    0    0 -0.18694338592E+02 -0.23144032725E+02 -0.10359234757E+02  0.31502988602E+02  0.00000000000E+00 0. -1.
         -5    1    5    5    0  502 -0.88125918246E+02  0.52426353946E+02 -0.15600622674E+03  0.18674777866E+03  0.47000000000E+01 0.  1.
         13    1    6    6    0    0 -0.45645894763E+02 -0.20288518879E+02 -0.20634525065E+03  0.21230528532E+03  0.00000000000E+00 0. -1.
        -14    1    6    6    0    0 -0.62469491153E+01 -0.54044675326E+02 -0.15683984142E+03  0.16600779247E+03  0.00000000000E+00 0.  1.
</event>
<event>
12    1  0.1061634E+000  0.3776781E+03  0.7818608E-02  0.1051857E+00
         21   -1    0    0  503  502  0.00000000000E+00  0.00000000000E+00  0.12254711179E+03  0.12254711179E+03  0.00000000000E+00 0.  1.
         21   -1    0    0  501  503 -0.00000000000E+00 -0.00000000000E+00 -0.11657286960E+04  0.11657286960E+04  0.00000000000E+00 0.  1.
          6    2    1    2  501    0  0.13675781787E+03  0.30696310125E+03 -0.48529980340E+03  0.61494441120E+03  0.17237077308E+03 0.  0.
         24    2    3    3    0    0  0.87886635507E+02  0.21914697345E+03 -0.22570427247E+03  0.33653465123E+03  0.81016641474E+02 0.  0.
         -6    2    1    2    0  502 -0.13675781787E+03 -0.30696310125E+03 -0.55788178079E+03  0.67333139657E+03  0.17092115723E+03 0.  0.
        -24    2    5    5    0    0 -0.11930613389E+03 -0.30761554365E+03 -0.56026747221E+03  0.65508945373E+03  0.79882887362E+02 0.  0.
          5    1    3    3  501    0  0.48871182368E+02  0.87816127796E+02 -0.25959553093E+03  0.27840975997E+03  0.47000000000E+01 0. -1.
        -13    1    4    4    0    0  0.22139694705E+02  0.15547565696E+02 -0.60336683549E+02  0.66124188179E+02  0.00000000000E+00 0.  1.
         14    1    4    4    0    0  0.65746940802E+02  0.20359940776E+03 -0.16536758892E+03  0.27041046306E+03  0.00000000000E+00 0. -1.
         -5    1    5    5    0  502 -0.17451683983E+02  0.65244240452E+00  0.23856914182E+01  0.18241942837E+02  0.47000000000E+01 0.  1.
         11    1    6    6    0    0 -0.50041806158E+02 -0.12364365063E+03 -0.15381284910E+03  0.20359353441E+03  0.00000000000E+00 0. -1.
        -12    1    6    6    0    0 -0.69264327734E+02 -0.18397189303E+03 -0.40645462311E+03  0.45149591932E+03  0.00000000000E+00 0.  1.
</event>
<event>
12    1  0.1061634E+000  0.1748951E+03  0.7818608E-02  0.1173162E+00
         21   -1    0    0  501  502  0.00000000000E+00  0.00000000000E+00  0.30390977051E+03  0.30390977051E+03  0.00000000000E+00 0. -1.
         21   -1    0    0  502  503 -0.00000000000E+00 -0.00000000000E+00 -0.12978642447E+03  0.12978642447E+03  0.00000000000E+00 0. -1.
         -6    2    1    2    0  503  0.21671137007E+02  0.10819023594E+02 -0.16731896778E+02  0.17569363514E+03  0.17320972146E+03 0.  0.
        -24    2    3    3    0    0 -0.22117263686E+02 -0.27743982430E+02 -0.35882976443E+01  0.11569885481E+03  0.11006564955E+03 0.  0.
          6    2    1    2  501    0 -0.21671137007E+02 -0.10819023594E+02  0.19085524282E+03  0.25800255983E+03  0.17190959169E+03 0.  0.
         24    2    5    5    0    0  0.11758999592E+02  0.51421035817E+02  0.97260175418E+02  0.14064189491E+03  0.86822830439E+02 0.  0.
          5    1    5    5  501    0 -0.33430136599E+02 -0.62240059411E+02  0.93595067399E+02  0.11736066492E+03  0.47000000000E+01 0. -1.
        -11    1    6    6    0    0  0.32696754615E+02 -0.45723697764E+01  0.64537490274E+02  0.72491875259E+02  0.00000000000E+00 0.  1.
         12    1    6    6    0    0 -0.20937755023E+02  0.55993405593E+02  0.32722685145E+02  0.68150019651E+02  0.00000000000E+00 0. -1.
         -5    1    3    3    0  503  0.43788400693E+02  0.38563006024E+02 -0.13143599133E+02  0.59994780332E+02  0.47000000000E+01 0.  1.
         11    1    4    4    0    0  0.27825352781E+02 -0.26902601034E+02  0.35309135231E+02  0.52390220753E+02  0.00000000000E+00 0. -1.
        -12    1    4    4    0    0 -0.49942616467E+02 -0.84138139665E+00 -0.38897432876E+02  0.63308634060E+02  0.00000000000E+00 0.  1.
</event>
<event>
12    1  0.1061634E+000  0.3558855E+03  0.7818608E-02  0.1060235E+00
         21   -1    0    0  501  502  0.00000000000E+00  0.00000000000E+00  0.24954505278E+03  0.24954505278E+03  0.00000000000E+00 0. -1.
         21   -1    0    0  502  503 -0.00000000000E+00 -0.00000000000E+00 -0.54870558937E+03  0.54870558937E+03  0.00000000000E+00 0. -1.
         -6    2    1    2    0  503 -0.25585075346E+03 -0.17862268095E+03 -0.25909986075E+03  0.44021268726E+03  0.17113971481E+03 0.  0.
        -24    2    3    3    0    0 -0.17823960177E+03 -0.64804172697E+02 -0.98311623688E+02  0.22842720412E+03  0.80900406634E+02 0.  0.
          6    2    1    2  501    0  0.25585075346E+03  0.17862268095E+03 -0.40060675836E+02  0.35803795490E+03  0.17094048438E+03 0.  0.
         24    2    5    5    0    0  0.10555021284E+03  0.13363005391E+02 -0.17410991556E+02  0.13345810033E+03  0.78667048846E+02 0.  0.
          5    1    5    5  501    0  0.15030054062E+03  0.16525967556E+03 -0.22649684280E+02  0.22457985456E+03  0.47000000000E+01 0. -1.
        -13    1    6    6    0    0  0.10127143281E+03  0.17712627894E+02  0.11921601697E+02  0.10349765639E+03  0.00000000000E+00 0.  1.
         14    1    6    6    0    0  0.42787800265E+01 -0.43496225031E+01 -0.29332593253E+02  0.29960443945E+02  0.00000000000E+00 0. -1.
         -5    1    3    3    0  503 -0.77611151691E+02 -0.11381850825E+03 -0.16078823707E+03  0.21178548313E+03  0.47000000000E+01 0.  1.
         11    1    4    4    0    0 -0.35749811014E+02  0.15910170480E+02 -0.37146309330E+01  0.39306246262E+02  0.00000000000E+00 0. -1.
        -12    1    4    4    0    0 -0.14248979076E+03 -0.80714343177E+02 -0.94596992755E+02  0.18912095786E+03  0.00000000000E+00 0.  1.
</event>
<event>
12    1  0.1061634E+000  0.2501247E+03  0.7818608E-02  0.1115438E+00
         21   -1    0    0  501  502  0.00000000000E+00  0.00000000000E+00  0.32248939635E+03  0.32248939635E+03  0.00000000000E+00 0. -1.
         21   -1    0    0  502  503 -0.00000000000E+00 -0.00000000000E+00 -0.18781588255E+03  0.18781588255E+03  0.00000000000E+00 0. -1.
         -6    2    1    2    0  503  0.20206600837E+02  0.16252450270E+03  0.10373464569E+03  0.25827435032E+03  0.17065240291E+03 0.  0.
        -24    2    3    3    0    0  0.51385744717E+02  0.69815390675E+02  0.10900780556E+03  0.16020797137E+03  0.79178335928E+02 0.  0.
          6    2    1    2  501    0 -0.20206600837E+02 -0.16252450270E+03  0.30938868111E+02  0.25203092858E+03  0.18904987359E+03 0.  0.
         24    2    5    5    0    0 -0.70254168012E+02 -0.10293026900E+03 -0.31585615083E+02  0.15209278436E+03  0.81266694137E+02 0.  0.
          5    1    5    5  501    0  0.50047567175E+02 -0.59594233702E+02  0.62524483194E+02  0.99938144216E+02  0.47000000000E+01 0. -1.
        -11    1    6    6    0    0 -0.21868119370E+02 -0.85938535331E+02  0.54350530110E+01  0.88843605853E+02  0.00000000000E+00 0.  1.
         12    1    6    6    0    0 -0.48386048642E+02 -0.16991733670E+02 -0.37020668094E+02  0.63249178512E+02  0.00000000000E+00 0. -1.
         -5    1    3    3    0  503 -0.31179143879E+02  0.92709112028E+02 -0.52731598715E+01  0.98066378953E+02  0.47000000000E+01 0.  1.
         13    1    4    4    0    0  0.13841543331E+02 -0.17524008639E+02  0.21409710127E+02  0.30936303726E+02  0.00000000000E+00 0. -1.
        -14    1    4    4    0    0  0.37544201386E+02  0.87339399314E+02  0.87598095438E+02  0.12927166764E+03  0.00000000000E+00 0.  1.
</event>
<event>
12    1  0.1061634E+000  0.1882703E+03  0.7818608E-02  0.1160333E+00
         21   -1    0    0  501  502  0.00000000000E+00  0.00000000000E+00  0.88363398100E+02  0.88363398100E+02  0.00000000000E+00 0.  1.
         21   -1    0    0  502  503 -0.00000000000E+00 -0.00000000000E+00 -0.39840739249E+03  0.39840739249E+03  0.00000000000E+00 0.  1.
         -6    2    1    2    0  503  0.37348733828E+02 -0.61090750263E+02 -0.15888922176E+03  0.24635645836E+03  0.17412269266E+03 0.  0.
        -24    2    3    3    0    0  0.86151865250E+02 -0.29890498622E+02 -0.69670866220E+02  0.13988014031E+03  0.79980236688E+02 0.  0.
          6    2    1    2  501    0 -0.37348733828E+02  0.61090750263E+02 -0.15115477263E+03  0.24041433223E+03  0.17269707052E+03 0.  0.
         24    2    5    5    0    0 -0.37939848837E+02  0.26316762524E+02 -0.17499846238E+03  0.19798567233E+03  0.80261201647E+02 0.  0.
          5    1    5    5  501    0  0.59111500901E+00  0.34773987738E+02  0.23843689756E+02  0.42428659905E+02  0.47000000000E+01 0. -1.
        -13    1    6    6    0    0 -0.11056639367E+02 -0.26997831792E+02 -0.33605533496E+02  0.44502405295E+02  0.00000000000E+00 0.  1.
         14    1    6    6    0    0 -0.26883209470E+02  0.53314594316E+02 -0.14139292889E+03  0.15348326703E+03  0.00000000000E+00 0. -1.
         -5    1    3    3    0  503 -0.48803131421E+02 -0.31200251641E+02 -0.89218355545E+02  0.10647631805E+03  0.47000000000E+01 0.  1.
         11    1    4    4    0    0  0.59146874218E+02 -0.84004919559E+01 -0.83525448510E+02  0.10269090293E+03  0.00000000000E+00 0. -1.
        -12    1    4    4    0    0  0.27004991032E+02 -0.21490006666E+02  0.13854582290E+02  0.37189237389E+02  0.00000000000E+00 0.  1.
</event>
<event>
12    1  0.1061634E+000  0.3339139E+03  0.7818608E-02  0.1069457E+00
         21   -1    0    0  501  502  0.00000000000E+00  0.00000000000E+00  0.57950091846E+03  0.57950091846E+03  0.00000000000E+00 0. -1.
         21   -1    0    0  502  503 -0.00000000000E+00 -0.00000000000E+00 -0.19219855997E+03  0.19219855997E+03  0.00000000000E+00 0. -1.
         -6    2    1    2    0  503  0.25377581564E+03  0.13227263076E+03  0.19471225135E+03  0.38622644804E+03  0.17134700140E+03 0.  0.
        -24    2    3    3    0    0  0.22079075298E+03  0.16303028658E+03  0.18298643783E+03  0.33939021790E+03  0.79838916801E+02 0.  0.
          6    2    1    2  501    0 -0.25377581564E+03 -0.13227263076E+03  0.19259010713E+03  0.38547303039E+03  0.17204736076E+03 0.  0.
         24    2    5    5    0    0 -0.17043726171E+03 -0.13990716458E+03  0.82601291107E+02  0.24718626194E+03  0.75201063293E+02 0.  0.
          5    1    5    5  501    0 -0.83338553930E+02  0.76345338245E+01  0.10998881603E+03  0.13828676845E+03  0.47000000000E+01 0. -1.
        -13    1    6    6    0    0 -0.13993976726E+03 -0.11604245893E+03  0.96776734498E+02  0.20594836021E+03  0.00000000000E+00 0.  1.
         14    1    6    6    0    0 -0.30497494446E+02 -0.23864705653E+02 -0.14175443392E+02  0.41237901726E+02  0.00000000000E+00 0. -1.
         -5    1    3    3    0  503  0.32985062660E+02 -0.30757655827E+02  0.11725813523E+02  0.46836230137E+02  0.47000000000E+01 0.  1.
         13    1    4    4    0    0  0.25106179093E+02  0.22474308185E+02 -0.46456454696E+01  0.34014655354E+02  0.00000000000E+00 0. -1.
        -14    1    4    4    0    0  0.19568457388E+03  0.14055597840E+03  0.18763208330E+03  0.30537556255E+03  0.00000000000E+00 0.  1.
</event>
<event>
12    1  0.1061634E+000  0.3918540E+03  0.7818608E-02  0.1046642E+00
         21   -1    0    0  503  502  0.00000000000E+00  0.00000000000E+00  0.63115061324E+02  0.63115061324E+02  0.00000000000E+00 0. -1.
         21   -1    0    0  501  503 -0.00000000000E+00 -0.00000000000E+00 -0.32889859593E+04  0.32889859593E+04  0.00000000000E+00 0.  1.
          6    2    1    2  501    0  0.34900182505E+03 -0.46396156319E+02 -0.75756104493E+03  0.85288052620E+03  0.17190572408E+03 0.  0.
         24    2    3    3    0    0  0.33439994204E+03 -0.91739827575E+00 -0.66263168729E+03  0.74650757211E+03  0.79803755301E+02 0.  0.
         -6    2    1    2    0  502 -0.34900182505E+03  0.46396156319E+02 -0.24683098531E+04  0.24992204945E+04  0.17203102016E+03 0.  0.
        -24    2    5    5    0    0 -0.35647681379E+03  0.63227583331E+02 -0.23938917172E+04  0.24224134548E+04  0.79346999219E+02 0.  0.
          5    1    3    3  501    0  0.14601883010E+02 -0.45478758044E+02 -0.94929357634E+02  0.10637295409E+03  0.47000000000E+01 0. -1.
        -11    1    4    4    0    0  0.22829990844E+03  0.27483161064E+02 -0.49896909895E+03  0.54940543685E+03  0.00000000000E+00 0.  1.
         12    1    4    4    0    0  0.10610003360E+03 -0.28400559340E+02 -0.16366258834E+03  0.19710213525E+03  0.00000000000E+00 0. -1.
         -5    1    5    5    0  502  0.74749887463E+01 -0.16831427011E+02 -0.74418135890E+02  0.76807039660E+02  0.47000000000E+01 0.  1.
         13    1    6    6    0    0 -0.76758890285E+02 -0.17200656740E+02 -0.58264481988E+03  0.58793092789E+03  0.00000000000E+00 0. -1.
        -14    1    6    6    0    0 -0.27971792351E+03  0.80428240071E+02 -0.18112468973E+04  0.18344825269E+04  0.00000000000E+00 0.  1.
</event>
<event>
12    1  0.1061634E+000  0.5758926E+03  0.7818608E-02  0.9956824E-01
         21   -1    0    0  501  502  0.00000000000E+00  0.00000000000E+00  0.34894793142E+03  0.34894793142E+03  0.00000000000E+00 0.  1.
         21   -1    0    0  502  503 -0.00000000000E+00 -0.00000000000E+00 -0.95540645511E+03  0.95540645511E+03  0.00000000000E+00 0.  1.
         -6    2    1    2    0  503 -0.25761145153E+03 -0.48519035452E+03 -0.25481581954E+03  0.62974868115E+03  0.17285531362E+03 0.  0.
        -24    2    3    3    0    0 -0.19074824454E+03 -0.32847304530E+03 -0.24743994204E+03  0.45913948730E+03  0.72822452544E+02 0.  0.
          6    2    1    2  501    0  0.25761145153E+03  0.48519035452E+03 -0.35164270415E+03  0.67460570539E+03  0.17224089608E+03 0.  0.
         24    2    5    5    0    0  0.80079967369E+02  0.18945136509E+03 -0.78095351437E+02  0.23434530300E+03  0.80710694532E+02 0.  0.
          5    1    5    5  501    0  0.17753148416E+03  0.29573898943E+03 -0.27354735272E+03  0.44026040239E+03  0.47000000000E+01 0. -1.
        -11    1    6    6    0    0  0.28650791260E+02  0.23610367411E+02 -0.43696188502E+02  0.57338243597E+02  0.00000000000E+00 0.  1.
         12    1    6    6    0    0  0.51429176109E+02  0.16584099768E+03 -0.34399162934E+02  0.17700705940E+03  0.00000000000E+00 0. -1.
         -5    1    3    3    0  503 -0.66863206986E+02 -0.15671730922E+03 -0.73758774962E+01  0.17060919385E+03  0.47000000000E+01 0.  1.
         11    1    4    4    0    0 -0.10221551636E+03 -0.10570236966E+03 -0.94084464607E+02  0.17456485677E+03  0.00000000000E+00 0. -1.
        -12    1    4    4    0    0 -0.88532728177E+02 -0.22277067563E+03 -0.15335547743E+03  0.28457463053E+03  0.00000000000E+00 0.  1.
</event>
<event>
12    1  0.1061634E+000  0.2489315E+03  0.7818608E-02  0.1114145E+00
         21   -1    0    0  501  502  0.00000000000E+00  0.00000000000E+00  0.59554196271E+03  0.59554196271E+03  0.00000000000E+00 0. -1.
         21   -1    0    0  502  503 -0.00000000000E+00 -0.00000000000E+00 -0.16256999621E+03  0.16256999621E+03  0.00000000000E+00 0. -1.
         -6    2    1    2    0  503  0.32573296225E+02  0.17561698634E+03  0.44445313496E+03  0.50891584829E+03  0.17191394924E+03 0.  0.
        -24    2    3    3    0    0  0.82065115263E+02  0.11305345429E+03  0.23655176389E+03  0.28618572956E+03  0.80185835005E+02 0.  0.
          6    2    1    2  501    0 -0.32573296225E+02 -0.17561698634E+03 -0.11481168463E+02  0.24919611063E+03  0.17339128815E+03 0.  0.
         24    2    5    5    0    0 -0.11767737939E+02 -0.11178686907E+03 -0.74541139759E+02  0.15696918883E+03  0.80300441912E+02 0.  0.
          5    1    5    5  501    0 -0.20805558286E+02 -0.63830117264E+02  0.63059971296E+02  0.92226921803E+02  0.47000000000E+01 0. -1.
        -11    1    6    6    0    0 -0.37967483041E+02 -0.10213867151E+03 -0.50393992013E+02  0.12005578877E+03  0.00000000000E+00 0.  1.
         12    1    6    6    0    0  0.26199745102E+02 -0.96481975651E+01 -0.24147147746E+02  0.36913400059E+02  0.00000000000E+00 0. -1.
         -5    1    3    3    0  503 -0.49491819039E+02  0.62563532046E+02  0.20790137107E+03  0.22273011873E+03  0.47000000000E+01 0.  1.
         11    1    4    4    0    0  0.56339820374E+02  0.34189413424E+02  0.52340796960E+02  0.84158483686E+02  0.00000000000E+00 0. -1.
        -12    1    4    4    0    0  0.25725294890E+02  0.78864040865E+02  0.18421096693E+03  0.20202724587E+03  0.00000000000E+00 0.  1.
</event>
<event>
12    1  0.1061634E+000  0.1730053E+03  0.7818608E-02  0.1175097E+00
         21   -1    0    0  501  502  0.00000000000E+00  0.00000000000E+00  0.31613320734E+03  0.31613320734E+03  0.00000000000E+00 0. -1.
         21   -1    0    0  502  503 -0.00000000000E+00 -0.00000000000E+00 -0.10185142669E+03  0.10185142669E+03  0.00000000000E+00 0. -1.
         -6    2    1    2    0  503  0.12896122179E+02 -0.28047674080E+01  0.48488998377E+02  0.17836390795E+03  0.17113831835E+03 0.  0.
        -24    2    3    3    0    0  0.64772837457E+02  0.62986389495E+01 -0.52934687184E+01  0.10294037474E+03  0.79583331268E+02 0.  0.
          6    2    1    2  501    0 -0.12896122179E+02  0.28047674080E+01  0.16579278226E+03  0.23962072608E+03  0.17250121457E+03 0.  0.
         24    2    5    5    0    0 -0.40798738043E+02 -0.45596766669E+02  0.54662749980E+02  0.11514888770E+03  0.80793860823E+02 0.  0.
          5    1    5    5  501    0  0.27902615864E+02  0.48401534077E+02  0.11113003229E+03  0.12447183838E+03  0.47000000000E+01 0. -1.
        -11    1    6    6    0    0  0.51370043450E+01 -0.48051189814E+02  0.48965326118E+02  0.68796139558E+02  0.00000000000E+00 0.  1.
         12    1    6    6    0    0 -0.45935742388E+02  0.24544231453E+01  0.56974238613E+01  0.46352748142E+02  0.00000000000E+00 0. -1.
         -5    1    3    3    0  503 -0.51876715278E+02 -0.91034063575E+01  0.53782467096E+02  0.75423533213E+02  0.47000000000E+01 0.  1.
         13    1    4    4    0    0 -0.17411862500E+01 -0.26280343485E+02  0.83502720021E+01  0.27629969702E+02  0.00000000000E+00 0. -1.
        -14    1    4    4    0    0  0.66514023707E+02  0.32578982434E+02 -0.13643740721E+02  0.75310405038E+02  0.00000000000E+00 0.  1.
</event>
<event>
12    1  0.1061634E+000  0.1782633E+03  0.7818608E-02  0.1172644E+00
         21   -1    0    0  503  502  0.00000000000E+00  0.00000000000E+00  0.59216546087E+02  0.59216546087E+02  0.00000000000E+00 0.  1.
         21   -1    0    0  501  503 -0.00000000000E+00 -0.00000000000E+00 -0.50111713122E+03  0.50111713122E+03  0.00000000000E+00 0.  1.
          6    2    1    2  501    0 -0.21748736920E+02 -0.15057235037E+02 -0.20007848895E+03  0.25990778534E+03  0.16377095975E+03 0.  0.
         24    2    3    3    0    0 -0.28758813833E+02  0.31813792933E+02 -0.19171413407E+03  0.21155401741E+03  0.78495899788E+02 0.  0.
         -6    2    1    2    0  502  0.21748736920E+02  0.15057235037E+02 -0.24182209618E+03  0.30042589196E+03  0.17628971177E+03 0.  0.
        -24    2    5    5    0    0 -0.42501444850E+02  0.24003951486E+02 -0.66728350797E+02  0.11364248996E+03  0.77970380418E+02 0.  0.
          5    1    3    3  501    0  0.70100769133E+01 -0.46871027970E+02 -0.83643548823E+01  0.48353767939E+02  0.47000000000E+01 0. -1.
        -13    1    4    4    0    0  0.88915880630E+01 -0.39537575840E+01 -0.13224209568E+03  0.13259963955E+03  0.00000000000E+00 0.  1.
         14    1    4    4    0    0 -0.37650401896E+02  0.35767550517E+02 -0.59472038389E+02  0.78954377859E+02  0.00000000000E+00 0. -1.
         -5    1    5    5    0  502  0.64250181770E+02 -0.89467164488E+01 -0.17509374538E+03  0.18678340201E+03  0.47000000000E+01 0.  1.
         11    1    6    6    0    0 -0.43564111585E+02  0.19572518619E+01 -0.77618592727E+02  0.89029818543E+02  0.00000000000E+00 0. -1.
        -12    1    6    6    0    0  0.10626667352E+01  0.22046699624E+02  0.10890241929E+02  0.24612671415E+02  0.00000000000E+00 0.  1.
</event>
<event>
12    1  0.1061634E+000  0.1780035E+03  0.7818608E-02  0.1169785E+00
         21   -1    0    0  503  502  0.00000000000E+00  0.00000000000E+00  0.12010150099E+03  0.12010150099E+03  0.00000000000E+00 0. -1.
         21   -1    0    0  501  503 -0.00000000000E+00 -0.00000000000E+00 -0.31657639946E+03  0.31657639946E+03  0.00000000000E+00 0. -1.
          6    2    1    2  501    0 -0.44001551033E+02 -0.14950127035E+02 -0.18758002024E+03  0.25859524702E+03  0.17183013414E+03 0.  0.
         24    2    3    3    0    0 -0.32912434655E+02 -0.56665929016E+02 -0.18904608832E+03  0.21515084586E+03  0.79102510073E+02 0.  0.
         -6    2    1    2    0  502  0.44001551033E+02  0.14950127035E+02 -0.88948782233E+01  0.17808265342E+03  0.17168188547E+03 0.  0.
        -24    2    5    5    0    0  0.63503296292E+02 -0.46816524426E+02 -0.34909467918E+01  0.11291571567E+03  0.80705120885E+02 0.  0.
          5    1    3    3  501    0 -0.11089116377E+02  0.41715801982E+02  0.14660680738E+01  0.43444401165E+02  0.47000000000E+01 0. -1.
        -13    1    4    4    0    0 -0.41842386891E+02 -0.65793987442E+01 -0.42407626435E+02  0.59937305649E+02  0.00000000000E+00 0.  1.
         14    1    4    4    0    0  0.89299522359E+01 -0.50086530272E+02 -0.14663846188E+03  0.15521354021E+03  0.00000000000E+00 0. -1.
         -5    1    5    5    0  502 -0.19501745259E+02  0.61766651460E+02 -0.54039314315E+01  0.65166937750E+02  0.47000000000E+01 0.  1.
         11    1    6    6    0    0 -0.27709832425E+01 -0.68180490684E+01  0.28293721375E+02  0.29235232349E+02  0.00000000000E+00 0. -1.
        -12    1    6    6    0    0  0.66274279534E+02 -0.39998475358E+02 -0.31784668167E+02  0.83680483323E+02  0.00000000000E+00 0.  1.
</event>
<event>
12    1  0.1061634E+000  0.1991883E+03  0.7818608E-02  0.1150641E+00
         21   -1    0    0  503  502  0.00000000000E+00  0.00000000000E+00  0.18403824681E+03  0.18403824681E+03  0.00000000000E+00 0.  1.
         21   -1    0    0  501  503 -0.00000000000E+00 -0.00000000000E+00 -0.33940583037E+03  0.33940583037E+03  0.00000000000E+00 0.  1.
          6    2    1    2  501    0 -0.13300068677E+02  0.98012151717E+02 -0.23658663167E+03  0.30927204800E+03  0.17289503080E+03 0.  0.
         24    2    3    3    0    0 -0.61993814908E+02  0.41422615851E+02 -0.19766267072E+03  0.22494754843E+03  0.77277434968E+02 0.  0.
         -6    2    1    2    0  502  0.13300068677E+02 -0.98012151717E+02  0.81219048107E+02  0.21417202918E+03  0.17172609178E+03 0.  0.
        -24    2    5    5    0    0 -0.31775303491E+02 -0.10735686055E+03  0.94499211696E+02  0.16603092924E+03  0.78108917758E+02 0.  0.
          5    1    3    3  501    0  0.48693746231E+02  0.56589535866E+02 -0.38923960948E+02  0.84324499568E+02  0.47000000000E+01 0. -1.
        -11    1    4    4    0    0 -0.75716537192E+00 -0.12913803798E+02 -0.83319761310E+02  0.84317982974E+02  0.00000000000E+00 0.  1.
         12    1    4    4    0    0 -0.61236649536E+02  0.54336419649E+02 -0.11434290941E+03  0.14062956545E+03  0.00000000000E+00 0. -1.
         -5    1    5    5    0  502  0.45075372168E+02  0.93447088296E+01 -0.13280163589E+02  0.48141099947E+02  0.47000000000E+01 0.  1.
         13    1    6    6    0    0  0.21008860843E+02 -0.37156054662E+02  0.93410939402E+01  0.43694400876E+02  0.00000000000E+00 0. -1.
        -14    1    6    6    0    0 -0.52784164334E+02 -0.70200805885E+02  0.85158117756E+02  0.12233652836E+03  0.00000000000E+00 0.  1.
</event>
<event>
12    1  0.1061634E+000  0.2210140E+03  0.7818608E-02  0.1133266E+00
         21   -1    0    0  501  502  0.00000000000E+00  0.00000000000E+00  0.26125234263E+03  0.26125234263E+03  0.00000000000E+00 0. -1.
         21   -1    0    0  502  503 -0.00000000000E+00 -0.00000000000E+00 -0.21383239476E+03  0.21383239476E+03  0.00000000000E+00 0. -1.
         -6    2    1    2    0  503 -0.13473024867E+03 -0.24409018955E+02  0.10883512967E+03  0.24569637217E+03  0.17255022960E+03 0.  0.
        -24    2    3    3    0    0 -0.12121877342E+03  0.38609279734E+02  0.55575696107E+02  0.16195556255E+03  0.83404308823E+02 0.  0.
          6    2    1    2  501    0  0.13473024867E+03  0.24409018955E+02 -0.61415181792E+02  0.22938836523E+03  0.17349108748E+03 0.  0.
         24    2    5    5    0    0  0.50536334383E+02  0.76137917721E+02 -0.44345459541E+02  0.12899932406E+03  0.79519822794E+02 0.  0.
          5    1    5    5  501    0  0.84193914284E+02 -0.51728898766E+02 -0.17069722251E+02  0.10038904117E+03  0.47000000000E+01 0. -1.
        -13    1    6    6    0    0  0.67000877120E+02  0.60820914079E+02 -0.14520772739E+02  0.91646898285E+02  0.00000000000E+00 0.  1.
         14    1    6    6    0    0 -0.16464542738E+02  0.15317003642E+02 -0.29824686802E+02  0.37352425771E+02  0.00000000000E+00 0. -1.
         -5    1    3    3    0  503 -0.13511475244E+02 -0.63018298689E+02  0.53259433558E+02  0.83740809621E+02  0.47000000000E+01 0.  1.
         13    1    4    4    0    0  0.86307868698E+01  0.18908881497E+02  0.77366402718E+01  0.22178635759E+02  0.00000000000E+00 0. -1.
        -14    1    4    4    0    0 -0.12984956029E+03  0.19700398238E+02  0.47839055835E+02  0.13977692679E+03  0.00000000000E+00 0.  1.
</event>
<event>
12    1  0.1061634E+000  0.2195148E+03  0.7818608E-02  0.1134320E+00
         21   -1    0    0  503  502  0.00000000000E+00  0.00000000000E+00  0.39086859773E+03  0.39086859773E+03  0.00000000000E+00 0. -1.
         21   -1    0    0  501  503 -0.00000000000E+00 -0.00000000000E+00 -0.12420245694E+03  0.12420245694E+03  0.00000000000E+00 0. -1.
          6    2    1    2  501    0  0.12516956457E+03  0.56210749501E+02  0.15794513905E+03  0.27010778335E+03  0.17083465522E+03 0.  0.
         24    2    3    3    0    0  0.46043202119E+02  0.36675455533E+02  0.73644040587E+01  0.98820724014E+02  0.79033129430E+02 0.  0.
         -6    2    1    2    0  502 -0.12516956457E+03 -0.56210749501E+02  0.10872100174E+03  0.24496327131E+03  0.17134666562E+03 0.  0.
        -24    2    5    5    0    0 -0.10847683838E+03 -0.10239315892E+03  0.95517937026E+02  0.19389593375E+03  0.78869343689E+02 0.  0.
          5    1    3    3  501    0  0.79126362454E+02  0.19535293967E+02  0.15058073500E+03  0.17128705934E+03  0.47000000000E+01 0. -1.
        -13    1    4    4    0    0 -0.22435422053E+02  0.49070117874E+01 -0.78485637482E-01  0.22965911421E+02  0.00000000000E+00 0.  1.
         14    1    4    4    0    0  0.68478624172E+02  0.31768443746E+02  0.74428896962E+01  0.75854812593E+02  0.00000000000E+00 0. -1.
         -5    1    5    5    0  502 -0.16692726196E+02  0.46182409422E+02  0.13203064711E+02  0.51067337562E+02  0.47000000000E+01 0.  1.
         13    1    6    6    0    0  0.11853404770E+02 -0.31159492393E+01  0.33540575812E+01  0.12706771681E+02  0.00000000000E+00 0. -1.
        -14    1    6    6    0    0 -0.12033024315E+03 -0.99277209683E+02  0.92163879445E+02  0.18118916207E+03  0.00000000000E+00 0.  1.
</event>
<event>
12    1  0.1061634E+000  0.2705343E+03  0.7818608E-02  0.1101066E+00
         21   -1    0    0  501  502  0.00000000000E+00  0.00000000000E+00  0.66321298125E+03  0.66321298125E+03  0.00000000000E+00 0. -1.
         21   -1    0    0  502  503 -0.00000000000E+00 -0.00000000000E+00 -0.11529748792E+03  0.11529748792E+03  0.00000000000E+00 0.  1.
         -6    2    1    2    0  503  0.94491902335E+02  0.18481075787E+03  0.35634731103E+03  0.44701811127E+03  0.17250521699E+03 0.  0.
        -24    2    3    3    0    0 -0.77739015105E+01  0.33311667341E+02  0.12695948134E+03  0.15367337298E+03  0.79540523864E+02 0.  0.
          6    2    1    2  501    0 -0.94491902335E+02 -0.18481075787E+03  0.19156818230E+03  0.33149235790E+03  0.17350815267E+03 0.  0.
         24    2    5    5    0    0 -0.86810435281E+02 -0.44179851796E+02  0.61210196989E+02  0.13952530079E+03  0.78947516539E+02 0.  0.
          5    1    5    5  501    0 -0.76814670543E+01 -0.14063090608E+03  0.13035798531E+03  0.19196705710E+03  0.47000000000E+01 0. -1.
        -13    1    6    6    0    0 -0.18449344278E+02  0.40880234988E+01 -0.16677161411E+02  0.25203530569E+02  0.00000000000E+00 0.  1.
         14    1    6    6    0    0 -0.68361091003E+02 -0.48267875295E+02  0.77887358401E+02  0.11432177022E+03  0.00000000000E+00 0. -1.
         -5    1    3    3    0  503  0.10226580385E+03  0.15149909053E+03  0.22938782969E+03  0.29334473828E+03  0.47000000000E+01 0.  1.
         11    1    4    4    0    0  0.33588776173E+02  0.10135682466E+02  0.77956153485E+02  0.85487424865E+02  0.00000000000E+00 0. -1.
        -12    1    4    4    0    0 -0.41362677684E+02  0.23175984874E+02  0.49003327854E+02  0.68185948118E+02  0.00000000000E+00 0.  1.
</event>
<event>
12    1  0.1061634E+000  0.1492927E+04  0.7818608E-02  0.8889442E-01
         21   -1    0    0  503  502  0.00000000000E+00  0.00000000000E+00  0.92835637373E+03  0.92835637373E+03  0.00000000000E+00 0.  1.
         21   -1    0    0  501  503 -0.00000000000E+00 -0.00000000000E+00 -0.25368089338E+04  0.25368089338E+04  0.00000000000E+00 0.  1.
          6    2    1    2  501    0  0.12988449043E+04  0.71586211803E+03 -0.39886006306E+03  0.15437218982E+04  0.15662468432E+03 0.  0.
         24    2    3    3    0    0  0.61562367830E+03  0.33149308807E+03 -0.17551633061E+03  0.72859288534E+03  0.10564766694E+03 0.  0.
         -6    2    1    2    0  502 -0.12988449043E+04 -0.71586211803E+03 -0.12095924970E+04  0.19214434093E+04  0.17138876564E+03 0.  0.
        -24    2    5    5    0    0 -0.10236810997E+04 -0.55209884609E+03 -0.86907836465E+03  0.14539976981E+04  0.77948524570E+02 0.  0.
          5    1    3    3  501    0  0.68322122597E+03  0.38436902996E+03 -0.22334373245E+03  0.81512901288E+03  0.47000000000E+01 0. -1.
        -11    1    4    4    0    0  0.29830430903E+03  0.10110536944E+03 -0.74943322576E+02  0.32376574574E+03  0.00000000000E+00 0.  1.
         12    1    4    4    0    0  0.31731936927E+03  0.23038771863E+03 -0.10057300803E+03  0.40482713960E+03  0.00000000000E+00 0. -1.
         -5    1    5    5    0  502 -0.27516380460E+03 -0.16376327194E+03 -0.34051413238E+03  0.46744571124E+03  0.47000000000E+01 0.  1.
         13    1    6    6    0    0 -0.67401043718E+03 -0.34699505454E+03 -0.60840722911E+03  0.97203651873E+03  0.00000000000E+00 0. -1.
        -14    1    6    6    0    0 -0.34967066249E+03 -0.20510379155E+03 -0.26067113554E+03  0.48196117937E+03  0.00000000000E+00 0.  1.
</event>
<event>
12    1  0.1061634E+000  0.1960369E+03  0.7818608E-02  0.1154916E+00
         21   -1    0    0  501  502  0.00000000000E+00  0.00000000000E+00  0.17023943381E+04  0.17023943381E+04  0.00000000000E+00 0.  1.
         21   -1    0    0  502  503 -0.00000000000E+00 -0.00000000000E+00 -0.23199139953E+02  0.23199139953E+02  0.00000000000E+00 0.  1.
         -6    2    1    2    0  503 -0.89061677729E+02 -0.20993623088E+02  0.63340840534E+03  0.66305102551E+03  0.17337168118E+03 0.  0.
        -24    2    3    3    0    0 -0.58048701167E+02  0.34915967769E+02  0.21313993324E+03  0.23792120334E+03  0.81173218145E+02 0.  0.
          6    2    1    2  501    0  0.89061677729E+02  0.20993623088E+02  0.10457867928E+04  0.10625424525E+04  0.16417592022E+03 0.  0.
         24    2    5    5    0    0  0.23788980887E+02 -0.38902028778E+02  0.37863011178E+03  0.38951337359E+03  0.79250383000E+02 0.  0.
          5    1    5    5  501    0  0.65272696843E+02  0.59895651866E+02  0.66715668103E+03  0.67302907894E+03  0.47000000000E+01 0. -1.
        -11    1    6    6    0    0  0.18326685106E+02 -0.84391576792E+01  0.16502495732E+02  0.26065669657E+02  0.00000000000E+00 0.  1.
         12    1    6    6    0    0  0.54622957809E+01 -0.30462871099E+02  0.36212761605E+03  0.36344770393E+03  0.00000000000E+00 0. -1.
         -5    1    3    3    0  503 -0.31012976563E+02 -0.55909590857E+02  0.42026847209E+03  0.42512982217E+03  0.47000000000E+01 0.  1.
         11    1    4    4    0    0  0.13763961278E+02  0.28946195896E+02  0.86019043641E+02  0.91796539999E+02  0.00000000000E+00 0. -1.
        -12    1    4    4    0    0 -0.71812662445E+02  0.59697718737E+01  0.12712088960E+03  0.14612466334E+03  0.00000000000E+00 0.  1.
</event>
<event>
12    1  0.1061634E+000  0.1947111E+03  0.7818608E-02  0.1154300E+00
         21   -1    0    0  503  502  0.00000000000E+00  0.00000000000E+00  0.13112862286E+04  0.13112862286E+04  0.00000000000E+00 0.  1.
         21   -1    0    0  501  503 -0.00000000000E+00 -0.00000000000E+00 -0.38533564882E+02  0.38533564882E+02  0.00000000000E+00 0.  1.
          6    2    1    2  501    0  0.51068934321E+02 -0.76178609175E+02  0.29900571094E+03  0.35681481855E+03  0.17175908422E+03 0.  0.
         24    2    3    3    0    0  0.58599054894E+02  0.15842112628E+02  0.18457847127E+03  0.20970873732E+03  0.78890561431E+02 0.  0.
         -6    2    1    2    0  502 -0.51068934321E+02  0.76178609175E+02  0.97374695273E+03  0.99300497488E+03  0.17165236861E+03 0.  0.
        -24    2    5    5    0    0 -0.46472791771E+02  0.22316803022E+02  0.87650292341E+03  0.88164650001E+03  0.79908799028E+02 0.  0.
          5    1    3    3  501    0 -0.75301205735E+01 -0.92020721803E+02  0.11442723967E+03  0.14710608123E+03  0.47000000000E+01 0. -1.
        -11    1    4    4    0    0  0.28697998081E+02  0.22194574135E+02  0.17340942652E+03  0.17716377570E+03  0.00000000000E+00 0.  1.
         12    1    4    4    0    0  0.29901056813E+02 -0.63524615061E+01  0.11169044748E+02  0.32544961612E+02  0.00000000000E+00 0. -1.
         -5    1    5    5    0  502 -0.45961425499E+01  0.53861806153E+02  0.97244029318E+02  0.11135847487E+03  0.47000000000E+01 0.  1.
         11    1    6    6    0    0 -0.22477503848E+02  0.52118023759E+02  0.50610650264E+03  0.50927921477E+03  0.00000000000E+00 0. -1.
        -12    1    6    6    0    0 -0.23995287922E+02 -0.29801220736E+02  0.37039642077E+03  0.37236728524E+03  0.00000000000E+00 0.  1.
</event>
<event>
12    1  0.1061634E+000  0.1798088E+03  0.7818608E-02  0.1168353E+00
         21   -1    0    0  503  502  0.00000000000E+00  0.00000000000E+00  0.14018155293E+03  0.14018155293E+03  0.00000000000E+00 0.  1.
         21   -1    0    0  501  503 -0.00000000000E+00 -0.00000000000E+00 -0.39653727477E+03  0.39653727477E+03  0.00000000000E+00 0.  1.
          6    2    1    2  501    0 -0.94109114189E+01  0.55524906820E+02 -0.30306674111E+03  0.35239277140E+03  0.17076192560E+03 0.  0.
         24    2    3    3    0    0  0.10865369143E+02  0.10052768049E+03 -0.20206345122E+03  0.23987552045E+03  0.80540401058E+02 0.  0.
         -6    2    1    2    0  502  0.94109114189E+01 -0.55524906820E+02  0.46711019282E+02  0.18432605630E+03  0.16918213611E+03 0.  0.
        -24    2    5    5    0    0  0.60885233687E+02 -0.15793869165E+02  0.57343605888E+02  0.11827075293E+03  0.82117135100E+02 0.  0.
          5    1    3    3  501    0 -0.20276280562E+02 -0.45002773669E+02 -0.10100328990E+03  0.11251725095E+03  0.47000000000E+01 0. -1.
        -11    1    4    4    0    0 -0.76657253486E+01  0.10735305450E+03 -0.15370044986E+03  0.18763600385E+03  0.00000000000E+00 0.  1.
         12    1    4    4    0    0  0.18531094492E+02 -0.68253740155E+01 -0.48363001363E+02  0.52239516598E+02  0.00000000000E+00 0. -1.
         -5    1    5    5    0  502 -0.51474322268E+02 -0.39731037655E+02 -0.10632586606E+02  0.66055303375E+02  0.47000000000E+01 0.  1.
         11    1    6    6    0    0  0.32101426544E+02  0.13714595721E+02  0.67343255101E+02  0.75853185362E+02  0.00000000000E+00 0. -1.
        -12    1    6    6    0    0  0.28783807143E+02 -0.29508464886E+02 -0.99996492134E+01  0.42417567563E+02  0.00000000000E+00 0.  1.
</event>
<event>
12    1  0.1061634E+000  0.3056742E+03  0.7818608E-02  0.1083006E+00
         21   -1    0    0  503  502  0.00000000000E+00  0.00000000000E+00  0.63374279849E+02  0.63374279849E+02  0.00000000000E+00 0.  1.
         21   -1    0    0  501  503 -0.00000000000E+00 -0.00000000000E+00 -0.21096100533E+04  0.21096100533E+04  0.00000000000E+00 0.  1.
          6    2    1    2  501    0  0.23101831734E+03 -0.85757099027E+02 -0.16349966690E+04  0.16633252383E+04  0.18086734828E+03 0.  0.
         24    2    3    3    0    0  0.18712312525E+03  0.53746885984E+01 -0.10066870919E+04  0.10269080753E+04  0.77957314750E+02 0.  0.
         -6    2    1    2    0  502 -0.23101831734E+03  0.85757099027E+02 -0.41123910441E+03  0.50965909483E+03  0.17294811062E+03 0.  0.
        -24    2    5    5    0    0 -0.21894135711E+03  0.41895508309E+02 -0.39600597284E+03  0.46145297067E+03  0.80172078356E+02 0.  0.
          5    1    3    3  501    0  0.43895192084E+02 -0.91131787626E+02 -0.62830957713E+03  0.63641716296E+03  0.47000000000E+01 0. -1.
        -13    1    4    4    0    0  0.72339702791E+02  0.34588299738E+02 -0.51190767663E+03  0.51814944993E+03  0.00000000000E+00 0.  1.
         14    1    4    4    0    0  0.11478342246E+03 -0.29213611139E+02 -0.49477941525E+03  0.50875862538E+03  0.00000000000E+00 0. -1.
         -5    1    5    5    0  502 -0.12076960229E+02  0.43861590719E+02 -0.15233131568E+02  0.48206124155E+02  0.47000000000E+01 0.  1.
         11    1    6    6    0    0 -0.15502142432E+03  0.23316566843E+02 -0.19792744363E+03  0.25248876654E+03  0.00000000000E+00 0. -1.
        -12    1    6    6    0    0 -0.63919932787E+02  0.18578941465E+02 -0.19807852921E+03  0.20896420413E+03  0.00000000000E+00 0.  1.
</event>
<event>
12    1  0.1061634E+000  0.1897693E+03  0.7818608E-02  0.1158915E+00
         21   -1    0    0  503  502  0.00000000000E+00  0.00000000000E+00  0.15967039016E+03  0.15967039016E+03  0.00000000000E+00 0. -1.
         21   -1    0    0  501  503 -0.00000000000E+00 -0.00000000000E+00 -0.22491995035E+03  0.22491995035E+03  0.00000000000E+00 0. -1.
          6    2    1    2  501    0 -0.21979197300E+02 -0.66482576124E+02 -0.22290293174E+02  0.19107396258E+03  0.17637852467E+03 0.  0.
         24    2    3    3    0    0  0.17490767849E+02 -0.10530702383E+03 -0.22809451172E+02  0.13550800705E+03  0.80291049841E+02 0.  0.
         -6    2    1    2    0  502  0.21979197300E+02  0.66482576124E+02 -0.42959267018E+02  0.19351637794E+03  0.17521435976E+03 0.  0.
        -24    2    5    5    0    0 -0.17005589222E+02  0.81704668688E+02  0.74118469085E+01  0.12785920163E+03  0.96582591686E+02 0.  0.
          5    1    3    3  501    0 -0.39469965149E+02  0.38824447708E+02  0.51915799730E+00  0.55565955528E+02  0.47000000000E+01 0. -1.
        -11    1    4    4    0    0 -0.21861519483E+02 -0.62679316193E+02  0.12561945348E+02  0.67560529775E+02  0.00000000000E+00 0.  1.
         12    1    4    4    0    0  0.39352287331E+02 -0.42627707639E+02 -0.35371396520E+02  0.67947477279E+02  0.00000000000E+00 0. -1.
         -5    1    5    5    0  502  0.38984786523E+02 -0.15222092564E+02 -0.50371113926E+02  0.65657176305E+02  0.47000000000E+01 0.  1.
         11    1    6    6    0    0  0.22300850881E+02  0.17211952640E+02 -0.32028491016E+02  0.42654466360E+02  0.00000000000E+00 0. -1.
        -12    1    6    6    0    0 -0.39306440104E+02  0.64492716048E+02  0.39440337925E+02  0.85204735270E+02  0.00000000000E+00 0.  1.
</event>
<event>
12    1  0.1061634E+000  0.2133657E+03  0.7818608E-02  0.1139373E+00
         21   -1    0    0  501  502  0.00000000000E+00  0.00000000000E+00  0.33523887587E+03  0.33523887587E+03  0.00000000000E+00 0.  1.
         21   -1    0    0  502  503 -0.00000000000E+00 -0.00000000000E+00 -0.13450074167E+03  0.13450074167E+03  0.00000000000E+00 0.  1.
         -6    2    1    2    0  503 -0.12671921316E+03 -0.14919619544E+02  0.10875809950E+03  0.23948535802E+03  0.17101040456E+03 0.  0.
        -24    2    3    3    0    0 -0.16030797649E+03 -0.16576540282E+02  0.85037324281E+02  0.19806416072E+03  0.77618530179E+02 0.  0.
          6    2    1    2  501    0  0.12671921316E+03  0.14919619544E+02  0.91980034698E+02  0.23025425953E+03  0.16815571123E+03 0.  0.
         24    2    5    5    0    0  0.13718938422E+03  0.98987972708E+01  0.22632466326E+02  0.15978434838E+03  0.78101831771E+02 0.  0.
          5    1    5    5  501    0 -0.10470171061E+02  0.50208222732E+01  0.69347568372E+02  0.70469911150E+02  0.47000000000E+01 0. -1.
        -11    1    6    6    0    0  0.62083136103E+01  0.12570662153E+02 -0.17818733495E+02  0.22673155233E+02  0.00000000000E+00 0.  1.
         12    1    6    6    0    0  0.13098107061E+03 -0.26718648818E+01  0.40451199821E+02  0.13711119315E+03  0.00000000000E+00 0. -1.
         -5    1    3    3    0  503  0.33588763333E+02  0.16569207381E+01  0.23720775223E+02  0.41421197299E+02  0.47000000000E+01 0.  1.
         13    1    4    4    0    0 -0.74060521843E+02 -0.21900704930E+02  0.57906244213E+00  0.77233005156E+02  0.00000000000E+00 0. -1.
        -14    1    4    4    0    0 -0.86247454645E+02  0.53241646481E+01  0.84458261839E+02  0.12083115556E+03  0.00000000000E+00 0.  1.
</event>
<event>
12    1  0.1061634E+000  0.1837673E+03  0.7818608E-02  0.1164621E+00
         21   -1    0    0  501  502  0.00000000000E+00  0.00000000000E+00  0.15907174951E+03  0.15907174951E+03  0.00000000000E+00 0. -1.
         21   -1    0    0  502  503 -0.00000000000E+00 -0.00000000000E+00 -0.21438646579E+03  0.21438646579E+03  0.00000000000E+00 0. -1.
         -6    2    1    2    0  503  0.52862535956E+02 -0.31817816390E+02 -0.53386783140E+02  0.18968077032E+03  0.17123616694E+03 0.  0.
        -24    2    3    3    0    0  0.44793259702E+02  0.44609280978E+02 -0.43823600498E+02  0.11209366512E+03  0.81535622487E+02 0.  0.
          6    2    1    2  501    0 -0.52862535956E+02  0.31817816390E+02 -0.19279331472E+01  0.18377744498E+03  0.17310000350E+03 0.  0.
         24    2    5    5    0    0  0.37386054443E+02  0.68681188749E+01 -0.65540971643E+01  0.89911653193E+02  0.81217369242E+02 0.  0.
          5    1    5    5  501    0 -0.90248590399E+02  0.24949697515E+02  0.46261640171E+01  0.93865791792E+02  0.47000000000E+01 0. -1.
        -13    1    6    6    0    0 -0.18198848959E+02  0.20022220893E+02  0.12352997280E+02  0.29743637550E+02  0.00000000000E+00 0.  1.
         14    1    6    6    0    0  0.55584903402E+02 -0.13154102018E+02 -0.18907094444E+02  0.60168015643E+02  0.00000000000E+00 0. -1.
         -5    1    3    3    0  503  0.80692762544E+01 -0.76427097369E+02 -0.95631826421E+01  0.77587105203E+02  0.47000000000E+01 0.  1.
         11    1    4    4    0    0  0.50504171105E+02 -0.26144560761E+01 -0.52352013846E+01  0.50842049655E+02  0.00000000000E+00 0. -1.
        -12    1    4    4    0    0 -0.57109114031E+01  0.47223737054E+02 -0.38588399113E+02  0.61251615461E+02  0.00000000000E+00 0.  1.
</event>
<event>
12    1  0.1061634E+000  0.2167405E+03  0.7818608E-02  0.1136470E+00
         21   -1    0    0  501  502  0.00000000000E+00  0.00000000000E+00  0.98054668731E+02  0.98054668731E+02  0.00000000000E+00 0. -1.
         21   -1    0    0  502  503 -0.00000000000E+00 -0.00000000000E+00 -0.56800104546E+03  0.56800104546E+03  0.00000000000E+00 0. -1.
         -6    2    1    2    0  503 -0.10931369885E+03  0.73283713865E+02 -0.10238526126E+03  0.23970644853E+03  0.17221048827E+03 0.  0.
        -24    2    3    3    0    0 -0.11333600373E+03  0.94549554850E+02 -0.12381852176E+03  0.20888616974E+03  0.80732505944E+02 0.  0.
          6    2    1    2  501    0  0.10931369885E+03 -0.73283713865E+02 -0.36756111547E+03  0.42634926565E+03  0.17132581606E+03 0.  0.
         24    2    5    5    0    0  0.51463800031E+02  0.19579740016E+02 -0.23520987511E+03  0.25456692464E+03  0.80304077353E+02 0.  0.
          5    1    5    5  501    0  0.57849898821E+02 -0.92863453881E+02 -0.13235124036E+03  0.17178234101E+03  0.47000000000E+01 0. -1.
        -11    1    6    6    0    0  0.27122216344E+02  0.70668777179E+01 -0.22272993143E+03  0.22448647562E+03  0.00000000000E+00 0.  1.
         12    1    6    6    0    0  0.24341583686E+02  0.12512862298E+02 -0.12479943679E+02  0.30080449024E+02  0.00000000000E+00 0. -1.
         -5    1    3    3    0  503  0.40223048766E+01 -0.21265840985E+02  0.21433260495E+02  0.30820278791E+02  0.47000000000E+01 0.  1.
         11    1    4    4    0    0  0.70791608862E+00  0.28299860755E+02 -0.50741094931E+02  0.58103717426E+02  0.00000000000E+00 0. -1.
        -12    1    4    4    0    0 -0.11404391982E+03  0.66249694095E+02 -0.73077426825E+02  0.15078245232E+03  0.00000000000E+00 0.  1.
</event>
<event>
12    1  0.1061634E+000  0.2007077E+03  0.7818608E-02  0.1151171E+00
         21   -1    0    0  503  502  0.00000000000E+00  0.00000000000E+00  0.10890513559E+03  0.10890513559E+03  0.00000000000E+00 0.  1.
         21   -1    0    0  501  503 -0.00000000000E+00 -0.00000000000E+00 -0.73646071625E+03  0.73646071625E+03  0.00000000000E+00 0.  1.
          6    2    1    2  501    0 -0.67235126390E+02 -0.77989453281E+02 -0.51146865753E+01  0.19136566391E+03  0.16121954057E+03 0.  0.
         24    2    3    3    0    0 -0.64996520898E+02 -0.63746816580E+02 -0.59097910894E+02  0.13529300959E+03  0.80767759769E+02 0.  0.
         -6    2    1    2    0  502  0.67235126390E+02  0.77989453281E+02 -0.62244089409E+03  0.65400018793E+03  0.17228076544E+03 0.  0.
        -24    2    5    5    0    0 -0.24609031828E+02  0.60559586447E+02 -0.38754729023E+03  0.40114401381E+03  0.80315314205E+02 0.  0.
          5    1    3    3  501    0 -0.22386054923E+01 -0.14242636702E+02  0.53983224319E+02  0.56072654321E+02  0.47000000000E+01 0. -1.
        -13    1    4    4    0    0 -0.72166328710E+02 -0.19150004430E+02 -0.48059754100E+02  0.88794378388E+02  0.00000000000E+00 0.  1.
         14    1    4    4    0    0  0.71698078124E+01 -0.44596812149E+02 -0.11038156795E+02  0.46498631199E+02  0.00000000000E+00 0. -1.
         -5    1    5    5    0  502  0.91844158218E+02  0.17429866835E+02 -0.23489360385E+03  0.25285617412E+03  0.47000000000E+01 0.  1.
         11    1    6    6    0    0  0.73484788935E+01  0.24154633933E+02 -0.30022862272E+03  0.30128835421E+03  0.00000000000E+00 0. -1.
        -12    1    6    6    0    0 -0.31957510722E+02  0.36404952514E+02 -0.87318667510E+02  0.99855659603E+02  0.00000000000E+00 0.  1.
</event>
<event>
12    1  0.1061634E+000  0.4428204E+03  0.7818608E-02  0.1029912E+00
         21   -1    0    0  501  502  0.00000000000E+00  0.00000000000E+00  0.52230557299E+03  0.52230557299E+03  0.00000000000E+00 0.  1.
         21   -1    0    0  502  503 -0.00000000000E+00 -0.00000000000E+00 -0.37738576000E+03  0.37738576000E+03  0.00000000000E+00 0. -1.
         -6    2    1    2    0  503  0.40515178015E+03 -0.47791674808E+02  0.37711011800E+02  0.44442327901E+03  0.17221475365E+03 0.  0.
        -24    2    3    3    0    0  0.86869568713E+02  0.26021955483E+02  0.23348096625E+02  0.11734469294E+03  0.70719015892E+02 0.  0.
          6    2    1    2  501    0 -0.40515178015E+03  0.47791674808E+02  0.10720880118E+03  0.45526805398E+03  0.17129875884E+03 0.  0.
         24    2    5    5    0    0 -0.30130126438E+03 -0.28726340232E+02  0.66414270261E+02  0.31989368415E+03  0.79457279890E+02 0.  0.
          5    1    5    5  501    0 -0.10385051578E+03  0.76518015040E+02  0.40794530922E+02  0.13537436983E+03  0.47000000000E+01 0. -1.
        -13    1    6    6    0    0 -0.14281534395E+02 -0.20128346056E+02  0.12730458335E+02  0.27770075784E+02  0.00000000000E+00 0.  1.
         14    1    6    6    0    0 -0.28701972998E+03 -0.85979941752E+01  0.53683811926E+02  0.29212360837E+03  0.00000000000E+00 0. -1.
         -5    1    3    3    0  503  0.31828221144E+03 -0.73813630291E+02  0.14362915174E+02  0.32707858608E+03  0.47000000000E+01 0.  1.
         13    1    4    4    0    0  0.65907166117E+02 -0.14137963715E+02  0.24393299854E+01  0.67450625604E+02  0.00000000000E+00 0. -1.
        -14    1    4    4    0    0  0.20962402596E+02  0.40159919198E+02  0.20908766640E+02  0.49894067332E+02  0.00000000000E+00 0.  1.
</event>
<event>
12    1  0.1061634E+000  0.2243837E+03  0.7818608E-02  0.1130978E+00
         21   -1    0    0  501  502  0.00000000000E+00  0.00000000000E+00  0.67556919374E+02  0.67556919374E+02  0.00000000000E+00 0.  1.
         21   -1    0    0  502  503 -0.00000000000E+00 -0.00000000000E+00 -0.87391607976E+03  0.87391607976E+03  0.00000000000E+00 0.  1.
         -6    2    1    2    0  503 -0.93073720114E+02  0.10580414836E+03 -0.21716390187E+03  0.31099771027E+03  0.17234320506E+03 0.  0.
        -24    2    3    3    0    0 -0.80995777047E+02  0.12638359054E+03 -0.22797026504E+03  0.28438460008E+03  0.79818739428E+02 0.  0.
          6    2    1    2  501    0  0.93073720114E+02 -0.10580414836E+03 -0.58919525851E+03  0.63047528886E+03  0.17461615624E+03 0.  0.
         24    2    5    5    0    0  0.14375620912E+02 -0.96966688915E+02 -0.22864200075E+03  0.26129750893E+03  0.79937640895E+02 0.  0.
          5    1    5    5  501    0  0.78698099202E+02 -0.88374594489E+01 -0.36055325777E+03  0.36917777993E+03  0.47000000000E+01 0. -1.
        -11    1    6    6    0    0  0.24500129096E+02  0.30407193751E+01 -0.61325255759E+02  0.66108163596E+02  0.00000000000E+00 0.  1.
         12    1    6    6    0    0 -0.10124508185E+02 -0.10000740829E+03 -0.16731674499E+03  0.19518934534E+03  0.00000000000E+00 0. -1.
         -5    1    3    3    0  503 -0.12077943067E+02 -0.20579442174E+02  0.10806363172E+02  0.26613110189E+02  0.47000000000E+01 0.  1.
         11    1    4    4    0    0 -0.67889790644E+02  0.11364132907E+03 -0.13292103305E+03  0.18759364694E+03  0.00000000000E+00 0. -1.
        -12    1    4    4    0    0 -0.13105986403E+02  0.12742261466E+02 -0.95049231994E+02  0.96790953139E+02  0.00000000000E+00 0.  1.
</event>
<event>
12    1  0.1061634E+000  0.5002191E+03  0.7818608E-02  0.1013789E+00
         21   -1    0    0  503  502  0.00000000000E+00  0.00000000000E+00  0.36110569570E+03  0.36110569570E+03  0.00000000000E+00 0. -1.
         21   -1    0    0  501  503 -0.00000000000E+00 -0.00000000000E+00 -0.76842818057E+03  0.76842818057E+03  0.00000000000E+00 0. -1.
          6    2    1    2  501    0  0.80597196648E+01 -0.46901484805E+03 -0.24769320999E+02  0.49979897396E+03  0.17072084917E+03 0.  0.
         24    2    3    3    0    0 -0.51720629960E+01 -0.46873497953E+03 -0.41853059511E+02  0.47768331163E+03  0.81795087541E+02 0.  0.
         -6    2    1    2    0  502 -0.80597196648E+01  0.46901484805E+03 -0.38255316388E+03  0.62973490231E+03  0.17372172352E+03 0.  0.
        -24    2    5    5    0    0 -0.23884519810E+02  0.10338886262E+03 -0.83612120000E+02  0.15716678740E+03  0.80316158081E+02 0.  0.
          5    1    3    3  501    0  0.13231782661E+02 -0.27986851016E+00  0.17083738511E+02  0.22115662330E+02  0.47000000000E+01 0. -1.
        -11    1    4    4    0    0 -0.35055363965E+02 -0.10777365642E+03 -0.25421628881E+01  0.11336005537E+03  0.00000000000E+00 0.  1.
         12    1    4    4    0    0  0.29883300969E+02 -0.36096132311E+03 -0.39310896622E+02  0.36432325626E+03  0.00000000000E+00 0. -1.
         -5    1    5    5    0  502  0.15824800145E+02  0.36562598542E+03 -0.29894104388E+03  0.47256811491E+03  0.47000000000E+01 0.  1.
         13    1    6    6    0    0 -0.45052265800E+02  0.88558078731E+02 -0.41333374021E+02  0.10761360402E+03  0.00000000000E+00 0. -1.
        -14    1    6    6    0    0  0.21167745991E+02  0.14830783891E+02 -0.42278745979E+02  0.49553183377E+02  0.00000000000E+00 0.  1.
</event>
<event>
12    1  0.1061634E+000  0.3340347E+03  0.7818608E-02  0.1070095E+00
         21   -1    0    0  501  502  0.00000000000E+00  0.00000000000E+00  0.48454340544E+03  0.48454340544E+03  0.00000000000E+00 0. -1.
         21   -1    0    0  502  503 -0.00000000000E+00 -0.00000000000E+00 -0.22876297172E+03  0.22876297172E+03  0.00000000000E+00 0.  1.
         -6    2    1    2    0  503 -0.20750442973E+03 -0.19649527398E+03  0.85574272971E+02  0.33840729701E+03  0.15977503380E+03 0.  0.
        -24    2    3    3    0    0 -0.18874267558E+03 -0.18437937534E+03  0.11759273023E+03  0.29908720007E+03  0.77495492823E+02 0.  0.
          6    2    1    2  501    0  0.20750442973E+03  0.19649527398E+03  0.17020616075E+03  0.37489908015E+03  0.17294710777E+03 0.  0.
         24    2    5    5    0    0  0.53499748929E+02  0.64929729515E+02  0.10537527207E+02  0.11693959353E+03  0.80534068226E+02 0.  0.
          5    1    5    5  501    0  0.15400468080E+03  0.13156554446E+03  0.15966863354E+03  0.25795948662E+03  0.47000000000E+01 0. -1.
        -13    1    6    6    0    0  0.71723800360E+02  0.50728439923E+02  0.22831013005E+02  0.90768570056E+02  0.00000000000E+00 0.  1.
         14    1    6    6    0    0 -0.18224051431E+02  0.14201289592E+02 -0.12293485798E+02  0.26171023475E+02  0.00000000000E+00 0. -1.
         -5    1    3    3    0  503 -0.18761754144E+02 -0.12115898639E+02 -0.32018457259E+02  0.39320096943E+02  0.47000000000E+01 0.  1.
         13    1    4    4    0    0 -0.76585965972E+02 -0.12432040412E+03  0.79631917456E+02  0.16631961803E+03  0.00000000000E+00 0. -1.
        -14    1    4    4    0    0 -0.11215670961E+03 -0.60058971217E+02  0.37960812774E+02  0.13276758204E+03  0.00000000000E+00 0.  1.
</event>
<event>
12    1  0.1061634E+000  0.1924927E+03  0.7818608E-02  0.1158303E+00
         21   -1    0    0  503  502  0.00000000000E+00  0.00000000000E+00  0.44485643553E+03  0.44485643553E+03  0.00000000000E+00 0. -1.
         21   -1    0    0  501  503 -0.00000000000E+00 -0.00000000000E+00 -0.96648587280E+02  0.96648587280E+02  0.00000000000E+00 0. -1.
          6    2    1    2  501    0  0.74310468626E+02  0.50106673131E+02  0.63219794745E+02  0.20260844670E+03  0.17035467645E+03 0.  0.
         24    2    3    3    0    0  0.96550289901E+02  0.70602817380E+02  0.12142990963E+02  0.14306324149E+03  0.77543036653E+02 0.  0.
         -6    2    1    2    0  502 -0.74310468626E+02 -0.50106673131E+02  0.28498805351E+03  0.33889657611E+03  0.15999991943E+03 0.  0.
        -24    2    5    5    0    0 -0.51164584265E+02 -0.14921680801E+02  0.28517389140E+03  0.29651922150E+03  0.61310921894E+02 0.  0.
          5    1    3    3  501    0 -0.22239821275E+02 -0.20496144249E+02  0.51076803782E+02  0.59545205214E+02  0.47000000000E+01 0. -1.
        -11    1    4    4    0    0  0.49367688256E+02 -0.70788463709E+01  0.15157758484E+02  0.52125198819E+02  0.00000000000E+00 0.  1.
         12    1    4    4    0    0  0.47182601645E+02  0.77681663751E+02 -0.30147675209E+01  0.90938042668E+02  0.00000000000E+00 0. -1.
         -5    1    5    5    0  502 -0.23145884361E+02 -0.35184992330E+02 -0.18583789052E+00  0.42377354611E+02  0.47000000000E+01 0.  1.
         11    1    6    6    0    0 -0.32856736183E+01  0.91840648171E+01  0.16067146611E+03  0.16096727220E+03  0.00000000000E+00 0. -1.
        -12    1    6    6    0    0 -0.47878910647E+02 -0.24105745619E+02  0.12450242529E+03  0.13555194930E+03  0.00000000000E+00 0.  1.
</event>
<event>
12    1  0.1061634E+000  0.1779125E+03  0.7818608E-02  0.1170564E+00
         21   -1    0    0  503  502  0.00000000000E+00  0.00000000000E+00  0.63790712059E+02  0.63790712059E+02  0.00000000000E+00 0. -1.
         21   -1    0    0  501  503 -0.00000000000E+00 -0.00000000000E+00 -0.65962359701E+03  0.65962359701E+03  0.00000000000E+00 0. -1.
          6    2    1    2  501    0  0.87491441388E+01 -0.32444839003E+02 -0.48054643846E+03  0.51141471875E+03  0.17172920524E+03 0.  0.
         24    2    3    3    0    0  0.21456209910E+02  0.27757546839E+02 -0.40359284222E+03  0.41277526033E+03  0.79154171727E+02 0.  0.
         -6    2    1    2    0  502 -0.87491441388E+01  0.32444839003E+02 -0.11528644649E+03  0.21199959032E+03  0.17471017844E+03 0.  0.
        -24    2    5    5    0    0 -0.48247344528E+02  0.71106940044E+02 -0.58251648784E+02  0.13243877057E+03  0.82236063786E+02 0.  0.
          5    1    3    3  501    0 -0.12707065771E+02 -0.60202385842E+02 -0.76953596243E+02  0.98639458414E+02  0.47000000000E+01 0. -1.
        -13    1    4    4    0    0  0.49410659747E+02  0.12204333230E+02 -0.18576659884E+03  0.19261253409E+03  0.00000000000E+00 0.  1.
         14    1    4    4    0    0 -0.27954449837E+02  0.15553213609E+02 -0.21782624338E+03  0.22016272624E+03  0.00000000000E+00 0. -1.
         -5    1    5    5    0  502  0.39498200389E+02 -0.38662101042E+02 -0.57034797704E+02  0.79560819755E+02  0.47000000000E+01 0.  1.
         13    1    6    6    0    0  0.16770570941E+01  0.14492953588E+02 -0.54982896535E+02  0.56885649645E+02  0.00000000000E+00 0. -1.
        -14    1    6    6    0    0 -0.49924401622E+02  0.56613986457E+02 -0.32687522489E+01  0.75553120922E+02  0.00000000000E+00 0.  1.
</event>
<event>
12    1  0.1061634E+000  0.2443996E+03  0.7818608E-02  0.1116963E+00
         21   -1    0    0  501  502  0.00000000000E+00  0.00000000000E+00  0.22312869016E+03  0.22312869016E+03  0.00000000000E+00 0.  1.
         21   -1    0    0  502  503 -0.00000000000E+00 -0.00000000000E+00 -0.27380826755E+03  0.27380826755E+03  0.00000000000E+00 0.  1.
         -6    2    1    2    0  503 -0.17087463156E+03  0.28058577676E+02  0.13129979216E+02  0.24434472625E+03  0.17189102769E+03 0.  0.
        -24    2    3    3    0    0 -0.19595937594E+03  0.31903841312E+02 -0.43718688820E+01  0.21316083395E+03  0.77462867131E+02 0.  0.
          6    2    1    2  501    0  0.17087463156E+03 -0.28058577676E+02 -0.63809556610E+02  0.25259223146E+03  0.17246956945E+03 0.  0.
         24    2    5    5    0    0  0.16008056947E+03 -0.59194009737E+02 -0.90852945153E+02  0.20970445033E+03  0.81191005263E+02 0.  0.
          5    1    5    5  501    0  0.10794062093E+02  0.31135432061E+02  0.27043388543E+02  0.42887781127E+02  0.47000000000E+01 0. -1.
        -11    1    6    6    0    0  0.94847085882E+01  0.15627051781E+02  0.59253990379E+00  0.18289766207E+02  0.00000000000E+00 0.  1.
         12    1    6    6    0    0  0.15059586088E+03 -0.74821061518E+02 -0.91445485056E+02  0.19141468413E+03  0.00000000000E+00 0. -1.
         -5    1    3    3    0  503  0.25084744371E+02 -0.38452636368E+01  0.17501848098E+02  0.31183892307E+02  0.47000000000E+01 0.  1.
         11    1    4    4    0    0 -0.15367462822E+03  0.30457189435E+02  0.28936203622E+02  0.15931363917E+03  0.00000000000E+00 0. -1.
        -12    1    4    4    0    0 -0.42284747716E+02  0.14466518773E+01 -0.33308072504E+02  0.53847194774E+02  0.00000000000E+00 0.  1.
</event>
<event>
12    1  0.1061634E+000  0.2865999E+03  0.7818608E-02  0.1092268E+00
         21   -1    0    0  503  502  0.00000000000E+00  0.00000000000E+00  0.18758573587E+04  0.18758573587E+04  0.00000000000E+00 0.  1.
         21   -1    0    0  501  503 -0.00000000000E+00 -0.00000000000E+00 -0.51102447579E+02  0.51102447579E+02  0.00000000000E+00 0. -1.
          6    2    1    2  501    0  0.92308840490E+02  0.20854757163E+03  0.54548372856E+03  0.61619151321E+03  0.17356978758E+03 0.  0.
         24    2    3    3    0    0  0.22550533438E+00  0.30659482709E+02  0.14250233772E+03  0.16614751074E+03  0.79737220524E+02 0.  0.
         -6    2    1    2    0  502 -0.92308840490E+02 -0.20854757163E+03  0.12792711826E+04  0.13107682931E+04  0.17194693344E+03 0.  0.
        -24    2    5    5    0    0 -0.37724278578E+02 -0.19374090031E+03  0.11248900342E+04  0.11462862549E+04  0.98162780384E+02 0.  0.
          5    1    3    3  501    0  0.92083335156E+02  0.17788808892E+03  0.40298139084E+03  0.45004400247E+03  0.47000000000E+01 0. -1.
        -13    1    4    4    0    0  0.34226641717E+01  0.36462588770E+02  0.15099684463E+03  0.15537465076E+03  0.00000000000E+00 0.  1.
         14    1    4    4    0    0 -0.31971588373E+01 -0.58031060606E+01 -0.84945069096E+01  0.10772859983E+02  0.00000000000E+00 0. -1.
         -5    1    5    5    0  502 -0.54584561912E+02 -0.14806671324E+02  0.15438114832E+03  0.16448203814E+03  0.47000000000E+01 0.  1.
         13    1    6    6    0    0  0.19175711326E+01 -0.25458385547E+02  0.38308818855E+02  0.46036638407E+02  0.00000000000E+00 0. -1.
        -14    1    6    6    0    0 -0.39641849710E+02 -0.16828251476E+03  0.10865812154E+04  0.11002496165E+04  0.00000000000E+00 0.  1.
</event>
<event>
12    1  0.1061634E+000  0.1871809E+03  0.7818608E-02  0.1161283E+00
         21   -1    0    0  501  502  0.00000000000E+00  0.00000000000E+00  0.10582631724E+04  0.10582631724E+04  0.00000000000E+00 0. -1.
         21   -1    0    0  502  503 -0.00000000000E+00 -0.00000000000E+00 -0.37384739856E+02  0.37384739856E+02  0.00000000000E+00 0. -1.
         -6    2    1    2    0  503 -0.42319197665E+02  0.59968487513E+02  0.70123790417E+03  0.72579011941E+03  0.17219049104E+03 0.  0.
        -24    2    3    3    0    0 -0.54543763742E+02  0.97416365680E+02  0.62368712075E+03  0.63868100620E+03  0.80391744772E+02 0.  0.
          6    2    1    2  501    0  0.42319197665E+02 -0.59968487513E+02  0.31964052835E+03  0.36985779283E+03  0.17099001597E+03 0.  0.
         24    2    5    5    0    0  0.79365078072E+02 -0.87070952358E+02  0.24597094753E+03  0.28293116863E+03  0.75287268444E+02 0.  0.
          5    1    5    5  501    0 -0.37045880407E+02  0.27102464845E+02  0.73669580820E+02  0.86926624195E+02  0.47000000000E+01 0. -1.
        -11    1    6    6    0    0  0.23363259770E+02 -0.15816044643E+02  0.14300598151E+03  0.14576247776E+03  0.00000000000E+00 0.  1.
         12    1    6    6    0    0  0.56001818301E+02 -0.71254907715E+02  0.10296496602E+03  0.13716869087E+03  0.00000000000E+00 0. -1.
         -5    1    3    3    0  503  0.12224566078E+02 -0.37447878167E+02  0.77550783420E+02  0.87109113209E+02  0.47000000000E+01 0.  1.
         13    1    4    4    0    0 -0.70537762340E+02  0.85063178124E+02  0.43114671495E+03  0.44508292486E+03  0.00000000000E+00 0. -1.
        -14    1    4    4    0    0  0.15993998598E+02  0.12353187556E+02  0.19254040580E+03  0.19359808135E+03  0.00000000000E+00 0.  1.
</event>
<event>
12    1  0.1061634E+000  0.2550048E+03  0.7818608E-02  0.1110198E+00
         21   -1    0    0  501  502  0.00000000000E+00  0.00000000000E+00  0.42556019440E+02  0.42556019440E+02  0.00000000000E+00 0.  1.
         21   -1    0    0  502  503 -0.00000000000E+00 -0.00000000000E+00 -0.15651069387E+04  0.15651069387E+04  0.00000000000E+00 0.  1.
         -6    2    1    2    0  503 -0.44026650722E+02 -0.18320874902E+03 -0.63672457557E+03  0.68589040985E+03  0.17182455442E+03 0.  0.
        -24    2    3    3    0    0  0.18058872397E+02 -0.53040343231E+02 -0.36540753734E+03  0.37859014744E+03  0.81660458660E+02 0.  0.
          6    2    1    2  501    0  0.44026650722E+02  0.18320874902E+03 -0.88582634367E+03  0.92177254826E+03  0.17167564740E+03 0.  0.
         24    2    5    5    0    0  0.52795250780E+02  0.20467372256E+03 -0.72848448233E+03  0.76266194282E+03  0.79277530350E+02 0.  0.
          5    1    5    5  501    0 -0.87686000583E+01 -0.21464973543E+02 -0.15734186134E+03  0.15911060544E+03  0.47000000000E+01 0. -1.
        -13    1    6    6    0    0  0.17803839238E+02  0.81193927341E+01 -0.13705788500E+03  0.13844769796E+03  0.00000000000E+00 0.  1.
         14    1    6    6    0    0  0.34991411543E+02  0.19655432983E+03 -0.59142659733E+03  0.62421424486E+03  0.00000000000E+00 0. -1.
         -5    1    3    3    0  503 -0.62085523119E+02 -0.13016840579E+03 -0.27131703823E+03  0.30730026241E+03  0.47000000000E+01 0.  1.
         13    1    4    4    0    0  0.43383692737E+00 -0.19158035520E+01 -0.26101556961E+03  0.26102296086E+03  0.00000000000E+00 0. -1.
        -14    1    4    4    0    0  0.17625035470E+02 -0.51124539679E+02 -0.10439196773E+03  0.11756718658E+03  0.00000000000E+00 0.  1.
</event>
<event>
12    1  0.1061634E+000  0.2951625E+03  0.7818608E-02  0.1087726E+00
         21   -1    0    0  503  502  0.00000000000E+00  0.00000000000E+00  0.78523925546E+02  0.78523925546E+02  0.00000000000E+00 0.  1.
         21   -1    0    0  501  503 -0.00000000000E+00 -0.00000000000E+00 -0.11085787918E+04  0.11085787918E+04  0.00000000000E+00 0.  1.
          6    2    1    2  501    0 -0.23264603514E+03 -0.57956511266E+02 -0.50445661213E+03  0.58429725405E+03  0.17159158693E+03 0.  0.
         24    2    3    3    0    0 -0.44000945675E+02  0.14616701221E+02 -0.12436457738E+03  0.15377909435E+03  0.77664216845E+02 0.  0.
         -6    2    1    2    0  502  0.23264603514E+03  0.57956511266E+02 -0.52559825410E+03  0.60280546327E+03  0.17215622838E+03 0.  0.
        -24    2    5    5    0    0  0.17626432436E+03  0.62359821423E+02 -0.25353340841E+03  0.32488522883E+03  0.79456675997E+02 0.  0.
          5    1    3    3  501    0 -0.18864508947E+03 -0.72573212487E+02 -0.38009203475E+03  0.43051815970E+03  0.47000000000E+01 0. -1.
        -13    1    4    4    0    0 -0.51241842179E+02  0.14063552499E+02 -0.33913091405E+02  0.63036558182E+02  0.00000000000E+00 0.  1.
         14    1    4    4    0    0  0.72408965036E+01  0.55314872252E+00 -0.90451485973E+02  0.90742536170E+02  0.00000000000E+00 0. -1.
         -5    1    5    5    0  502  0.56381710781E+02 -0.44033101578E+01 -0.27206484570E+03  0.27792023445E+03  0.47000000000E+01 0.  1.
         13    1    6    6    0    0  0.10083831974E+03  0.74038462467E+02 -0.13641841571E+03  0.18509469143E+03  0.00000000000E+00 0. -1.
        -14    1    6    6    0    0  0.75426004624E+02 -0.11678641043E+02 -0.11711499270E+03  0.13979053740E+03  0.00000000000E+00 0.  1.
</event>
<event>
12    1  0.1061634E+000  0.1755082E+03  0.7818608E-02  0.1173065E+00
         21   -1    0    0  501  502  0.00000000000E+00  0.00000000000E+00  0.62431799384E+02  0.62431799384E+02  0.00000000000E+00 0.  1.
         21   -1    0    0  502  503 -0.00000000000E+00 -0.00000000000E+00 -0.50884406324E+03  0.50884406324E+03  0.00000000000E+00 0.  1.
         -6    2    1    2    0  503  0.31093169894E+02 -0.12347566916E+01 -0.28828650556E+03  0.33750886394E+03  0.17272757195E+03 0.  0.
        -24    2    3    3    0    0  0.39409415086E+00  0.49469471113E+02 -0.72297479838E+02  0.11348497861E+03  0.72142434778E+02 0.  0.
          6    2    1    2  501    0 -0.31093169894E+02  0.12347566916E+01 -0.15812575829E+03  0.23376699868E+03  0.16933677804E+03 0.  0.
         24    2    5    5    0    0  0.41343111196E+02  0.17715288244E+02 -0.11635770488E+03  0.14841312926E+03  0.80400604303E+02 0.  0.
          5    1    5    5  501    0 -0.72436281090E+02 -0.16480531553E+02 -0.41768053415E+02  0.85353869417E+02  0.47000000000E+01 0. -1.
        -11    1    6    6    0    0  0.67380923251E+01 -0.13284043114E+02 -0.96909411975E+02  0.98047446774E+02  0.00000000000E+00 0.  1.
         12    1    6    6    0    0  0.34605018871E+02  0.30999331359E+02 -0.19448292904E+02  0.50365682489E+02  0.00000000000E+00 0. -1.
         -5    1    3    3    0  503  0.30699075743E+02 -0.50704227805E+02 -0.21598902572E+03  0.22402388533E+03  0.47000000000E+01 0.  1.
         11    1    4    4    0    0  0.19672438518E+02  0.14576672732E+02 -0.69311550027E+02  0.73509014361E+02  0.00000000000E+00 0. -1.
        -12    1    4    4    0    0 -0.19278344367E+02  0.34892798381E+02 -0.29859298111E+01  0.39975964244E+02  0.00000000000E+00 0.  1.
</event>
<event>
12    1  0.1061634E+000  0.4163387E+03  0.7818608E-02  0.1038300E+00
         21   -1    0    0  503  502  0.00000000000E+00  0.00000000000E+00  0.58492449207E+03  0.58492449207E+03  0.00000000000E+00 0.  1.
         21   -1    0    0  501  503 -0.00000000000E+00 -0.00000000000E+00 -0.36541393335E+03  0.36541393335E+03  0.00000000000E+00 0.  1.
          6    2    1    2  501    0  0.33305137627E+03  0.18100846338E+03  0.31674965295E+03  0.52279505649E+03  0.17116379697E+03 0.  0.
         24    2    3    3    0    0  0.16437481402E+03  0.15363868904E+03  0.22777306166E+03  0.33007813716E+03  0.80293727993E+02 0.  0.
         -6    2    1    2    0  502 -0.33305137627E+03 -0.18100846338E+03 -0.97239094239E+02  0.42754336893E+03  0.17219351850E+03 0.  0.
        -24    2    5    5    0    0 -0.21196135700E+03 -0.98774916935E+02 -0.12867355566E+03  0.27775897623E+03  0.76870435664E+02 0.  0.
          5    1    3    3  501    0  0.16867656225E+03  0.27369774345E+02  0.88976591293E+02  0.19271691934E+03  0.47000000000E+01 0. -1.
        -11    1    4    4    0    0  0.65550036571E+02  0.11250495333E+03  0.14408916514E+03  0.19420571395E+03  0.00000000000E+00 0.  1.
         12    1    4    4    0    0  0.98824777452E+02  0.41133735703E+02  0.83683896524E+02  0.13587242321E+03  0.00000000000E+00 0. -1.
         -5    1    5    5    0  502 -0.12109001928E+03 -0.82233546447E+02  0.31434461417E+02  0.14978439269E+03  0.47000000000E+01 0.  1.
         11    1    6    6    0    0 -0.19972235628E+03 -0.86800041550E+02 -0.90318873367E+02  0.23575573312E+03  0.00000000000E+00 0. -1.
        -12    1    6    6    0    0 -0.12239000716E+02 -0.11974875385E+02 -0.38354682289E+02  0.42003243119E+02  0.00000000000E+00 0.  1.
</event>
<event>
12    1  0.1061634E+000  0.1795750E+03  0.7818608E-02  0.1168745E+00
         21   -1    0    0  503  502  0.00000000000E+00  0.00000000000E+00  0.15520821935E+03  0.15520821935E+03  0.00000000000E+00 0.  1.
         21   -1    0    0  501  503 -0.00000000000E+00 -0.00000000000E+00 -0.22140164761E+03  0.22140164761E+03  0.00000000000E+00 0.  1.
          6    2    1    2  501    0 -0.38153227165E+02 -0.28332642376E+02  0.17549904222E+02  0.18043051155E+03  0.17317263927E+03 0.  0.
         24    2    3    3    0    0 -0.89658233667E+02 -0.25261984993E+02  0.31596163461E+02  0.12675014241E+03  0.79940692433E+02 0.  0.
         -6    2    1    2    0  502  0.38153227165E+02  0.28332642376E+02 -0.83743332477E+02  0.19617935541E+03  0.17092391988E+03 0.  0.
        -24    2    5    5    0    0  0.58916209683E+02  0.42485588001E+02  0.19206386159E+00  0.10843741520E+03  0.80513919143E+02 0.  0.
          5    1    3    3  501    0  0.51505006502E+02 -0.30706573828E+01 -0.14046259239E+02  0.53680369132E+02  0.47000000000E+01 0. -1.
        -11    1    4    4    0    0 -0.81387340756E+02  0.14032692762E+02  0.20725806214E+02  0.85149132378E+02  0.00000000000E+00 0.  1.
         12    1    4    4    0    0 -0.82708929107E+01 -0.39294677755E+02  0.10870357247E+02  0.41601010037E+02  0.00000000000E+00 0. -1.
         -5    1    5    5    0  502 -0.20762982518E+02 -0.14152945625E+02 -0.83935396339E+02  0.87741940208E+02  0.47000000000E+01 0.  1.
         11    1    6    6    0    0 -0.10603797166E+02 -0.98022922722E+01  0.14287521976E+02  0.20314003356E+02  0.00000000000E+00 0. -1.
        -12    1    6    6    0    0  0.69520006849E+02  0.52287880273E+02 -0.14095458114E+02  0.88123411845E+02  0.00000000000E+00 0.  1.
</event>
<event>
12    1  0.1061634E+000  0.2677027E+03  0.7818608E-02  0.1102655E+00
         21   -1    0    0  503  502  0.00000000000E+00  0.00000000000E+00  0.52026533455E+03  0.52026533455E+03  0.00000000000E+00 0. -1.
         21   -1    0    0  501  503 -0.00000000000E+00 -0.00000000000E+00 -0.14244919616E+03  0.14244919616E+03  0.00000000000E+00 0. -1.
          6    2    1    2  501    0  0.14674213761E+03  0.14258959505E+03  0.25044198681E+03  0.36658683588E+03  0.17262581476E+03 0.  0.
         24    2    3    3    0    0  0.63361217923E+01  0.30419643853E+02  0.59386077248E+02  0.10425041484E+03  0.79849493748E+02 0.  0.
         -6    2    1    2    0  502 -0.14674213761E+03 -0.14258959505E+03  0.12737415158E+03  0.29612769483E+03  0.17205344980E+03 0.  0.
        -24    2    5    5    0    0 -0.99372180551E+02 -0.12442642079E+02  0.65417632827E+02  0.14432900440E+03  0.80757323002E+02 0.  0.
          5    1    3    3  501    0  0.14040601582E+03  0.11216995120E+03  0.19105590956E+03  0.26233642104E+03  0.47000000000E+01 0. -1.
        -11    1    4    4    0    0 -0.41646869606E+01  0.15108794418E+01  0.71174189104E+02  0.71311938473E+02  0.00000000000E+00 0.  1.
         12    1    4    4    0    0  0.10500808753E+02  0.28908764411E+02 -0.11788111856E+02  0.32938476367E+02  0.00000000000E+00 0. -1.
         -5    1    5    5    0  502 -0.47369957056E+02 -0.13014695297E+03  0.61956518751E+02  0.15179869042E+03  0.47000000000E+01 0.  1.
         13    1    6    6    0    0 -0.47182422687E+01 -0.14935811599E+02  0.44751133199E+02  0.47413122665E+02  0.00000000000E+00 0. -1.
        -14    1    6    6    0    0 -0.94653938283E+02  0.24931695198E+01  0.20666499628E+02  0.96915881740E+02  0.00000000000E+00 0.  1.
</event>
<event>
12    1  0.1061634E+000  0.1859890E+03  0.7818608E-02  0.1162668E+00
         21   -1    0    0  501  502  0.00000000000E+00  0.00000000000E+00  0.12976343283E+03  0.12976343283E+03  0.00000000000E+00 0. -1.
         21   -1    0    0  502  503 -0.00000000000E+00 -0.00000000000E+00 -0.43475116229E+03  0.43475116229E+03  0.00000000000E+00 0. -1.
         -6    2    1    2    0  503 -0.25977446977E+02  0.60314674627E+02 -0.32918005866E+03  0.37695876854E+03  0.17153925041E+03 0.  0.
        -24    2    3    3    0    0 -0.40971929950E+02 -0.24987645281E+02 -0.22028132997E+03  0.23773828365E+03  0.75448961026E+02 0.  0.
          6    2    1    2  501    0  0.25977446977E+02 -0.60314674627E+02  0.24192329201E+02  0.18755582658E+03  0.17400928585E+03 0.  0.
         24    2    5    5    0    0 -0.34523453441E+02 -0.68351252593E+02  0.45198870126E+02  0.12283867044E+03  0.84750448530E+02 0.  0.
          5    1    5    5  501    0  0.60500900418E+02  0.80365779664E+01 -0.21006540925E+02  0.64717156137E+02  0.47000000000E+01 0. -1.
        -13    1    6    6    0    0 -0.11386947396E+02 -0.83764255122E+02  0.23992756066E+02  0.87873575953E+02  0.00000000000E+00 0.  1.
         14    1    6    6    0    0 -0.23136506045E+02  0.15413002529E+02  0.21206114060E+02  0.34965094486E+02  0.00000000000E+00 0. -1.
         -5    1    3    3    0  503  0.14994482973E+02  0.85302319908E+02 -0.10889872869E+03  0.13922048488E+03  0.47000000000E+01 0.  1.
         11    1    4    4    0    0 -0.49473966711E+02  0.11303177688E+02 -0.14716388622E+03  0.15566838027E+03  0.00000000000E+00 0. -1.
        -12    1    4    4    0    0  0.85020367612E+01 -0.36290822969E+02 -0.73117443752E+02  0.82069903386E+02  0.00000000000E+00 0.  1.
</event>
<event>
12    1  0.1061634E+000  0.1791641E+03  0.7818608E-02  0.1169230E+00
         21   -1    0    0  503  502  0.00000000000E+00  0.00000000000E+00  0.16961685975E+03  0.16961685975E+03  0.00000000000E+00 0. -1.
         21   -1    0    0  501  503 -0.00000000000E+00 -0.00000000000E+00 -0.46300807082E+03  0.46300807082E+03  0.00000000000E+00 0. -1.
          6    2    1    2  501    0 -0.37758053916E+02 -0.16790835052E+02  0.98112766825E+02  0.20207280479E+03  0.17175476891E+03 0.  0.
         24    2    3    3    0    0 -0.70181693898E+02 -0.29514784751E+02  0.11649063446E+03  0.16241139603E+03  0.83730525900E+02 0.  0.
         -6    2    1    2    0  502  0.37758053916E+02  0.16790835052E+02 -0.39150397789E+03  0.43055212578E+03  0.17433348941E+03 0.  0.
        -24    2    5    5    0    0  0.33895215979E+02 -0.13939763045E+02 -0.83968762259E+02  0.12142546884E+03  0.79688071802E+02 0.  0.
          5    1    3    3  501    0  0.32423639983E+02  0.12723949699E+02 -0.18377867636E+02  0.39661408756E+02  0.47000000000E+01 0. -1.
        -13    1    4    4    0    0 -0.23555443977E+02 -0.19307115933E+02 -0.59176678840E+01  0.31026479977E+02  0.00000000000E+00 0.  1.
         14    1    4    4    0    0 -0.46626249921E+02 -0.10207668818E+02  0.12240830235E+03  0.13138491606E+03  0.00000000000E+00 0. -1.
         -5    1    5    5    0  502  0.38628379369E+01  0.30730598097E+02 -0.30753521563E+03  0.30912665694E+03  0.47000000000E+01 0.  1.
         11    1    6    6    0    0 -0.22810808348E+02  0.11068429429E+02 -0.19388571418E+02  0.31918016999E+02  0.00000000000E+00 0. -1.
        -12    1    6    6    0    0  0.56706024327E+02 -0.25008192475E+02 -0.64580190841E+02  0.89507451840E+02  0.00000000000E+00 0.  1.
</event>
<event>
12    1  0.1061634E+000  0.1983124E+03  0.7818608E-02  0.1151303E+00
         21   -1    0    0  501  502  0.00000000000E+00  0.00000000000E+00  0.45018832557E+03  0.45018832557E+03  0.00000000000E+00 0.  1.
         21   -1    0    0  502  503 -0.00000000000E+00 -0.00000000000E+00 -0.12787079664E+03  0.12787079664E+03  0.00000000000E+00 0.  1.
         -6    2    1    2    0  503 -0.92497841534E+00  0.95490290996E+02  0.32421821363E+03  0.37973759655E+03  0.17310095588E+03 0.  0.
        -24    2    3    3    0    0 -0.15924590628E+02 -0.40580948211E+00  0.23126150356E+03  0.24526049664E+03  0.80106622174E+02 0.  0.
          6    2    1    2  501    0  0.92497841534E+00 -0.95490290996E+02 -0.19006846918E+01  0.19832152566E+03  0.17380610944E+03 0.  0.
         24    2    5    5    0    0 -0.22578737708E+02 -0.86574921263E+01  0.41593313342E+02  0.98290642952E+02  0.85710531505E+02 0.  0.
          5    1    5    5  501    0  0.23503716124E+02 -0.86832798870E+02 -0.43493998034E+02  0.10003088271E+03  0.47000000000E+01 0. -1.
        -11    1    6    6    0    0  0.15532470121E+02  0.30282682703E+02  0.21288789859E+02  0.40143630546E+02  0.00000000000E+00 0.  1.
         12    1    6    6    0    0 -0.38111207829E+02 -0.38940174829E+02  0.20304523483E+02  0.58147012407E+02  0.00000000000E+00 0. -1.
         -5    1    3    3    0  503  0.14999612212E+02  0.95896100478E+02  0.92956710065E+02  0.13447709991E+03  0.47000000000E+01 0.  1.
         13    1    4    4    0    0 -0.21797504505E+01  0.36830721918E+02  0.15449692787E+03  0.15884128591E+03  0.00000000000E+00 0. -1.
        -14    1    4    4    0    0 -0.13744840177E+02 -0.37236531400E+02  0.76764575689E+02  0.86419210728E+02  0.00000000000E+00 0.  1.
</event>
<event>
12    1  0.1061634E+000  0.1788815E+03  0.7818608E-02  0.1171946E+00
         21   -1    0    0  501  502  0.00000000000E+00  0.00000000000E+00  0.42882237946E+03  0.42882237946E+03  0.00000000000E+00 0. -1.
         21   -1    0    0  502  503 -0.00000000000E+00 -0.00000000000E+00 -0.74440514533E+02  0.74440514533E+02  0.00000000000E+00 0. -1.
         -6    2    1    2    0  503  0.24188866788E+02  0.40398604302E+02  0.10774325826E+03  0.19858406026E+03  0.16003084322E+03 0.  0.
        -24    2    3    3    0    0 -0.34432966178E+02  0.27716404304E+02  0.22653881441E+02  0.94374417979E+02  0.80246521403E+02 0.  0.
          6    2    1    2  501    0 -0.24188866788E+02 -0.40398604302E+02  0.24663860666E+03  0.30467883373E+03  0.17257300171E+03 0.  0.
         24    2    5    5    0    0 -0.72062430058E+02 -0.11687559388E+02  0.21512833240E+03  0.24040450336E+03  0.78641801634E+02 0.  0.
          5    1    5    5  501    0  0.47873563270E+02 -0.28711044914E+02  0.31510274263E+02  0.64274330369E+02  0.47000000000E+01 0. -1.
        -11    1    6    6    0    0 -0.22800209691E+02 -0.21470579271E+02  0.17007323689E+03  0.17293276509E+03  0.00000000000E+00 0.  1.
         12    1    6    6    0    0 -0.49262220367E+02  0.97830198832E+01  0.45055095512E+02  0.67471738269E+02  0.00000000000E+00 0. -1.
         -5    1    3    3    0  503  0.58621832966E+02  0.12682199998E+02  0.85089376818E+02  0.10420964228E+03  0.47000000000E+01 0.  1.
         11    1    4    4    0    0 -0.25601881619E+02 -0.18576916136E+02  0.33437281573E+02  0.46028360329E+02  0.00000000000E+00 0. -1.
        -12    1    4    4    0    0 -0.88310845586E+01  0.46293320441E+02 -0.10783400132E+02  0.48346057650E+02  0.00000000000E+00 0.  1.
</event>
<event>
12    1  0.1061634E+000  0.2545363E+03  0.7818608E-02  0.1110582E+00
         21   -1    0    0  501  502  0.00000000000E+00  0.00000000000E+00  0.99204535058E+02  0.99204535058E+02  0.00000000000E+00 0. -1.
         21   -1    0    0  502  503 -0.00000000000E+00 -0.00000000000E+00 -0.69463043149E+03  0.69463043149E+03  0.00000000000E+00 0. -1.
         -6    2    1    2    0  503  0.16434540218E+03  0.88632012105E+02 -0.19891546251E+03  0.32304192094E+03  0.17298461397E+03 0.  0.
        -24    2    3    3    0    0  0.11789326444E+03  0.46164060226E+01 -0.61927100832E+02  0.15569699451E+03  0.80538532866E+02 0.  0.
          6    2    1    2  501    0 -0.16434540218E+03 -0.88632012105E+02 -0.39651043392E+03  0.47079304561E+03  0.17193173878E+03 0.  0.
         24    2    5    5    0    0 -0.17282817676E+03 -0.10648755062E+03 -0.28445626444E+03  0.35691150796E+03  0.72534688341E+02 0.  0.
          5    1    5    5  501    0  0.84827745813E+01  0.17855538517E+02 -0.11205416948E+03  0.11388153765E+03  0.47000000000E+01 0. -1.
        -11    1    6    6    0    0 -0.12367398561E+03 -0.10001905757E+03 -0.25081603486E+03  0.29699789551E+03  0.00000000000E+00 0.  1.
         12    1    6    6    0    0 -0.49154191158E+02 -0.64684930494E+01 -0.33640229584E+02  0.59913612453E+02  0.00000000000E+00 0. -1.
         -5    1    3    3    0  503  0.46452137738E+02  0.84015606082E+02 -0.13698836168E+03  0.16734492643E+03  0.47000000000E+01 0.  1.
         13    1    4    4    0    0  0.10015414332E+02 -0.14957643992E+02 -0.40031690853E+02  0.43892777430E+02  0.00000000000E+00 0. -1.
        -14    1    4    4    0    0  0.10787785011E+03  0.19574050015E+02 -0.21895409980E+02  0.11180421708E+03  0.00000000000E+00 0.  1.
</event>
<event>
12    1  0.1061634E+000  0.2765485E+03  0.7818608E-02  0.1098162E+00
         21   -1    0    0  501  502  0.00000000000E+00  0.00000000000E+00  0.14006951199E+03  0.14006951199E+03  0.00000000000E+00 0.  1.
         21   -1    0    0  502  503 -0.00000000000E+00 -0.00000000000E+00 -0.57405100387E+03  0.57405100387E+03  0.00000000000E+00 0.  1.
         -6    2    1    2    0  503  0.11307059597E+03  0.18475005783E+03 -0.30501766120E+03  0.40897996292E+03  0.16526128672E+03 0.  0.
        -24    2    3    3    0    0  0.92543872962E+02  0.65237874890E+02 -0.22414448809E+03  0.26314763332E+03  0.78648436978E+02 0.  0.
          6    2    1    2  501    0 -0.11307059597E+03 -0.18475005783E+03 -0.12896383068E+03  0.30514055293E+03  0.17193470818E+03 0.  0.
         24    2    5    5    0    0 -0.59676808418E+02 -0.19719906847E+03 -0.94876699864E+02  0.24041113997E+03  0.79668902198E+02 0.  0.
          5    1    5    5  501    0 -0.53393787552E+02  0.12449010637E+02 -0.34087130815E+02  0.64729412960E+02  0.47000000000E+01 0. -1.
        -11    1    6    6    0    0 -0.56916981730E+02 -0.62264208309E+02 -0.22694962853E+02  0.87358089405E+02  0.00000000000E+00 0.  1.
         12    1    6    6    0    0 -0.27598266875E+01 -0.13493486016E+03 -0.72181737012E+02  0.15305305056E+03  0.00000000000E+00 0. -1.
         -5    1    3    3    0  503  0.20526723007E+02  0.11951218294E+03 -0.80873173114E+02  0.14583232960E+03  0.47000000000E+01 0.  1.
         11    1    4    4    0    0  0.73256672349E+02  0.80616303872E+02 -0.20415503648E+03  0.23139750953E+03  0.00000000000E+00 0. -1.
        -12    1    4    4    0    0  0.19287200614E+02 -0.15378428982E+02 -0.19989451603E+02  0.31750123793E+02  0.00000000000E+00 0.  1.
</event>
<event>
12    1  0.1061634E+000  0.2318889E+03  0.7818608E-02  0.1125428E+00
         21   -1    0    0  501  502  0.00000000000E+00  0.00000000000E+00  0.31038699511E+04  0.31038699511E+04  0.00000000000E+00 0.  1.
         21   -1    0    0  502  503 -0.00000000000E+00 -0.00000000000E+00 -0.17468886782E+02  0.17468886782E+02  0.00000000000E+00 0.  1.
         -6    2    1    2    0  503 -0.58643780564E+01 -0.15302248589E+03  0.13817315361E+04  0.14010547886E+04  0.17413273840E+03 0.  0.
        -24    2    3    3    0    0 -0.57925273618E+02 -0.61869749058E+02  0.93923428377E+03  0.94625256056E+03  0.77779594882E+02 0.  0.
          6    2    1    2  501    0  0.58643780564E+01  0.15302248589E+03  0.17046695282E+04  0.17202840493E+04  0.17328801976E+03 0.  0.
         24    2    5    5    0    0  0.20982985285E+02  0.52971824818E+02  0.12771649169E+04  0.12809425082E+04  0.80107330667E+02 0.  0.
          5    1    5    5  501    0 -0.15118607229E+02  0.10005066107E+03  0.42750461130E+03  0.43934154112E+03  0.47000000000E+01 0. -1.
        -13    1    6    6    0    0 -0.30685702149E+02  0.15261447459E+02  0.42359277754E+03  0.42497689970E+03  0.00000000000E+00 0.  1.
         14    1    6    6    0    0  0.51668687434E+02  0.37710377359E+02  0.85357213936E+03  0.85596560849E+03  0.00000000000E+00 0. -1.
         -5    1    3    3    0  503  0.52060895562E+02 -0.91152736834E+02  0.44249725236E+03  0.45480222803E+03  0.47000000000E+01 0.  1.
         13    1    4    4    0    0 -0.49653800508E+02 -0.79790735483E+02  0.82376828297E+03  0.82911172070E+03  0.00000000000E+00 0. -1.
        -14    1    4    4    0    0 -0.82714731105E+01  0.17920986425E+02  0.11546600080E+03  0.11714083985E+03  0.00000000000E+00 0.  1.
</event>
<event>
12    1  0.1061634E+000  0.2826935E+03  0.7818608E-02  0.1094787E+00
         21   -1    0    0  503  502  0.00000000000E+00  0.00000000000E+00  0.13715552764E+04  0.13715552764E+04  0.00000000000E+00 0.  1.
         21   -1    0    0  501  503 -0.00000000000E+00 -0.00000000000E+00 -0.63325819527E+02  0.63325819527E+02  0.00000000000E+00 0.  1.
          6    2    1    2  501    0 -0.21797536330E+03 -0.36469145164E+02  0.86884864461E+03  0.91241473957E+03  0.16958606128E+03 0.  0.
         24    2    3    3    0    0 -0.12195638369E+03  0.40558119480E+02  0.55454647449E+03  0.57483395207E+03  0.79962237993E+02 0.  0.
         -6    2    1    2    0  502  0.21797536330E+03  0.36469145164E+02  0.43938081231E+03  0.52246635641E+03  0.17627347447E+03 0.  0.
        -24    2    5    5    0    0  0.15257412999E+03 -0.23014961548E+02  0.37360287706E+03  0.41217353237E+03  0.80618592410E+02 0.  0.
          5    1    3    3  501    0 -0.96018979609E+02 -0.77027264644E+02  0.31430217013E+03  0.33758078750E+03  0.47000000000E+01 0. -1.
        -11    1    4    4    0    0 -0.67896023028E+02  0.18113422586E+02  0.14505196911E+03  0.16117704478E+03  0.00000000000E+00 0.  1.
         12    1    4    4    0    0 -0.54060360658E+02  0.22444696894E+02  0.40949450538E+03  0.41365690729E+03  0.00000000000E+00 0. -1.
         -5    1    5    5    0  502  0.65401233301E+02  0.59484106711E+02  0.65777935249E+02  0.11029282404E+03  0.47000000000E+01 0.  1.
         13    1    6    6    0    0  0.79600650835E+01 -0.17647414833E+02  0.12222759642E+02  0.22895190318E+02  0.00000000000E+00 0. -1.
        -14    1    6    6    0    0  0.14461406491E+03 -0.53675467147E+01  0.36138011742E+03  0.38927834205E+03  0.00000000000E+00 0.  1.
</event>
<event>
12    1  0.1061634E+000  0.2503485E+03  0.7818608E-02  0.1113164E+00
         21   -1    0    0  501  502  0.00000000000E+00  0.00000000000E+00  0.74332508896E+03  0.74332508896E+03  0.00000000000E+00 0. -1.
         21   -1    0    0  502  503 -0.00000000000E+00 -0.00000000000E+00 -0.86825748624E+02  0.86825748624E+02  0.00000000000E+00 0. -1.
         -6    2    1    2    0  503  0.18106664205E+03 -0.42396289023E+01  0.40147109418E+03  0.47313147931E+03  0.17283302327E+03 0.  0.
        -24    2    3    3    0    0  0.69533834401E+02 -0.57755349063E+02  0.24748167137E+03  0.27555027620E+03  0.80685454539E+02 0.  0.
          6    2    1    2  501    0 -0.18106664205E+03  0.42396289023E+01  0.25502824615E+03  0.35701935827E+03  0.17210552731E+03 0.  0.
         24    2    5    5    0    0 -0.88227990232E+02 -0.22590297521E+02  0.49828790111E+02  0.13015427285E+03  0.78503035711E+02 0.  0.
          5    1    5    5  501    0 -0.92838651815E+02  0.26829926423E+02  0.20519945604E+03  0.22686508542E+03  0.47000000000E+01 0. -1.
        -11    1    6    6    0    0  0.23614639532E+01 -0.27098043235E+02  0.11722142143E+01  0.27225990254E+02  0.00000000000E+00 0.  1.
         12    1    6    6    0    0 -0.90589454186E+02  0.45077457135E+01  0.48656575897E+02  0.10292828260E+03  0.00000000000E+00 0. -1.
         -5    1    3    3    0  503  0.11153280765E+03  0.53515720161E+02  0.15398942281E+03  0.19758120311E+03  0.47000000000E+01 0.  1.
         11    1    4    4    0    0  0.13080015594E+02  0.17987400119E+02  0.22964530652E+02  0.31968782258E+02  0.00000000000E+00 0. -1.
        -12    1    4    4    0    0  0.56453818807E+02 -0.75742749182E+02  0.22451714072E+03  0.24358149394E+03  0.00000000000E+00 0.  1.
</event>
<event>
12    1  0.1061634E+000  0.3281424E+03  0.7818608E-02  0.1072000E+00
         21   -1    0    0  501  502  0.00000000000E+00  0.00000000000E+00  0.10448133743E+04  0.10448133743E+04  0.00000000000E+00 0. -1.
         21   -1    0    0  502  503 -0.00000000000E+00 -0.00000000000E+00 -0.12045358972E+03  0.12045358972E+03  0.00000000000E+00 0. -1.
         -6    2    1    2    0  503 -0.23678127325E+03 -0.14634555165E+03  0.68405989563E+03  0.75854654989E+03  0.17312577999E+03 0.  0.
        -24    2    3    3    0    0 -0.13445731864E+03 -0.14482770341E+03  0.54774493729E+03  0.58802865225E+03  0.81849528601E+02 0.  0.
          6    2    1    2  501    0  0.23678127325E+03  0.14634555165E+03  0.24029988900E+03  0.40672041418E+03  0.17376727772E+03 0.  0.
         24    2    5    5    0    0  0.15053852851E+03  0.77173794659E+02  0.22827558687E+03  0.29541355533E+03  0.80881283141E+02 0.  0.
          5    1    5    5  501    0  0.86242744741E+02  0.69171756995E+02  0.12024302130E+02  0.11130685885E+03  0.47000000000E+01 0. -1.
        -11    1    6    6    0    0  0.82563368791E+02  0.66839308817E+02  0.18743091464E+03  0.21544036491E+03  0.00000000000E+00 0.  1.
         12    1    6    6    0    0  0.67975159715E+02  0.10334485842E+02  0.40844672230E+02  0.79973190417E+02  0.00000000000E+00 0. -1.
         -5    1    3    3    0  503 -0.10232395460E+03 -0.15178482461E+01  0.13631495834E+03  0.17051789764E+03  0.47000000000E+01 0.  1.
         11    1    4    4    0    0 -0.17053477297E+02 -0.55591391303E+02  0.90311522202E+02  0.10741226614E+03  0.00000000000E+00 0. -1.
        -12    1    4    4    0    0 -0.11740384135E+03 -0.89236312104E+02  0.45743341509E+03  0.48061638611E+03  0.00000000000E+00 0.  1.
</event>
<event>
12    1  0.1061634E+000  0.1782874E+03  0.7818608E-02  0.1170090E+00
         21   -1    0    0  503  502  0.00000000000E+00  0.00000000000E+00  0.15740538915E+03  0.15740538915E+03  0.00000000000E+00 0.  1.
         21   -1    0    0  501  503 -0.00000000000E+00 -0.00000000000E+00 -0.20565876838E+03  0.20565876838E+03  0.00000000000E+00 0.  1.
          6    2    1    2  501    0  0.17695769925E+02 -0.38261408631E+02  0.81045314716E+01  0.17847147265E+03  0.17323194698E+03 0.  0.
         24    2    3    3    0    0 -0.41745255132E+02  0.27235756636E+02  0.94360594944E+01  0.89888307853E+02  0.74205228281E+02 0.  0.
         -6    2    1    2    0  502 -0.17695769925E+02  0.38261408631E+02 -0.56357910700E+02  0.18459268488E+03  0.17064925886E+03 0.  0.
        -24    2    5    5    0    0 -0.65365325715E+02  0.13480800040E+02  0.41006913932E+01  0.10357541710E+03  0.79099264111E+02 0.  0.
          5    1    3    3  501    0  0.59441025057E+02 -0.65497165267E+02 -0.13315280228E+01  0.88583164793E+02  0.47000000000E+01 0. -1.
        -11    1    4    4    0    0  0.17596505473E+02  0.24867429439E+01  0.17677729370E+02  0.25066372115E+02  0.00000000000E+00 0.  1.
         12    1    4    4    0    0 -0.59341760605E+02  0.24749013692E+02 -0.82416698751E+01  0.64821935738E+02  0.00000000000E+00 0. -1.
         -5    1    5    5    0  502  0.47669555789E+02  0.24780608590E+02 -0.60458602093E+02  0.81017267778E+02  0.47000000000E+01 0.  1.
         13    1    6    6    0    0  0.16346566956E+02  0.13973056137E+02  0.39350961512E+01  0.21861873908E+02  0.00000000000E+00 0. -1.
        -14    1    6    6    0    0 -0.81711892671E+02 -0.49225609634E+00  0.16559524197E+00  0.81713543196E+02  0.00000000000E+00 0.  1.
</event>
<event>
12    1  0.1061634E+000  0.2078116E+03  0.7818608E-02  0.1143714E+00
         21   -1    0    0  503  502  0.00000000000E+00  0.00000000000E+00  0.97509846657E+02  0.97509846657E+02  0.00000000000E+00 0. -1.
         21   -1    0    0  501  503 -0.00000000000E+00 -0.00000000000E+00 -0.46020617197E+03  0.46020617197E+03  0.00000000000E+00 0. -1.
          6    2    1    2  501    0  0.11434520987E+03 -0.73628012192E+01 -0.24256137141E+03  0.31940835330E+03  0.17336850750E+03 0.  0.
         24    2    3    3    0    0  0.13155173366E+02  0.44381402976E+02 -0.12555753316E+03  0.15622479309E+03  0.80614665703E+02 0.  0.
         -6    2    1    2    0  502 -0.11434520987E+03  0.73628012192E+01 -0.12013495390E+03  0.23830766533E+03  0.17096519629E+03 0.  0.
        -24    2    5    5    0    0 -0.81236837932E+02 -0.29667337641E+02 -0.11429393937E+02  0.11869836701E+03  0.80492835244E+02 0.  0.
          5    1    3    3  501    0  0.10119003651E+03 -0.51744204196E+02 -0.11700383826E+03  0.16318356021E+03  0.47000000000E+01 0. -1.
        -11    1    4    4    0    0 -0.23999817784E+01 -0.20180351462E+02 -0.58152148457E+02  0.61600964829E+02  0.00000000000E+00 0.  1.
         12    1    4    4    0    0  0.15555155144E+02  0.64561754439E+02 -0.67405384701E+02  0.94623828259E+02  0.00000000000E+00 0. -1.
         -5    1    5    5    0  502 -0.33108371943E+02  0.37030138860E+02 -0.10870555996E+03  0.11960929831E+03  0.47000000000E+01 0.  1.
         11    1    6    6    0    0 -0.40298898058E+02 -0.53496413403E+02 -0.21360540052E+02  0.70300356350E+02  0.00000000000E+00 0. -1.
        -12    1    6    6    0    0 -0.40937939874E+02  0.23829075762E+02  0.99311461150E+01  0.48398010662E+02  0.00000000000E+00 0.  1.
</event>
<event>
12    1  0.1061634E+000  0.2193318E+03  0.7818608E-02  0.1134726E+00
         21   -1    0    0  503  502  0.00000000000E+00  0.00000000000E+00  0.22893519332E+03  0.22893519332E+03  0.00000000000E+00 0. -1.
         21   -1    0    0  501  503 -0.00000000000E+00 -0.00000000000E+00 -0.21043362368E+03  0.21043362368E+03  0.00000000000E+00 0. -1.
          6    2    1    2  501    0 -0.13408114617E+03  0.22132870811E+02 -0.12387860753E+02  0.21968136937E+03  0.17215930770E+03 0.  0.
         24    2    3    3    0    0 -0.11488985725E+03 -0.46973567295E+02 -0.43232158173E+01  0.14735479157E+03  0.79300372518E+02 0.  0.
         -6    2    1    2    0  502  0.13408114617E+03 -0.22132870811E+02  0.30889430387E+02  0.21968744763E+03  0.16982579312E+03 0.  0.
        -24    2    5    5    0    0  0.15251795973E+02 -0.25712386897E+02 -0.25397007138E+02  0.88068754231E+02  0.78850195814E+02 0.  0.
          5    1    3    3  501    0 -0.19191288921E+02  0.69106438107E+02 -0.80646449360E+01  0.72326577799E+02  0.47000000000E+01 0. -1.
        -11    1    4    4    0    0 -0.11561192379E+03 -0.16919656594E+02  0.87146982926E+00  0.11684669941E+03  0.00000000000E+00 0.  1.
         12    1    4    4    0    0  0.72206654831E+00 -0.30053910701E+02 -0.51946856466E+01  0.30508092164E+02  0.00000000000E+00 0. -1.
         -5    1    5    5    0  502  0.11882935019E+03  0.35795160853E+01  0.56286437525E+02  0.13161869340E+03  0.47000000000E+01 0.  1.
         13    1    6    6    0    0 -0.11474096882E+02  0.18085329841E+02 -0.29659002105E+02  0.36584019197E+02  0.00000000000E+00 0. -1.
        -14    1    6    6    0    0  0.26725892855E+02 -0.43797716738E+02  0.42619949676E+01  0.51484735034E+02  0.00000000000E+00 0.  1.
</event>
<event>
12    1  0.1061634E+000  0.2188849E+03  0.7818608E-02  0.1136156E+00
         21   -1    0    0  501  502  0.00000000000E+00  0.00000000000E+00  0.24855979369E+03  0.24855979369E+03  0.00000000000E+00 0. -1.
         21   -1    0    0  502  503 -0.00000000000E+00 -0.00000000000E+00 -0.20956726582E+03  0.20956726582E+03  0.00000000000E+00 0. -1.
         -6    2    1    2    0  503 -0.69013272232E+01  0.12410415777E+03  0.95700618086E+02  0.23201557107E+03  0.17094778918E+03 0.  0.
        -24    2    3    3    0    0  0.90219508875E+01  0.98455737066E+02  0.13324232142E+03  0.18361245382E+03  0.78645338204E+02 0.  0.
          6    2    1    2  501    0  0.69013272232E+01 -0.12410415777E+03 -0.56708090211E+02  0.22611148844E+03  0.18016971836E+03 0.  0.
         24    2    5    5    0    0 -0.20247863048E+02 -0.13090228739E+03  0.64769423123E+01  0.15684583004E+03  0.83745321162E+02 0.  0.
          5    1    5    5  501    0  0.27149190271E+02  0.67981296205E+01 -0.63185032524E+02  0.69265658401E+02  0.47000000000E+01 0. -1.
        -11    1    6    6    0    0 -0.26964785927E+02 -0.11607707094E+03  0.34829764171E+02  0.12415352814E+03  0.00000000000E+00 0.  1.
         12    1    6    6    0    0  0.67169228792E+01 -0.14825216449E+02 -0.28352821859E+02  0.32692301894E+02  0.00000000000E+00 0. -1.
         -5    1    3    3    0  503 -0.15923278111E+02  0.25648420704E+02 -0.37541703335E+02  0.48403117252E+02  0.47000000000E+01 0.  1.
         11    1    4    4    0    0 -0.11940344618E+02  0.99538838061E+02  0.86647198596E+02  0.13250769463E+03  0.00000000000E+00 0. -1.
        -12    1    4    4    0    0  0.20962295506E+02 -0.10831009947E+01  0.46595122826E+02  0.51104759189E+02  0.00000000000E+00 0.  1.
</event>
<event>
12    1  0.1061634E+000  0.2103000E+03  0.7818608E-02  0.1141409E+00
         21   -1    0    0  503  502  0.00000000000E+00  0.00000000000E+00  0.92923032799E+02  0.92923032799E+02  0.00000000000E+00 0.  1.
         21   -1    0    0  501  503 -0.00000000000E+00 -0.00000000000E+00 -0.47535888709E+03  0.47535888709E+03  0.00000000000E+00 0.  1.
          6    2    1    2  501    0  0.44291859331E+02 -0.11341521980E+03 -0.18346179606E+03  0.27877069465E+03  0.17096809263E+03 0.  0.
         24    2    3    3    0    0 -0.13691704862E+01 -0.13388880724E+03 -0.11170066985E+03  0.19115878529E+03  0.78336161608E+02 0.  0.
         -6    2    1    2    0  502 -0.44291859331E+02  0.11341521980E+03 -0.19897405823E+03  0.28951122523E+03  0.17146805184E+03 0.  0.
        -24    2    5    5    0    0  0.14917010759E+02  0.55839742506E+02 -0.33373748512E+02  0.10439996555E+03  0.80280456305E+02 0.  0.
          5    1    3    3  501    0  0.45661029817E+02  0.20473587440E+02 -0.71761126214E+02  0.87611909363E+02  0.47000000000E+01 0. -1.
        -13    1    4    4    0    0 -0.24478347499E+01  0.98688495480E+01 -0.20977078179E+01  0.10382026028E+02  0.00000000000E+00 0.  1.
         14    1    4    4    0    0  0.10786642637E+01 -0.14375765679E+03 -0.10960296203E+03  0.18077675926E+03  0.00000000000E+00 0. -1.
         -5    1    5    5    0  502 -0.59208870089E+02  0.57575477298E+02 -0.16560030971E+03  0.18511125968E+03  0.47000000000E+01 0.  1.
         11    1    6    6    0    0  0.24936525977E+02  0.20126706940E+02 -0.53377271843E+02  0.62257913630E+02  0.00000000000E+00 0. -1.
        -12    1    6    6    0    0 -0.10019515218E+02  0.35713035566E+02  0.20003523332E+02  0.42142051923E+02  0.00000000000E+00 0.  1.
</event>
<event>
12    1  0.1061634E+000  0.2668869E+03  0.7818608E-02  0.1103120E+00
         21   -1    0    0  503  502  0.00000000000E+00  0.00000000000E+00  0.28705055616E+03  0.28705055616E+03  0.00000000000E+00 0. -1.
         21   -1    0    0  501  503 -0.00000000000E+00 -0.00000000000E+00 -0.25171244877E+03  0.25171244877E+03  0.00000000000E+00 0. -1.
          6    2    1    2  501    0 -0.15220779698E+03 -0.13565394344E+03 -0.15702841747E+02  0.26734842728E+03  0.17221903640E+03 0.  0.
         24    2    3    3    0    0 -0.16022853356E+03 -0.12202957239E+03 -0.54471091500E+02  0.22521740676E+03  0.84802010542E+02 0.  0.
         -6    2    1    2    0  502  0.15220779698E+03  0.13565394344E+03  0.51040949133E+02  0.27141457765E+03  0.17173086106E+03 0.  0.
        -24    2    5    5    0    0  0.10953612378E+03  0.14175380336E+02  0.88507799483E+01  0.13584166972E+03  0.78584471158E+02 0.  0.
          5    1    3    3  501    0  0.80207365815E+01 -0.13624371054E+02  0.38768249753E+02  0.42131020529E+02  0.47000000000E+01 0. -1.
        -13    1    4    4    0    0 -0.16714669706E+03 -0.10205982020E+03 -0.56908599058E+02  0.20394316337E+03  0.00000000000E+00 0.  1.
         14    1    4    4    0    0  0.69181634990E+01 -0.19969752188E+02  0.24375075580E+01  0.21274243388E+02  0.00000000000E+00 0. -1.
         -5    1    5    5    0  502  0.42671673198E+02  0.12147856311E+03  0.42190169185E+02  0.13557290793E+03  0.47000000000E+01 0.  1.
         13    1    6    6    0    0  0.40933022153E+02  0.99662092679E+01  0.42039559031E+02  0.59516066346E+02  0.00000000000E+00 0. -1.
        -14    1    6    6    0    0  0.68603101628E+02  0.42091710678E+01 -0.33188779083E+02  0.76325603378E+02  0.00000000000E+00 0.  1.
</event>
<event>
12    1  0.1061634E+000  0.1725633E+03  0.7818608E-02  0.1176781E+00
         21   -1    0    0  501  502  0.00000000000E+00  0.00000000000E+00  0.19076100710E+02  0.19076100710E+02  0.00000000000E+00 0.  1.
         21   -1    0    0  502  503 -0.00000000000E+00 -0.00000000000E+00 -0.15124747803E+04  0.15124747803E+04  0.00000000000E+00 0.  1.
         -6    2    1    2    0  503 -0.43424780173E+00  0.11608935198E+02 -0.68587913928E+03  0.70579916793E+03  0.16609429793E+03 0.  0.
        -24    2    3    3    0    0  0.10276389797E+02  0.37190345281E+02 -0.19112499980E+03  0.21024606802E+03  0.78650604575E+02 0.  0.
          6    2    1    2  501    0  0.43424780173E+00 -0.11608935198E+02 -0.80751954036E+03  0.82575171312E+03  0.17217179712E+03 0.  0.
         24    2    5    5    0    0 -0.39978211101E+02 -0.61218870407E+02 -0.55986431679E+03  0.56992069025E+03  0.77559863985E+02 0.  0.
          5    1    5    5  501    0  0.40412458903E+02  0.49609935209E+02 -0.24765522357E+03  0.25583102288E+03  0.47000000000E+01 0. -1.
        -13    1    6    6    0    0 -0.13360547080E+02  0.16489026338E+02 -0.67682329621E+02  0.70931586411E+02  0.00000000000E+00 0.  1.
         14    1    6    6    0    0 -0.26617664020E+02 -0.77707896745E+02 -0.49218198717E+03  0.49898910384E+03  0.00000000000E+00 0. -1.
         -5    1    3    3    0  503 -0.10710637599E+02 -0.25581410083E+02 -0.49475413948E+03  0.49555309991E+03  0.47000000000E+01 0.  1.
         11    1    4    4    0    0  0.17369572920E+02 -0.13698123143E+02 -0.14869169154E+02  0.26653945906E+02  0.00000000000E+00 0. -1.
        -12    1    4    4    0    0 -0.70931831228E+01  0.50888468424E+02 -0.17625583065E+03  0.18359212211E+03  0.00000000000E+00 0.  1.
</event>
<event>
12    1  0.1061634E+000  0.1905546E+03  0.7818608E-02  0.1158554E+00
         21   -1    0    0  503  502  0.00000000000E+00  0.00000000000E+00  0.49370783474E+03  0.49370783474E+03  0.00000000000E+00 0. -1.
         21   -1    0    0  501  503 -0.00000000000E+00 -0.00000000000E+00 -0.72620892666E+02  0.72620892666E+02  0.00000000000E+00 0. -1.
          6    2    1    2  501    0 -0.25247241554E+02  0.76830755708E+02  0.22139465589E+03  0.29210726670E+03  0.17254180182E+03 0.  0.
         24    2    3    3    0    0  0.34381146092E+02  0.57923850711E+02  0.64229536402E+02  0.12288557644E+03  0.80238369024E+02 0.  0.
         -6    2    1    2    0  502  0.25247241554E+02 -0.76830755708E+02  0.19969228618E+03  0.27422146071E+03  0.16964672741E+03 0.  0.
        -24    2    5    5    0    0  0.35956507789E+02 -0.10480318043E+03  0.20401315424E+03  0.24359622881E+03  0.73764344398E+02 0.  0.
          5    1    3    3  501    0 -0.59628387646E+02  0.18906904997E+02  0.15716511949E+03  0.16922169026E+03  0.47000000000E+01 0. -1.
        -13    1    4    4    0    0 -0.11197383853E+02  0.36857896080E+02 -0.33810981968E+01  0.38669338417E+02  0.00000000000E+00 0.  1.
         14    1    4    4    0    0  0.45578529945E+02  0.21065954632E+02  0.67610634599E+02  0.84216238027E+02  0.00000000000E+00 0. -1.
         -5    1    5    5    0  502 -0.10709266234E+02  0.27972424721E+02 -0.43208680601E+01  0.30625231898E+02  0.47000000000E+01 0.  1.
         13    1    6    6    0    0  0.54928996355E+02 -0.47156901004E+02  0.10860581389E+03  0.13052275956E+03  0.00000000000E+00 0. -1.
        -14    1    6    6    0    0 -0.18972488567E+02 -0.57646279425E+02  0.95407340357E+02  0.11307346925E+03  0.00000000000E+00 0.  1.
</event>
<event>
12    1  0.1061634E+000  0.3447551E+03  0.7818608E-02  0.1064860E+00
         21   -1    0    0  503  502  0.00000000000E+00  0.00000000000E+00  0.24011909576E+03  0.24011909576E+03  0.00000000000E+00 0. -1.
         21   -1    0    0  501  503 -0.00000000000E+00 -0.00000000000E+00 -0.52791192319E+03  0.52791192319E+03  0.00000000000E+00 0. -1.
          6    2    1    2  501    0  0.81865874634E+02  0.28617993841E+03 -0.46440208338E+02  0.34718999363E+03  0.17257815663E+03 0.  0.
         24    2    3    3    0    0  0.59762464570E+02  0.76192976063E+02 -0.53658531005E+02  0.13586730371E+03  0.78763979678E+02 0.  0.
         -6    2    1    2    0  502 -0.81865874634E+02 -0.28617993841E+03 -0.24135261909E+03  0.42084102532E+03  0.17393994156E+03 0.  0.
        -24    2    5    5    0    0  0.17629991577E+02 -0.11186055550E+03 -0.59336346602E+02  0.14984529084E+03  0.78161427065E+02 0.  0.
          5    1    3    3  501    0  0.22103410063E+02  0.20998696235E+03  0.72183226670E+01  0.21132268992E+03  0.47000000000E+01 0. -1.
        -13    1    4    4    0    0  0.31446472941E+02  0.82127238586E+02 -0.17683303324E+02  0.89702080214E+02  0.00000000000E+00 0.  1.
         14    1    4    4    0    0  0.28315991629E+02 -0.59342625235E+01 -0.35975227681E+02  0.46165223495E+02  0.00000000000E+00 0. -1.
         -5    1    5    5    0  502 -0.99495866211E+02 -0.17431938291E+03 -0.18201627249E+03  0.27099573448E+03  0.47000000000E+01 0.  1.
         13    1    6    6    0    0 -0.17452620279E+02 -0.59078824252E+02  0.20168705328E+01  0.61635778541E+02  0.00000000000E+00 0. -1.
        -14    1    6    6    0    0  0.35082611857E+02 -0.52781731243E+02 -0.61353217135E+02  0.88209512302E+02  0.00000000000E+00 0.  1.
</event>
<event>
12    1  0.1061634E+000  0.1778825E+03  0.7818608E-02  0.1170387E+00
         21   -1    0    0  501  502  0.00000000000E+00  0.00000000000E+00  0.45603954805E+03  0.45603954805E+03  0.00000000000E+00 0.  1.
         21   -1    0    0  502  503 -0.00000000000E+00 -0.00000000000E+00 -0.71302692812E+02  0.71302692812E+02  0.00000000000E+00 0.  1.
         -6    2    1    2    0  503 -0.34947284092E+02 -0.13287452230E+02  0.13965049132E+03  0.22450644733E+03  0.17176442039E+03 0.  0.
        -24    2    3    3    0    0  0.38683861880E+02  0.21199041582E+02  0.62364256515E+02  0.11222948618E+03  0.82221144142E+02 0.  0.
          6    2    1    2  501    0  0.34947284092E+02  0.13287452230E+02  0.24508636391E+03  0.30283579354E+03  0.17390895037E+03 0.  0.
         24    2    5    5    0    0 -0.23623090202E+02 -0.80847547937E+01  0.88678803652E+02  0.13439388995E+03  0.97848729102E+02 0.  0.
          5    1    5    5  501    0  0.58570374294E+02  0.21372207024E+02  0.15640756026E+03  0.16844190359E+03  0.47000000000E+01 0. -1.
        -13    1    6    6    0    0 -0.10115268184E+02  0.24765507239E+02  0.94666460738E+02  0.98373714924E+02  0.00000000000E+00 0.  1.
         14    1    6    6    0    0 -0.13507822018E+02 -0.32850262033E+02 -0.59876570856E+01  0.36020175023E+02  0.00000000000E+00 0. -1.
         -5    1    3    3    0  503 -0.73631145972E+02 -0.34486493812E+02  0.77286234809E+02  0.11227696114E+03  0.47000000000E+01 0.  1.
         11    1    4    4    0    0  0.26557358130E+02  0.18381744573E+01  0.79392277267E+02  0.83736526354E+02  0.00000000000E+00 0. -1.
        -12    1    4    4    0    0  0.12126503750E+02  0.19360867125E+02 -0.17028020752E+02  0.28492959828E+02  0.00000000000E+00 0.  1.
</event>
<event>
12    1  0.1061634E+000  0.1779760E+03  0.7818608E-02  0.1170167E+00
         21   -1    0    0  501  502  0.00000000000E+00  0.00000000000E+00  0.14597973859E+02  0.14597973859E+02  0.00000000000E+00 0. -1.
         21   -1    0    0  502  503 -0.00000000000E+00 -0.00000000000E+00 -0.22042852545E+04  0.22042852545E+04  0.00000000000E+00 0. -1.
         -6    2    1    2    0  503  0.40402771600E+02  0.21301102697E+00 -0.91693546661E+03  0.93374796873E+03  0.17170378520E+03 0.  0.
        -24    2    3    3    0    0 -0.30511691635E+02 -0.22155646926E+02 -0.31703290539E+03  0.32923627247E+03  0.80404129209E+02 0.  0.
          6    2    1    2  501    0 -0.40402771600E+02 -0.21301102697E+00 -0.12727518140E+04  0.12851352596E+04  0.17332924190E+03 0.  0.
         24    2    5    5    0    0 -0.17383163269E+02  0.60363920930E+02 -0.10129948770E+04  0.10173756223E+04  0.70345992666E+02 0.  0.
          5    1    5    5  501    0 -0.23019608331E+02 -0.60576931957E+02 -0.25975693704E+03  0.26775963735E+03  0.47000000000E+01 0. -1.
        -13    1    6    6    0    0 -0.15652130216E+02  0.52793263191E+01 -0.65100028956E+03  0.65120982600E+03  0.00000000000E+00 0.  1.
         14    1    6    6    0    0 -0.17310330529E+01  0.55084594611E+02 -0.36199458744E+03  0.36616579629E+03  0.00000000000E+00 0. -1.
         -5    1    3    3    0  503  0.70914463235E+02  0.22368657953E+02 -0.59990256122E+03  0.60451169626E+03  0.47000000000E+01 0.  1.
         13    1    4    4    0    0 -0.35677162408E+02  0.22752344616E+02 -0.12551217940E+03  0.13245314749E+03  0.00000000000E+00 0. -1.
        -14    1    4    4    0    0  0.51654707733E+01 -0.44907991543E+02 -0.19152072599E+03  0.19678312498E+03  0.00000000000E+00 0.  1.
</event>
<event>
12    1  0.1061634E+000  0.2886681E+03  0.7818608E-02  0.1091148E+00
         21   -1    0    0  503  502  0.00000000000E+00  0.00000000000E+00  0.91102834137E+03  0.91102834137E+03  0.00000000000E+00 0.  1.
         21   -1    0    0  501  503 -0.00000000000E+00 -0.00000000000E+00 -0.91254152143E+02  0.91254152143E+02  0.00000000000E+00 0.  1.
          6    2    1    2  501    0  0.18329478462E+03  0.14078117201E+03  0.40010875037E+03  0.49292177813E+03  0.17166406370E+03 0.  0.
         24    2    3    3    0    0  0.16924642005E+02  0.45790471990E+02  0.98483099391E+02  0.13556707930E+03  0.79349236240E+02 0.  0.
         -6    2    1    2    0  502 -0.18329478462E+03 -0.14078117201E+03  0.41966543886E+03  0.50936071539E+03  0.17295358149E+03 0.  0.
        -24    2    5    5    0    0 -0.14144920735E+03 -0.69903675482E+02  0.16645580722E+03  0.24306787018E+03  0.80498768031E+02 0.  0.
          5    1    3    3  501    0  0.16637014262E+03  0.94990700016E+02  0.30162565098E+03  0.35735469883E+03  0.47000000000E+01 0. -1.
        -13    1    4    4    0    0  0.97309434400E+01 -0.14644581031E+02  0.62362727164E+02  0.64794017881E+02  0.00000000000E+00 0.  1.
         14    1    4    4    0    0  0.71936985650E+01  0.60435053021E+02  0.36120372227E+02  0.70773061418E+02  0.00000000000E+00 0. -1.
         -5    1    5    5    0  502 -0.41845577274E+02 -0.70877496524E+02  0.25320963164E+03  0.26629284521E+03  0.47000000000E+01 0.  1.
         13    1    6    6    0    0 -0.38097373030E+00 -0.25367574016E+02  0.45023258539E+02  0.51679326253E+02  0.00000000000E+00 0. -1.
        -14    1    6    6    0    0 -0.14106823362E+03 -0.44536101466E+02  0.12143254868E+03  0.19138854393E+03  0.00000000000E+00 0.  1.
</event>
<event>
12    1  0.1061634E+000  0.2068090E+03  0.7818608E-02  0.1144491E+00
         21   -1    0    0  501  502  0.00000000000E+00  0.00000000000E+00  0.65324344442E+03  0.65324344442E+03  0.00000000000E+00 0.  1.
         21   -1    0    0  502  503 -0.00000000000E+00 -0.00000000000E+00 -0.77290447761E+02  0.77290447761E+02  0.00000000000E+00 0.  1.
         -6    2    1    2    0  503  0.10783991183E+03  0.34101670415E+02  0.14061133834E+03  0.24856673546E+03  0.17094298172E+03 0.  0.
        -24    2    3    3    0    0  0.97671174373E+02  0.85337417105E+02  0.11266746581E+03  0.18914068921E+03  0.79108213243E+02 0.  0.
          6    2    1    2  501    0 -0.10783991183E+03 -0.34101670415E+02  0.43534165832E+03  0.48196715672E+03  0.17314043487E+03 0.  0.
         24    2    5    5    0    0 -0.10105996747E+03 -0.80695594943E+01  0.15956312999E+03  0.20483988428E+03  0.78871737176E+02 0.  0.
          5    1    5    5  501    0 -0.67799443542E+01 -0.26032110921E+02  0.27577852833E+03  0.27712727244E+03  0.47000000000E+01 0. -1.
        -11    1    6    6    0    0 -0.51503134606E+02 -0.42107916904E+02  0.66628711587E+02  0.94154313486E+02  0.00000000000E+00 0.  1.
         12    1    6    6    0    0 -0.49556832865E+02  0.34038357410E+02  0.92934418404E+02  0.11068557080E+03  0.00000000000E+00 0. -1.
         -5    1    3    3    0  503  0.10168737452E+02 -0.51235746690E+02  0.27943872534E+02  0.59426046246E+02  0.47000000000E+01 0.  1.
         11    1    4    4    0    0  0.52623289839E+02  0.39452866503E+02  0.79394769017E+01  0.66247827151E+02  0.00000000000E+00 0. -1.
        -12    1    4    4    0    0  0.45047884534E+02  0.45884550602E+02  0.10472798891E+03  0.12289286206E+03  0.00000000000E+00 0.  1.
</event>
<event>
12    1  0.1061634E+000  0.1823915E+03  0.7818608E-02  0.1165680E+00
         21   -1    0    0  503  502  0.00000000000E+00  0.00000000000E+00  0.98766915278E+03  0.98766915278E+03  0.00000000000E+00 0. -1.
         21   -1    0    0  501  503 -0.00000000000E+00 -0.00000000000E+00 -0.33633755257E+02  0.33633755257E+02  0.00000000000E+00 0. -1.
          6    2    1    2  501    0 -0.45084376949E+02 -0.40028179897E+02  0.50173668873E+03  0.53361368553E+03  0.17137387295E+03 0.  0.
         24    2    3    3    0    0 -0.58957588844E+02 -0.81713615518E+02  0.28134619446E+03  0.30883779377E+03  0.77922971439E+02 0.  0.
         -6    2    1    2    0  502  0.45084376949E+02  0.40028179897E+02  0.45229870879E+03  0.48768922251E+03  0.17213889610E+03 0.  0.
        -24    2    5    5    0    0  0.74187008308E+02  0.81559730019E+02  0.30927514002E+03  0.33586806447E+03  0.70714515683E+02 0.  0.
          5    1    3    3  501    0  0.13873211895E+02  0.41685435621E+02  0.22039049427E+03  0.22477589176E+03  0.47000000000E+01 0. -1.
        -13    1    4    4    0    0 -0.12868021759E+02 -0.57848116078E+01  0.14767005329E+03  0.14834249111E+03  0.00000000000E+00 0.  1.
         14    1    4    4    0    0 -0.46089567085E+02 -0.75928803910E+02  0.13367614117E+03  0.16049530266E+03  0.00000000000E+00 0. -1.
         -5    1    5    5    0  502 -0.29102631359E+02 -0.41531550123E+02  0.14302356877E+03  0.15182115805E+03  0.47000000000E+01 0.  1.
         13    1    6    6    0    0  0.20506329496E+02  0.34112957107E+02  0.20823976587E+03  0.21200944197E+03  0.00000000000E+00 0. -1.
        -14    1    6    6    0    0  0.53680678812E+02  0.47446772912E+02  0.10103537415E+03  0.12385862250E+03  0.00000000000E+00 0.  1.
</event>
<event>
12    1  0.1061634E+000  0.1803391E+03  0.7818608E-02  0.1170458E+00
         21   -1    0    0  503  502  0.00000000000E+00  0.00000000000E+00  0.90237007023E+02  0.90237007023E+02  0.00000000000E+00 0.  1.
         21   -1    0    0  501  503 -0.00000000000E+00 -0.00000000000E+00 -0.41965209452E+03  0.41965209452E+03  0.00000000000E+00 0.  1.
          6    2    1    2  501    0  0.22615430667E+02 -0.25491667017E+02 -0.27328425369E+03  0.32101649893E+03  0.16494249447E+03 0.  0.
         24    2    3    3    0    0  0.59693970987E+02 -0.36553699914E+02 -0.10846645957E+03  0.15165244731E+03  0.79586109173E+02 0.  0.
         -6    2    1    2    0  502 -0.22615430667E+02  0.25491667017E+02 -0.56130833809E+02  0.18887260261E+03  0.17709010905E+03 0.  0.
        -24    2    5    5    0    0  0.38788527632E+02  0.30422524854E+02 -0.81655769459E+02  0.12202672171E+03  0.76110289913E+02 0.  0.
          5    1    3    3  501    0 -0.37078540320E+02  0.11062032897E+02 -0.16481779412E+03  0.16936405162E+03  0.47000000000E+01 0. -1.
        -11    1    4    4    0    0  0.70186638849E+02 -0.12138585582E+02 -0.48818296993E+02  0.86352392289E+02  0.00000000000E+00 0.  1.
         12    1    4    4    0    0 -0.10492667862E+02 -0.24415114332E+02 -0.59648162575E+02  0.65300055017E+02  0.00000000000E+00 0. -1.
         -5    1    5    5    0  502 -0.61403958299E+02 -0.49308578364E+01  0.25524935650E+02  0.66845880903E+02  0.47000000000E+01 0.  1.
         13    1    6    6    0    0  0.37801166227E+02  0.49543311642E+02 -0.34721860041E+02  0.71337756211E+02  0.00000000000E+00 0. -1.
        -14    1    6    6    0    0  0.98736140545E+00 -0.19120786788E+02 -0.46933909418E+02  0.50688965497E+02  0.00000000000E+00 0.  1.
</event>
<event>
12    1  0.1061634E+000  0.1853323E+03  0.7818608E-02  0.1163044E+00
         21   -1    0    0  501  502  0.00000000000E+00  0.00000000000E+00  0.96648106580E+03  0.96648106580E+03  0.00000000000E+00 0. -1.
         21   -1    0    0  502  503 -0.00000000000E+00 -0.00000000000E+00 -0.38394364823E+02  0.38394364823E+02  0.00000000000E+00 0. -1.
         -6    2    1    2    0  503  0.66650831948E+02 -0.12170835753E+02  0.60839401612E+03  0.63599635029E+03  0.17250395964E+03 0.  0.
        -24    2    3    3    0    0  0.81073171625E+02  0.33059784782E+02  0.28488399649E+03  0.30898773310E+03  0.81539678835E+02 0.  0.
          6    2    1    2  501    0 -0.66650831948E+02  0.12170835753E+02  0.31969268486E+03  0.36887908033E+03  0.17110786222E+03 0.  0.
         24    2    5    5    0    0 -0.43160436874E+01 -0.13098294550E+02  0.27259290205E+03  0.28663168332E+03  0.87525071182E+02 0.  0.
          5    1    5    5  501    0 -0.62334788261E+02  0.25269130303E+02  0.47099782815E+02  0.82247397010E+02  0.47000000000E+01 0. -1.
        -13    1    6    6    0    0 -0.28498765801E+02 -0.42092565563E+02  0.15364905034E+03  0.16183940929E+03  0.00000000000E+00 0.  1.
         14    1    6    6    0    0  0.24182722114E+02  0.28994271013E+02  0.11894385171E+03  0.12479227404E+03  0.00000000000E+00 0. -1.
         -5    1    3    3    0  503 -0.14422339677E+02 -0.45230620536E+02  0.32351001963E+03  0.32700861719E+03  0.47000000000E+01 0.  1.
         13    1    4    4    0    0 -0.37969656896E+01 -0.19436980896E+02  0.44097598257E+02  0.48340576608E+02  0.00000000000E+00 0. -1.
        -14    1    4    4    0    0  0.84870137315E+02  0.52496765678E+02  0.24078639823E+03  0.26064715649E+03  0.00000000000E+00 0.  1.
</event>
<event>
12    1  0.1061634E+000  0.2320283E+03  0.7818608E-02  0.1125263E+00
         21   -1    0    0  503  502  0.00000000000E+00  0.00000000000E+00  0.64071552956E+03  0.64071552956E+03  0.00000000000E+00 0. -1.
         21   -1    0    0  501  503 -0.00000000000E+00 -0.00000000000E+00 -0.98960495323E+02  0.98960495323E+02  0.00000000000E+00 0. -1.
          6    2    1    2  501    0 -0.14285812048E+03 -0.60881527603E+02  0.12690375227E+03  0.26446490936E+03  0.17240105264E+03 0.  0.
         24    2    3    3    0    0 -0.51438510144E+02  0.12274445868E+02  0.11328628375E+03  0.14649513756E+03  0.76357454758E+02 0.  0.
         -6    2    1    2    0  502  0.14285812048E+03  0.60881527603E+02  0.41485128197E+03  0.47521111553E+03  0.17207270317E+03 0.  0.
        -24    2    5    5    0    0  0.50266529678E+02 -0.12970636165E+02  0.83189998864E+02  0.12300571879E+03  0.74262167590E+02 0.  0.
          5    1    3    3  501    0 -0.91419610334E+02 -0.73155973471E+02  0.13617468519E+02  0.11796977179E+03  0.47000000000E+01 0. -1.
        -13    1    4    4    0    0  0.41756983608E+01 -0.24800349114E+02  0.22407734240E+02  0.33683828861E+02  0.00000000000E+00 0.  1.
         14    1    4    4    0    0 -0.55614208505E+02  0.37074794982E+02  0.90878549508E+02  0.11281130870E+03  0.00000000000E+00 0. -1.
         -5    1    5    5    0  502  0.92591590800E+02  0.73852163768E+02  0.33166128311E+03  0.35220539674E+03  0.47000000000E+01 0.  1.
         11    1    6    6    0    0  0.30028610052E+02  0.16454191060E+02  0.19896233973E+01  0.34298927481E+02  0.00000000000E+00 0. -1.
        -12    1    6    6    0    0  0.20237919626E+02 -0.29424827225E+02  0.81200375467E+02  0.88706791307E+02  0.00000000000E+00 0.  1.
</event>
<event>
12    1  0.1061634E+000  0.2235639E+03  0.7818608E-02  0.1131512E+00
         21   -1    0    0  501  502  0.00000000000E+00  0.00000000000E+00  0.90639449280E+02  0.90639449280E+02  0.00000000000E+00 0.  1.
         21   -1    0    0  502  503 -0.00000000000E+00 -0.00000000000E+00 -0.79179046140E+03  0.79179046140E+03  0.00000000000E+00 0.  1.
         -6    2    1    2    0  503  0.12630372771E+03 -0.57372945332E+02 -0.10649443322E+03  0.24763253623E+03  0.17531834531E+03 0.  0.
        -24    2    3    3    0    0 -0.43789476394E+01 -0.71164562094E+01 -0.18711560069E+02  0.82309824075E+02  0.79718037656E+02 0.  0.
          6    2    1    2  501    0 -0.12630372771E+03  0.57372945332E+02 -0.59465657890E+03  0.63479737446E+03  0.17351361128E+03 0.  0.
         24    2    5    5    0    0 -0.99147369088E+02  0.89521252566E+02 -0.30420619641E+03  0.34127651292E+03  0.77999954328E+02 0.  0.
          5    1    5    5  501    0 -0.27156358617E+02 -0.32148307234E+02 -0.29045038249E+03  0.29352086154E+03  0.47000000000E+01 0. -1.
        -13    1    6    6    0    0 -0.91911247227E+02  0.37880395822E+02 -0.16511427286E+03  0.19273122439E+03  0.00000000000E+00 0.  1.
         14    1    6    6    0    0 -0.72361218618E+01  0.51640856743E+02 -0.13909192356E+03  0.14854528853E+03  0.00000000000E+00 0. -1.
         -5    1    3    3    0  503  0.13068267535E+03 -0.50256489122E+02 -0.87782873155E+02  0.16532271215E+03  0.47000000000E+01 0.  1.
         13    1    4    4    0    0  0.17989122389E+02 -0.13385581220E+02  0.24523486903E+02  0.33229259980E+02  0.00000000000E+00 0. -1.
        -14    1    4    4    0    0 -0.22368070028E+02  0.62691250111E+01 -0.43235046972E+02  0.49080564095E+02  0.00000000000E+00 0.  1.
</event>
<event>
12    1  0.1452594E+000  0.2698735E+03  0.7818608E-02  0.1101366E+00
         21   -1    0    0  501  502  0.00000000000E+00  0.00000000000E+00  0.84029455706E+03  0.84029455706E+03  0.00000000000E+00 0.  1.
         21   -1    0    0  502  503 -0.00000000000E+00 -0.00000000000E+00 -0.27086063227E+03  0.27086063227E+03  0.00000000000E+00 0.  1.
         -6    2    1    2    0  503 -0.19339474810E+03 -0.73248269034E+02  0.74288246755E+03  0.79034978710E+03  0.17323852884E+03 0.  0.
        -24    2    3    3    0    0 -0.13545485560E+03 -0.84163786001E+02  0.34604128906E+03  0.38912517346E+03  0.79008012897E+02 0.  0.
          6    2    1    2  501    0  0.19339474810E+03  0.73248269034E+02 -0.17344854277E+03  0.32080540223E+03  0.17339224782E+03 0.  0.
         24    2    5    5    0    0  0.92015972236E+02 -0.25389936168E+02 -0.10600027435E+03  0.16403005138E+03  0.80982785758E+02 0.  0.
          5    1    5    5  501    0  0.10137877586E+03  0.98638205202E+02 -0.67448268421E+02  0.15677535085E+03  0.47000000000E+01 0. -1.
        -11    1    6    6    0    0  0.27959412246E+02 -0.39823030426E+02 -0.13322890478E+02  0.50449002925E+02  0.00000000000E+00 0.  1.
         12    1    6    6    0    0  0.64056559990E+02  0.14433094258E+02 -0.92677383867E+02  0.11358104845E+03  0.00000000000E+00 0. -1.
         -5    1    3    3    0  503 -0.57939892494E+02  0.10915516967E+02  0.39684117849E+03  0.40122461365E+03  0.47000000000E+01 0.  1.
         11    1    4    4    0    0 -0.77003806932E+02 -0.10537207911E+02  0.20860727273E+03  0.22261539315E+03  0.00000000000E+00 0. -1.
        -12    1    4    4    0    0 -0.58451048671E+02 -0.73626578090E+02  0.13743401633E+03  0.16650978030E+03  0.00000000000E+00 0.  1.
</event>
<event>
12    1  0.1061634E+000  0.3226214E+03  0.7818608E-02  0.1074544E+00
         21   -1    0    0  503  502  0.00000000000E+00  0.00000000000E+00  0.52969559340E+02  0.52969559340E+02  0.00000000000E+00 0. -1.
         21   -1    0    0  501  503 -0.00000000000E+00 -0.00000000000E+00 -0.20984139086E+04  0.20984139086E+04  0.00000000000E+00 0. -1.
          6    2    1    2  501    0  0.25544335340E+03  0.92876347000E+02 -0.74513786099E+03  0.81165156820E+03  0.17225130957E+03 0.  0.
         24    2    3    3    0    0  0.15047634142E+03  0.73510725671E+02 -0.62395712413E+03  0.65009674196E+03  0.72500517563E+02 0.  0.
         -6    2    1    2    0  502 -0.25544335340E+03 -0.92876347000E+02 -0.13003064883E+04  0.13397318997E+04  0.17380240829E+03 0.  0.
        -24    2    5    5    0    0 -0.23251694098E+03 -0.60382253693E+02 -0.84041586342E+03  0.87810113462E+03  0.83979966208E+02 0.  0.
          5    1    3    3  501    0  0.10496701198E+03  0.19365621330E+02 -0.12118073687E+03  0.16155482624E+03  0.47000000000E+01 0. -1.
        -11    1    4    4    0    0  0.80845576424E+02  0.95825808734E+01 -0.20425736926E+03  0.21988384657E+03  0.00000000000E+00 0.  1.
         12    1    4    4    0    0  0.69630764994E+02  0.63928144797E+02 -0.41969975486E+03  0.43021289539E+03  0.00000000000E+00 0. -1.
         -5    1    5    5    0  502 -0.22926412416E+02 -0.32494093308E+02 -0.45989062484E+03  0.46163076511E+03  0.47000000000E+01 0.  1.
         13    1    6    6    0    0 -0.11176883450E+02 -0.91398944993E+01 -0.11054836625E+02  0.18184328635E+02  0.00000000000E+00 0. -1.
        -14    1    6    6    0    0 -0.22134005753E+03 -0.51242359193E+02 -0.82936102679E+03  0.85991680598E+03  0.00000000000E+00 0.  1.
</event>
<event>
12    1  0.1061634E+000  0.3305137E+03  0.7818608E-02  0.1070962E+00
         21   -1    0    0  503  502  0.00000000000E+00  0.00000000000E+00  0.58615765655E+03  0.58615765655E+03  0.00000000000E+00 0. -1.
         21   -1    0    0  501  503 -0.00000000000E+00 -0.00000000000E+00 -0.22979537772E+03  0.22979537772E+03  0.00000000000E+00 0. -1.
          6    2    1    2  501    0  0.25614086901E+03 -0.11795887526E+03  0.35598050173E+03  0.48543913913E+03  0.17148352448E+03 0.  0.
         24    2    3    3    0    0  0.45609607656E+02 -0.54305048580E+02  0.12239654027E+03  0.16456723524E+03  0.84096297388E+02 0.  0.
         -6    2    1    2    0  502 -0.25614086901E+03  0.11795887526E+03  0.38177710671E+00  0.33051389513E+03  0.17238575374E+03 0.  0.
        -24    2    5    5    0    0 -0.16902483170E+03  0.77329842287E+01 -0.21257534843E+02  0.18828414848E+03  0.79811308762E+02 0.  0.
          5    1    3    3  501    0  0.21053126135E+03 -0.63653826678E+02  0.23358396146E+03  0.32087190389E+03  0.47000000000E+01 0. -1.
        -13    1    4    4    0    0  0.55484979962E+02 -0.60390801654E+02  0.12773685508E+03  0.15179702260E+03  0.00000000000E+00 0.  1.
         14    1    4    4    0    0 -0.98753723061E+01  0.60857530740E+01 -0.53403148090E+01  0.12770212642E+02  0.00000000000E+00 0. -1.
         -5    1    5    5    0  502 -0.87116037308E+02  0.11022589103E+03  0.21639311949E+02  0.14222974665E+03  0.47000000000E+01 0.  1.
         11    1    6    6    0    0 -0.11067534579E+03 -0.15509399556E+02  0.19451606450E+02  0.11343693681E+03  0.00000000000E+00 0. -1.
        -12    1    6    6    0    0 -0.58349485911E+02  0.23242383784E+02 -0.40709141293E+02  0.74847211670E+02  0.00000000000E+00 0.  1.
</event>
<event>
12    1  0.1061634E+000  0.4169237E+03  0.7818608E-02  0.1038087E+00
         21   -1    0    0  501  502  0.00000000000E+00  0.00000000000E+00  0.80743530726E+03  0.80743530726E+03  0.00000000000E+00 0. -1.
         21   -1    0    0  502  503 -0.00000000000E+00 -0.00000000000E+00 -0.26691849591E+03  0.26691849591E+03  0.00000000000E+00 0. -1.
         -6    2    1    2    0  503  0.15883469412E+03 -0.34458160679E+03  0.50669735789E+03  0.65606069765E+03  0.17236148848E+03 0.  0.
        -24    2    3    3    0    0  0.17889319945E+03 -0.27503138210E+03  0.36670425578E+03  0.49839099216E+03  0.79224566314E+02 0.  0.
          6    2    1    2  501    0 -0.15883469412E+03  0.34458160679E+03  0.33819453453E+02  0.41829310551E+03  0.17280168661E+03 0.  0.
         24    2    5    5    0    0 -0.10068964769E+03  0.93178582375E+02  0.25817293158E+02  0.16008688623E+03  0.78362141054E+02 0.  0.
          5    1    5    5  501    0 -0.58145046428E+02  0.25140302441E+03  0.80021602955E+01  0.25820621928E+03  0.47000000000E+01 0. -1.
        -11    1    6    6    0    0 -0.87443572996E+02  0.70225633192E+02 -0.13194536372E+02  0.11292525761E+03  0.00000000000E+00 0.  1.
         12    1    6    6    0    0 -0.13246074698E+02  0.22952949183E+02  0.39011829530E+02  0.47161628622E+02  0.00000000000E+00 0. -1.
         -5    1    3    3    0  503 -0.20058505330E+02 -0.69550224687E+02  0.13999310211E+03  0.15766970549E+03  0.47000000000E+01 0.  1.
         13    1    4    4    0    0  0.12357197903E+03 -0.15521027415E+03  0.26870121412E+03  0.33400689465E+03  0.00000000000E+00 0. -1.
        -14    1    4    4    0    0  0.55321220425E+02 -0.11982110795E+03  0.98003041659E+02  0.16438409751E+03  0.00000000000E+00 0.  1.
</event>
<event>
12    1  0.1061634E+000  0.2403391E+03  0.7818608E-02  0.1119612E+00
         21   -1    0    0  503  502  0.00000000000E+00  0.00000000000E+00  0.32662219715E+03  0.32662219715E+03  0.00000000000E+00 0.  1.
         21   -1    0    0  501  503 -0.00000000000E+00 -0.00000000000E+00 -0.38389035883E+03  0.38389035883E+03  0.00000000000E+00 0. -1.
          6    2    1    2  501    0 -0.15103623433E+03  0.71156021511E+02  0.23237968295E+03  0.33431001356E+03  0.17288072373E+03 0.  0.
         24    2    3    3    0    0 -0.41460162674E+02 -0.18443878360E+02  0.62763404227E+02  0.11334207574E+03  0.82753002873E+02 0.  0.
         -6    2    1    2    0  502  0.15103623433E+03 -0.71156021511E+02 -0.28964784463E+03  0.37620254242E+03  0.17250320445E+03 0.  0.
        -24    2    5    5    0    0  0.49707066883E+02  0.19718065027E+02 -0.17441760089E+03  0.19780467570E+03  0.76456495083E+02 0.  0.
          5    1    3    3  501    0 -0.10957607165E+03  0.89599899871E+02  0.16961627873E+03  0.22096793782E+03  0.47000000000E+01 0. -1.
        -13    1    4    4    0    0 -0.47862655914E+02 -0.27190662518E+02  0.77492687387E+02  0.95054103319E+02  0.00000000000E+00 0.  1.
         14    1    4    4    0    0  0.64024932394E+01  0.87467841579E+01 -0.14729283160E+02  0.18287972419E+02  0.00000000000E+00 0. -1.
         -5    1    5    5    0  502  0.10132916744E+03 -0.90874086538E+02 -0.11523024374E+03  0.17839786673E+03  0.47000000000E+01 0.  1.
         11    1    6    6    0    0  0.63328926406E+02  0.34732609252E+02 -0.14609268405E+03  0.16297232709E+03  0.00000000000E+00 0. -1.
        -12    1    6    6    0    0 -0.13621859523E+02 -0.15014544226E+02 -0.28324916840E+02  0.34832348602E+02  0.00000000000E+00 0.  1.
</event>
<event>
12    1  0.1061634E+000  0.2654603E+03  0.7818608E-02  0.1104017E+00
         21   -1    0    0  503  502  0.00000000000E+00  0.00000000000E+00  0.13553018613E+03  0.13553018613E+03  0.00000000000E+00 0. -1.
         21   -1    0    0  501  503 -0.00000000000E+00 -0.00000000000E+00 -0.57294282768E+03  0.57294282768E+03  0.00000000000E+00 0.  1.
          6    2    1    2  501    0 -0.16053968688E+02 -0.20291858261E+03 -0.10919608696E+03  0.28634121662E+03  0.16921532392E+03 0.  0.
         24    2    3    3    0    0  0.53332766996E+02 -0.12016805909E+03 -0.84184868743E+02  0.17539159171E+03  0.79939801446E+02 0.  0.
         -6    2    1    2    0  502  0.16053968688E+02  0.20291858261E+03 -0.32821655459E+03  0.42213179719E+03  0.17039796480E+03 0.  0.
        -24    2    5    5    0    0  0.72945126551E+02  0.12651539447E+03 -0.24578812326E+03  0.29607392440E+03  0.76946933959E+02 0.  0.
          5    1    3    3  501    0 -0.69386735684E+02 -0.82750523517E+02 -0.25011218213E+02  0.11094962491E+03  0.47000000000E+01 0. -1.
        -11    1    4    4    0    0  0.17261330782E+01 -0.97218838865E+02 -0.49450938482E+02  0.10908655959E+03  0.00000000000E+00 0.  1.
         12    1    4    4    0    0  0.51606633918E+02 -0.22949220230E+02 -0.34733930261E+02  0.66305032123E+02  0.00000000000E+00 0. -1.
         -5    1    5    5    0  502 -0.56891157863E+02  0.76403188139E+02 -0.82428431328E+02  0.12605787279E+03  0.47000000000E+01 0.  1.
         11    1    6    6    0    0  0.11406044660E+02  0.55497542639E+02 -0.38558756580E+02  0.68533588865E+02  0.00000000000E+00 0. -1.
        -12    1    6    6    0    0  0.61539081891E+02  0.71017851834E+02 -0.20722936668E+03  0.22754033553E+03  0.00000000000E+00 0.  1.
</event>
<event>
12    1  0.1061634E+000  0.2021955E+03  0.7818608E-02  0.1147952E+00
         21   -1    0    0  503  502  0.00000000000E+00  0.00000000000E+00  0.19736661335E+03  0.19736661335E+03  0.00000000000E+00 0.  1.
         21   -1    0    0  501  503 -0.00000000000E+00 -0.00000000000E+00 -0.22991261693E+03  0.22991261693E+03  0.00000000000E+00 0.  1.
          6    2    1    2  501    0  0.79481682597E+02 -0.71669454691E+02  0.51349309934E+02  0.20836959567E+03  0.17125211872E+03 0.  0.
         24    2    3    3    0    0  0.76234054546E+02  0.97571864473E+01 -0.61605704206E-01  0.11190189527E+03  0.81333858934E+02 0.  0.
         -6    2    1    2    0  502 -0.79481682597E+02  0.71669454691E+02 -0.83895313512E+02  0.21890963461E+03  0.17154928124E+03 0.  0.
        -24    2    5    5    0    0  0.31167642481E+00  0.32529628231E+02 -0.95727722920E+02  0.12912655117E+03  0.80321824107E+02 0.  0.
          5    1    3    3  501    0  0.32476280507E+01 -0.81426641139E+02  0.51410915638E+02  0.96467700407E+02  0.47000000000E+01 0. -1.
        -11    1    4    4    0    0  0.13304921366E+02  0.38358020269E+02 -0.10645977741E+02  0.41972556434E+02  0.00000000000E+00 0.  1.
         12    1    4    4    0    0  0.62929133181E+02 -0.28600833822E+02  0.10584372037E+02  0.69929338833E+02  0.00000000000E+00 0. -1.
         -5    1    5    5    0  502 -0.79793359022E+02  0.39139826460E+02  0.11832409408E+02  0.89783083439E+02  0.47000000000E+01 0.  1.
         11    1    6    6    0    0  0.24256990673E+02 -0.17607648677E+02 -0.43815996027E+02  0.53087403368E+02  0.00000000000E+00 0. -1.
        -12    1    6    6    0    0 -0.23945314248E+02  0.50137276908E+02 -0.51911726892E+02  0.76039147807E+02  0.00000000000E+00 0.  1.
</event>
<event>
12    1  0.1061634E+000  0.2298765E+03  0.7818608E-02  0.1126766E+00
         21   -1    0    0  501  502  0.00000000000E+00  0.00000000000E+00  0.15106294420E+03  0.15106294420E+03  0.00000000000E+00 0. -1.
         21   -1    0    0  502  503 -0.00000000000E+00 -0.00000000000E+00 -0.54411956601E+03  0.54411956601E+03  0.00000000000E+00 0. -1.
         -6    2    1    2    0  503  0.88607052929E+01  0.15177739275E+03  0.11307614589E+02  0.23015445046E+03  0.17241902410E+03 0.  0.
        -24    2    3    3    0    0 -0.25145380403E+02  0.16952449656E+03  0.21726737013E+02  0.19012918756E+03  0.79411660176E+02 0.  0.
          6    2    1    2  501    0 -0.88607052929E+01 -0.15177739275E+03 -0.40436423640E+03  0.46502805975E+03  0.17212138632E+03 0.  0.
         24    2    5    5    0    0 -0.70868192256E+02 -0.11415835677E+03 -0.29711856617E+03  0.33547558354E+03  0.78803513245E+02 0.  0.
          5    1    5    5  501    0  0.62007486963E+02 -0.37619035979E+02 -0.10724567023E+03  0.12955247620E+03  0.47000000000E+01 0. -1.
        -11    1    6    6    0    0 -0.78194415046E+02 -0.90566412367E+02 -0.18251110535E+03  0.21823598505E+03  0.00000000000E+00 0.  1.
         12    1    6    6    0    0  0.73262227899E+01 -0.23591944401E+02 -0.11460746081E+03  0.11723959850E+03  0.00000000000E+00 0. -1.
         -5    1    3    3    0  503  0.34006085695E+02 -0.17747103813E+02 -0.10419122424E+02  0.40025262899E+02  0.47000000000E+01 0.  1.
         13    1    4    4    0    0 -0.25409393995E+02  0.11544245332E+02  0.15726476704E+02  0.32034808771E+02  0.00000000000E+00 0. -1.
        -14    1    4    4    0    0  0.26401359215E+00  0.15798025123E+03  0.60002603089E+01  0.15809437879E+03  0.00000000000E+00 0.  1.
</event>
<event>
12    1  0.1061634E+000  0.4381142E+03  0.7818608E-02  0.1031338E+00
         21   -1    0    0  503  502  0.00000000000E+00  0.00000000000E+00  0.13959328207E+03  0.13959328207E+03  0.00000000000E+00 0. -1.
         21   -1    0    0  501  503 -0.00000000000E+00 -0.00000000000E+00 -0.15852014900E+04  0.15852014900E+04  0.00000000000E+00 0. -1.
          6    2    1    2  501    0  0.26226380305E+03  0.30543655125E+03 -0.40833477700E+03  0.59879289183E+03  0.17245824991E+03 0.  0.
         24    2    3    3    0    0  0.12227780080E+03  0.82912982062E+02 -0.10727726645E+03  0.19907982683E+03  0.79359576550E+02 0.  0.
         -6    2    1    2    0  502 -0.26226380305E+03 -0.30543655125E+03 -0.10372734309E+04  0.11260018802E+04  0.17283018996E+03 0.  0.
        -24    2    5    5    0    0 -0.14290805965E+03 -0.79028558250E+02 -0.41221004475E+03  0.45055188244E+03  0.80072787209E+02 0.  0.
          5    1    3    3  501    0  0.13998600225E+03  0.22252356919E+03 -0.30105751055E+03  0.39971306500E+03  0.47000000000E+01 0. -1.
        -11    1    4    4    0    0  0.10515293450E+03  0.89675724688E+02 -0.11433283335E+03  0.17936240413E+03  0.00000000000E+00 0.  1.
         12    1    4    4    0    0  0.17124866295E+02 -0.67627426261E+01  0.70555669039E+01  0.19717422697E+02  0.00000000000E+00 0. -1.
         -5    1    5    5    0  502 -0.11935574341E+03 -0.22640799300E+03 -0.62506338617E+03  0.67544999779E+03  0.47000000000E+01 0.  1.
         11    1    6    6    0    0 -0.35926736650E+02  0.10735335023E+02 -0.51119987057E+02  0.63397404530E+02  0.00000000000E+00 0. -1.
        -12    1    6    6    0    0 -0.10698132300E+03 -0.89763893273E+02 -0.36109005769E+03  0.38715447791E+03  0.00000000000E+00 0.  1.
</event>
<event>
12    1  0.1061634E+000  0.2396201E+03  0.7818608E-02  0.1120827E+00
         21   -1    0    0  501  502  0.00000000000E+00  0.00000000000E+00  0.24835864813E+03  0.24835864813E+03  0.00000000000E+00 0.  1.
         21   -1    0    0  502  503 -0.00000000000E+00 -0.00000000000E+00 -0.33051871936E+03  0.33051871936E+03  0.00000000000E+00 0.  1.
         -6    2    1    2    0  503  0.47738792439E+02  0.15928079694E+03 -0.20353487672E+03  0.31439500479E+03  0.17253523819E+03 0.  0.
        -24    2    3    3    0    0  0.47987120002E+02  0.14340690641E+03 -0.78947430524E+02  0.18871221433E+03  0.80692617746E+02 0.  0.
          6    2    1    2  501    0 -0.47738792439E+02 -0.15928079694E+03  0.12137480549E+03  0.26448236270E+03  0.16604129666E+03 0.  0.
         24    2    5    5    0    0 -0.74553385938E+01 -0.53644963090E+02  0.11709484330E+03  0.15124767666E+03  0.78938540829E+02 0.  0.
          5    1    5    5  501    0 -0.40283453845E+02 -0.10563583385E+03  0.42799621833E+01  0.11323468604E+03  0.47000000000E+01 0. -1.
        -13    1    6    6    0    0 -0.30777789189E+02 -0.60973098500E+02  0.10118640975E+03  0.12208063141E+03  0.00000000000E+00 0.  1.
         14    1    6    6    0    0  0.23322450595E+02  0.73281354102E+01  0.15908433554E+02  0.29167045248E+02  0.00000000000E+00 0. -1.
         -5    1    3    3    0  503 -0.24832756251E+00  0.15873890530E+02 -0.12458744620E+03  0.12568279046E+03  0.47000000000E+01 0.  1.
         11    1    4    4    0    0  0.65118588209E+02  0.11559444701E+03 -0.81894723946E+02  0.15591424733E+03  0.00000000000E+00 0. -1.
        -12    1    4    4    0    0 -0.17131468207E+02  0.27812459403E+02  0.29472934227E+01  0.32797967003E+02  0.00000000000E+00 0.  1.
</event>
<event>
12    1  0.1061634E+000  0.2605975E+03  0.7818608E-02  0.1106943E+00
         21   -1    0    0  503  502  0.00000000000E+00  0.00000000000E+00  0.13415414176E+03  0.13415414176E+03  0.00000000000E+00 0.  1.
         21   -1    0    0  501  503 -0.00000000000E+00 -0.00000000000E+00 -0.55541440502E+03  0.55541440502E+03  0.00000000000E+00 0.  1.
          6    2    1    2  501    0  0.17126274781E+03  0.94732989987E+02 -0.31496610449E+03  0.40812673903E+03  0.17046559757E+03 0.  0.
         24    2    3    3    0    0  0.14228161021E+03  0.66158833495E+02 -0.14026551202E+03  0.22868656581E+03  0.89454366395E+02 0.  0.
         -6    2    1    2    0  502 -0.17126274781E+03 -0.94732989987E+02 -0.10629415877E+03  0.28144180776E+03  0.17206328715E+03 0.  0.
        -24    2    5    5    0    0 -0.14854941395E+02 -0.30897552098E+02 -0.61110590455E+02  0.10650750613E+03  0.80212321918E+02 0.  0.
          5    1    3    3  501    0  0.28981137604E+02  0.28574156492E+02 -0.17470059247E+03  0.17944017322E+03  0.47000000000E+01 0. -1.
        -11    1    4    4    0    0  0.58683570894E+02  0.68780054848E+02 -0.42136640936E+02  0.99749455873E+02  0.00000000000E+00 0.  1.
         12    1    4    4    0    0  0.83598039316E+02 -0.26212213529E+01 -0.98128871086E+02  0.12893710994E+03  0.00000000000E+00 0. -1.
         -5    1    5    5    0  502 -0.15640780642E+03 -0.63835437889E+02 -0.45183568316E+02  0.17493430162E+03  0.47000000000E+01 0.  1.
         13    1    6    6    0    0 -0.29245987200E+02 -0.38636994435E+02 -0.57640595842E+01  0.48799277548E+02  0.00000000000E+00 0. -1.
        -14    1    6    6    0    0  0.14391045805E+02  0.77394423371E+01 -0.55346530871E+02  0.57708228585E+02  0.00000000000E+00 0.  1.
</event>
<event>
12    1  0.1061634E+000  0.4578534E+03  0.7818608E-02  0.1025488E+00
         21   -1    0    0  503  502  0.00000000000E+00  0.00000000000E+00  0.36497594184E+03  0.36497594184E+03  0.00000000000E+00 0.  1.
         21   -1    0    0  501  503 -0.00000000000E+00 -0.00000000000E+00 -0.64751573552E+03  0.64751573552E+03  0.00000000000E+00 0.  1.
          6    2    1    2  501    0  0.38715965614E+03 -0.16916463228E+03  0.30361923426E+02  0.45885901622E+03  0.17640997199E+03 0.  0.
         24    2    3    3    0    0  0.69472797833E+02 -0.35060266734E+02 -0.76744030722E+01  0.11190401491E+03  0.80049485628E+02 0.  0.
         -6    2    1    2    0  502 -0.38715965614E+03  0.16916463228E+03 -0.31290171710E+03  0.55363266114E+03  0.17347151568E+03 0.  0.
        -24    2    5    5    0    0 -0.24161432399E+03  0.10947469459E+03 -0.27658465465E+03  0.39211686811E+03  0.83032383771E+02 0.  0.
          5    1    3    3  501    0  0.31768685831E+03 -0.13410436555E+03  0.38036326498E+02  0.34695500131E+03  0.47000000000E+01 0. -1.
        -13    1    4    4    0    0  0.60921918030E+01  0.23957671371E+02 -0.52210362181E+01  0.25265471254E+02  0.00000000000E+00 0.  1.
         14    1    4    4    0    0  0.63380606029E+02 -0.59017938105E+02 -0.24533668541E+01  0.86638543661E+02  0.00000000000E+00 0. -1.
         -5    1    5    5    0  502 -0.14554533215E+03  0.59689937694E+02 -0.36317062453E+02  0.16151579303E+03  0.47000000000E+01 0.  1.
         13    1    6    6    0    0 -0.11104810142E+03  0.85780902340E+02 -0.17876920920E+03  0.22726300665E+03  0.00000000000E+00 0. -1.
        -14    1    6    6    0    0 -0.13056622258E+03  0.23693792246E+02 -0.97815445452E+02  0.16485386146E+03  0.00000000000E+00 0.  1.
</event>
<event>
12    1  0.1061634E+000  0.2086297E+03  0.7818608E-02  0.1143182E+00
         21   -1    0    0  503  502  0.00000000000E+00  0.00000000000E+00  0.98901388084E+02  0.98901388084E+02  0.00000000000E+00 0.  1.
         21   -1    0    0  501  503 -0.00000000000E+00 -0.00000000000E+00 -0.50964383635E+03  0.50964383635E+03  0.00000000000E+00 0.  1.
          6    2    1    2  501    0 -0.11246571537E+03  0.20904940979E+02 -0.87499677905E+02  0.22382161631E+03  0.17133116646E+03 0.  0.
         24    2    3    3    0    0 -0.12148388864E+03  0.64108168271E+02 -0.83130281325E+02  0.17922309701E+03  0.79637192248E+02 0.  0.
         -6    2    1    2    0  502  0.11246571537E+03 -0.20904940979E+02 -0.32324277036E+03  0.38472360813E+03  0.17447295598E+03 0.  0.
        -24    2    5    5    0    0  0.13626240274E+03  0.22738636826E+02 -0.23523754493E+03  0.28354033917E+03  0.77291224507E+02 0.  0.
          5    1    3    3  501    0  0.90181732671E+01 -0.43203227291E+02 -0.43693965801E+01  0.44598519302E+02  0.47000000000E+01 0. -1.
        -11    1    4    4    0    0 -0.18262571244E+01 -0.12525929864E+01 -0.34339883496E+02  0.34411216236E+02  0.00000000000E+00 0.  1.
         12    1    4    4    0    0 -0.11965763152E+03  0.65360761257E+02 -0.48790397829E+02  0.14481188077E+03  0.00000000000E+00 0. -1.
         -5    1    5    5    0  502 -0.23796687371E+02 -0.43643577805E+02 -0.88005225429E+02  0.10118326895E+03  0.47000000000E+01 0.  1.
         11    1    6    6    0    0  0.63091336035E+02 -0.84755450745E+01 -0.16703887233E+03  0.17875775904E+03  0.00000000000E+00 0. -1.
        -12    1    6    6    0    0  0.73171066709E+02  0.31214181900E+02 -0.68198672606E+02  0.10478258014E+03  0.00000000000E+00 0.  1.
</event>
<event>
12    1  0.1061634E+000  0.2334624E+03  0.7818608E-02  0.1124417E+00
         21   -1    0    0  501  502  0.00000000000E+00  0.00000000000E+00  0.14500760627E+03  0.14500760627E+03  0.00000000000E+00 0.  1.
         21   -1    0    0  502  503 -0.00000000000E+00 -0.00000000000E+00 -0.46027683799E+03  0.46027683799E+03  0.00000000000E+00 0.  1.
         -6    2    1    2    0  503  0.15919045903E+03  0.15482256469E+02 -0.26985996395E+02  0.23501692148E+03  0.17006882980E+03 0.  0.
        -24    2    3    3    0    0  0.76322331208E+02 -0.16900261499E+02  0.50065426463E+02  0.11722572553E+03  0.71586358474E+02 0.  0.
          6    2    1    2  501    0 -0.15919045903E+03 -0.15482256469E+02 -0.28828323532E+03  0.37026752278E+03  0.16855121521E+03 0.  0.
         24    2    5    5    0    0 -0.10471271313E+02  0.88130379284E+01 -0.11825095295E+03  0.14302156534E+03  0.79275236479E+02 0.  0.
          5    1    5    5  501    0 -0.14871918771E+03 -0.24295294397E+02 -0.17003228238E+03  0.22724595744E+03  0.47000000000E+01 0. -1.
        -13    1    6    6    0    0 -0.10124327658E+02 -0.35101218170E+02 -0.53868148528E+02  0.65087440827E+02  0.00000000000E+00 0.  1.
         14    1    6    6    0    0 -0.34694365511E+00  0.43914256099E+02 -0.64382804419E+02  0.77934124512E+02  0.00000000000E+00 0. -1.
         -5    1    3    3    0  503  0.82868127818E+02  0.32382517968E+02 -0.77051422857E+02  0.11779119595E+03  0.47000000000E+01 0.  1.
         11    1    4    4    0    0  0.68486097588E+02  0.72950443131E+01  0.97522838218E+01  0.69560551134E+02  0.00000000000E+00 0. -1.
        -12    1    4    4    0    0  0.78362336198E+01 -0.24195305812E+02  0.40313142641E+02  0.47665174397E+02  0.00000000000E+00 0.  1.
</event>
<event>
12    1  0.1061634E+000  0.2318322E+03  0.7818608E-02  0.1126782E+00
         21   -1    0    0  503  502  0.00000000000E+00  0.00000000000E+00  0.71341317672E+03  0.71341317672E+03  0.00000000000E+00 0. -1.
         21   -1    0    0  501  503 -0.00000000000E+00 -0.00000000000E+00 -0.20688336268E+03  0.20688336268E+03  0.00000000000E+00 0.  1.
          6    2    1    2  501    0  0.15544093676E+03  0.43155091030E+01  0.62532774762E+03  0.66691900194E+03  0.17194666257E+03 0.  0.
         24    2    3    3    0    0  0.13695578489E+03 -0.10444329800E+02  0.29354827582E+03  0.33426413335E+03  0.81828782057E+02 0.  0.
         -6    2    1    2    0  502 -0.15544093676E+03 -0.43155091030E+01 -0.11879793358E+03  0.25337753746E+03  0.16095564305E+03 0.  0.
        -24    2    5    5    0    0 -0.16317323925E+03 -0.22958972004E+01 -0.14074171634E+03  0.22955555317E+03  0.79099583574E+02 0.  0.
          5    1    3    3  501    0  0.18485151867E+02  0.14759838903E+02  0.33177947180E+03  0.33265486858E+03  0.47000000000E+01 0. -1.
        -13    1    4    4    0    0  0.10304387118E+03  0.13999062501E+02  0.13563742519E+03  0.17091379187E+03  0.00000000000E+00 0.  1.
         14    1    4    4    0    0  0.33911913711E+02 -0.24443392301E+02  0.15791085062E+03  0.16335034148E+03  0.00000000000E+00 0. -1.
         -5    1    5    5    0  502  0.77323024912E+01 -0.20196119026E+01  0.21943782757E+02  0.23821984294E+02  0.47000000000E+01 0.  1.
         13    1    6    6    0    0 -0.12586251542E+03  0.14901505391E+02 -0.62795407661E+02  0.14144501007E+03  0.00000000000E+00 0. -1.
        -14    1    6    6    0    0 -0.37310723828E+02 -0.17197402592E+02 -0.77946308674E+02  0.88110543094E+02  0.00000000000E+00 0.  1.
</event>
<event>
12    1  0.1061634E+000  0.1911521E+03  0.7818608E-02  0.1159166E+00
         21   -1    0    0  501  502  0.00000000000E+00  0.00000000000E+00  0.10471183895E+04  0.10471183895E+04  0.00000000000E+00 0. -1.
         21   -1    0    0  502  503 -0.00000000000E+00 -0.00000000000E+00 -0.38958909906E+02  0.38958909906E+02  0.00000000000E+00 0. -1.
         -6    2    1    2    0  503  0.14342340242E+02 -0.65373217641E+02  0.31002195352E+03  0.36421520867E+03  0.17905235618E+03 0.  0.
        -24    2    3    3    0    0 -0.40378683694E+01 -0.67688197457E+02  0.32392121163E+03  0.34058322662E+03  0.80461086579E+02 0.  0.
          6    2    1    2  501    0 -0.14342340242E+02  0.65373217641E+02  0.69813752610E+03  0.72186209076E+03  0.17090790627E+03 0.  0.
         24    2    5    5    0    0  0.32163148247E+02 -0.14976932897E+02  0.23469123509E+03  0.24918518018E+03  0.75858431095E+02 0.  0.
          5    1    5    5  501    0 -0.46505488488E+02  0.80350150538E+02  0.46344629101E+03  0.47267691058E+03  0.47000000000E+01 0. -1.
        -13    1    6    6    0    0  0.26360201328E+02 -0.30870003267E+00  0.23161902205E+03  0.23311440729E+03  0.00000000000E+00 0.  1.
         14    1    6    6    0    0  0.58029469185E+01 -0.14668232864E+02  0.30722130386E+01  0.16070772889E+02  0.00000000000E+00 0. -1.
         -5    1    3    3    0  503  0.18380208611E+02  0.23149798160E+01 -0.13899258103E+02  0.23631982057E+02  0.47000000000E+01 0.  1.
         11    1    4    4    0    0  0.28518497546E+02 -0.49102763632E+01  0.15122256206E+03  0.15396648593E+03  0.00000000000E+00 0. -1.
        -12    1    4    4    0    0 -0.32556365916E+02 -0.62777921094E+02  0.17269864957E+03  0.18661674068E+03  0.00000000000E+00 0.  1.
</event>
<event>
12    1  0.1061634E+000  0.2579805E+03  0.7818608E-02  0.1108784E+00
         21   -1    0    0  501  502  0.00000000000E+00  0.00000000000E+00  0.11129345986E+04  0.11129345986E+04  0.00000000000E+00 0. -1.
         21   -1    0    0  502  503 -0.00000000000E+00 -0.00000000000E+00 -0.70532876937E+02  0.70532876937E+02  0.00000000000E+00 0. -1.
         -6    2    1    2    0  503 -0.11405456599E+03 -0.14936016475E+03  0.76113274475E+03  0.80366471804E+03  0.17673998147E+03 0.  0.
        -24    2    3    3    0    0 -0.59309037470E+02 -0.63792630511E+02  0.61130560395E+03  0.62258700564E+03  0.79580000843E+02 0.  0.
          6    2    1    2  501    0  0.11405456599E+03  0.14936016475E+03  0.28126897694E+03  0.37980275753E+03  0.17268756296E+03 0.  0.
         24    2    5    5    0    0  0.12804778494E+03  0.96275570094E+02  0.26919347495E+03  0.32339626753E+03  0.80341759175E+02 0.  0.
          5    1    5    5  501    0 -0.13993218954E+02  0.53084594652E+02  0.12075501988E+02  0.56406490002E+02  0.47000000000E+01 0. -1.
        -11    1    6    6    0    0  0.30327914504E+02  0.65318530888E+02  0.14854481277E+03  0.16508135654E+03  0.00000000000E+00 0.  1.
         12    1    6    6    0    0  0.97719870437E+02  0.30957039206E+02  0.12064866218E+03  0.15831491099E+03  0.00000000000E+00 0. -1.
         -5    1    3    3    0  503 -0.54745528518E+02 -0.85567534235E+02  0.14982714080E+03  0.18107771240E+03  0.47000000000E+01 0.  1.
         11    1    4    4    0    0  0.16208316073E+02  0.35968218409E+01  0.98301769701E+02  0.99693954499E+02  0.00000000000E+00 0. -1.
        -12    1    4    4    0    0 -0.75517353543E+02 -0.67389452352E+02  0.51300383425E+03  0.52289305114E+03  0.00000000000E+00 0.  1.
</event>
<event>
12    1  0.1061634E+000  0.1994491E+03  0.7818608E-02  0.1150464E+00
         21   -1    0    0  501  502  0.00000000000E+00  0.00000000000E+00  0.17344931200E+03  0.17344931200E+03  0.00000000000E+00 0. -1.
         21   -1    0    0  502  503 -0.00000000000E+00 -0.00000000000E+00 -0.41353182254E+03  0.41353182254E+03  0.00000000000E+00 0. -1.
         -6    2    1    2    0  503 -0.84930282289E+02 -0.49137959180E+02  0.76773910935E+02  0.21257769430E+03  0.17224212850E+03 0.  0.
        -24    2    3    3    0    0 -0.38395015209E+01 -0.30822344867E+02 -0.17056762265E+02  0.87128654099E+02  0.79597176527E+02 0.  0.
          6    2    1    2  501    0  0.84930282289E+02  0.49137959180E+02 -0.31685642147E+03  0.37440344024E+03  0.17364403921E+03 0.  0.
         24    2    5    5    0    0 -0.15189339994E+02  0.35330245162E+02 -0.90606640114E+02  0.12656146378E+03  0.79556889132E+02 0.  0.
          5    1    5    5  501    0  0.10011962228E+03  0.13807714018E+02 -0.22624978136E+03  0.24784197646E+03  0.47000000000E+01 0. -1.
        -11    1    6    6    0    0  0.91283436492E+01  0.46032116173E+02 -0.88170605701E+02  0.99881620365E+02  0.00000000000E+00 0.  1.
         12    1    6    6    0    0 -0.24317683644E+02 -0.10701871011E+02 -0.24360344139E+01  0.26679843414E+02  0.00000000000E+00 0. -1.
         -5    1    3    3    0  503 -0.81090780768E+02 -0.18315614313E+02  0.93830673200E+02  0.12544904020E+03  0.47000000000E+01 0.  1.
         13    1    4    4    0    0  0.32138243295E+02 -0.35793595252E+02 -0.16333486429E+02  0.50801879120E+02  0.00000000000E+00 0. -1.
        -14    1    4    4    0    0 -0.35977744816E+02  0.49712503850E+01 -0.72327583653E+00  0.36326774979E+02  0.00000000000E+00 0.  1.
</event>
<event>
12    1  0.1061634E+000  0.4826129E+03  0.7818608E-02  0.1018537E+00
         21   -1    0    0  503  502  0.00000000000E+00  0.00000000000E+00  0.47239904436E+03  0.47239904436E+03  0.00000000000E+00 0.  1.
         21   -1    0    0  501  503 -0.00000000000E+00 -0.00000000000E+00 -0.49134443653E+03  0.49134443653E+03  0.00000000000E+00 0.  1.
          6    2    1    2  501    0 -0.43935071903E+03 -0.93669616807E+02 -0.45507715412E+01  0.48263430862E+03  0.17638626623E+03 0.  0.
         24    2    3    3    0    0 -0.74461879194E+02 -0.32424023057E+02  0.19568948035E+02  0.11182608452E+03  0.74338689304E+02 0.  0.
         -6    2    1    2    0  502  0.43935071903E+03  0.93669616807E+02 -0.14394620630E+02  0.48110917227E+03  0.17162686012E+03 0.  0.
        -24    2    5    5    0    0  0.23894443979E+03  0.93663111838E+02 -0.59940872818E+02  0.27553867855E+03  0.80383028783E+02 0.  0.
          5    1    3    3  501    0 -0.36488883983E+03 -0.61245593750E+02 -0.24119719576E+02  0.37080822410E+03  0.47000000000E+01 0. -1.
        -13    1    4    4    0    0 -0.84494806779E+01 -0.33447231295E+02  0.29086114715E+02  0.45123309655E+02  0.00000000000E+00 0.  1.
         14    1    4    4    0    0 -0.66012398516E+02  0.10232082381E+01 -0.95171666801E+01  0.66702774864E+02  0.00000000000E+00 0. -1.
         -5    1    5    5    0  502  0.20040627923E+03  0.65049683752E-02  0.45546252189E+02  0.20557049372E+03  0.47000000000E+01 0.  1.
         11    1    6    6    0    0  0.50759486744E+02  0.55236285205E+02 -0.31557540635E+02  0.81384587415E+02  0.00000000000E+00 0. -1.
        -12    1    6    6    0    0  0.18818495305E+03  0.38426826633E+02 -0.28383332183E+02  0.19415409114E+03  0.00000000000E+00 0.  1.
</event>
<event>
12    1  0.1061634E+000  0.1883694E+03  0.7818608E-02  0.1160173E+00
         21   -1    0    0  503  502  0.00000000000E+00  0.00000000000E+00  0.34260587182E+03  0.34260587182E+03  0.00000000000E+00 0.  1.
         21   -1    0    0  501  503 -0.00000000000E+00 -0.00000000000E+00 -0.12308138023E+03  0.12308138023E+03  0.00000000000E+00 0.  1.
          6    2    1    2  501    0 -0.39366987804E+02  0.60058576482E+02  0.20354428777E+03  0.27664124077E+03  0.17304134383E+03 0.  0.
         24    2    3    3    0    0 -0.17275133323E+02  0.19293194563E+02  0.20323008106E+02  0.87585709989E+02  0.81163873417E+02 0.  0.
         -6    2    1    2    0  502  0.39366987804E+02 -0.60058576482E+02  0.15980203830E+02  0.18904601128E+03  0.17414429399E+03 0.  0.
        -24    2    5    5    0    0 -0.14937415612E+02 -0.63223189679E+02 -0.40385982054E+02  0.11057168479E+03  0.79842168261E+02 0.  0.
          5    1    3    3  501    0 -0.22091854480E+02  0.40765381919E+02  0.18322127966E+03  0.18905553078E+03  0.47000000000E+01 0. -1.
        -13    1    4    4    0    0  0.28409361314E+02  0.21742911197E+02 -0.36048558306E+01  0.35956097997E+02  0.00000000000E+00 0.  1.
         14    1    4    4    0    0 -0.45684494638E+02 -0.24497166342E+01  0.23927863937E+02  0.51629611992E+02  0.00000000000E+00 0. -1.
         -5    1    5    5    0  502  0.54304403415E+02  0.31646131972E+01  0.56366185883E+02  0.78474326490E+02  0.47000000000E+01 0.  1.
         11    1    6    6    0    0 -0.46821822367E+01 -0.74203719891E+02 -0.78879289938E+01  0.74768538169E+02  0.00000000000E+00 0. -1.
        -12    1    6    6    0    0 -0.10255233375E+02  0.10980530212E+02 -0.32498053060E+02  0.35803146621E+02  0.00000000000E+00 0.  1.
</event>
<event>
12    1  0.1061634E+000  0.2785981E+03  0.7818608E-02  0.1096505E+00
         21   -1    0    0  501  502  0.00000000000E+00  0.00000000000E+00  0.91118876734E+02  0.91118876734E+02  0.00000000000E+00 0.  1.
         21   -1    0    0  502  503 -0.00000000000E+00 -0.00000000000E+00 -0.94999655042E+03  0.94999655042E+03  0.00000000000E+00 0.  1.
         -6    2    1    2    0  503  0.90908142965E+02  0.19872733238E+03 -0.59745008605E+03  0.65906659828E+03  0.17223626957E+03 0.  0.
        -24    2    3    3    0    0 -0.91080906176E+01  0.13988019944E+03 -0.35434156103E+03  0.38964114111E+03  0.81319428553E+02 0.  0.
          6    2    1    2  501    0 -0.90908142965E+02 -0.19872733238E+03 -0.26142758764E+03  0.38204882888E+03  0.17280069727E+03 0.  0.
         24    2    5    5    0    0  0.11364497551E+02 -0.65866634616E+02 -0.61941971660E+02  0.12141832608E+03  0.80237377164E+02 0.  0.
          5    1    5    5  501    0 -0.10227264052E+03 -0.13286069776E+03 -0.19948561598E+03  0.26063050280E+03  0.47000000000E+01 0. -1.
        -13    1    6    6    0    0 -0.15136105344E+02  0.13340905108E+02 -0.66168158839E+01  0.21233550964E+02  0.00000000000E+00 0.  1.
         14    1    6    6    0    0  0.26500602895E+02 -0.79207539724E+02 -0.55325155776E+02  0.10018477511E+03  0.00000000000E+00 0. -1.
         -5    1    3    3    0  503  0.10001623358E+03  0.58847132940E+02 -0.24310852502E+03  0.26942545717E+03  0.47000000000E+01 0.  1.
         13    1    4    4    0    0 -0.36381130749E+02  0.25845893900E+02 -0.89684121496E+02  0.10017404132E+03  0.00000000000E+00 0. -1.
        -14    1    4    4    0    0  0.27273040132E+02  0.11403430554E+03 -0.26465743954E+03  0.28946709979E+03  0.00000000000E+00 0.  1.
</event>
<event>
12    1  0.1061634E+000  0.1757663E+03  0.7818608E-02  0.1172234E+00
         21   -1    0    0  501  502  0.00000000000E+00  0.00000000000E+00  0.32726033817E+03  0.32726033817E+03  0.00000000000E+00 0.  1.
         21   -1    0    0  502  503 -0.00000000000E+00 -0.00000000000E+00 -0.15414832175E+03  0.15414832175E+03  0.00000000000E+00 0.  1.
         -6    2    1    2    0  503  0.38855427377E+01 -0.35337363328E+02  0.23697134469E+03  0.29440119798E+03  0.17103455931E+03 0.  0.
        -24    2    3    3    0    0  0.35787274039E+02  0.66071316738E+01  0.22455214054E+03  0.24005611768E+03  0.76673937182E+02 0.  0.
          6    2    1    2  501    0 -0.38855427377E+01  0.35337363328E+02 -0.63859328269E+02  0.18700746195E+03  0.17213352471E+03 0.  0.
         24    2    5    5    0    0  0.35944814296E+02  0.73761426769E+02 -0.19480830728E+02  0.11591310889E+03  0.79520867030E+02 0.  0.
          5    1    5    5  501    0 -0.39830357034E+02 -0.38424063441E+02 -0.44378497541E+02  0.71094353058E+02  0.47000000000E+01 0. -1.
        -13    1    6    6    0    0 -0.11561796935E+02  0.60104146464E+02  0.36980462744E+01  0.61317690080E+02  0.00000000000E+00 0.  1.
         14    1    6    6    0    0  0.47506611232E+02  0.13657280305E+02 -0.23178877003E+02  0.54595418811E+02  0.00000000000E+00 0. -1.
         -5    1    3    3    0  503 -0.31901731301E+02 -0.41944495002E+02  0.12419204154E+02  0.54345080300E+02  0.47000000000E+01 0.  1.
         13    1    4    4    0    0 -0.17716378234E+02 -0.18450750374E+02  0.60277476782E+02  0.65480336395E+02  0.00000000000E+00 0. -1.
        -14    1    4    4    0    0  0.53503652273E+02  0.25057882048E+02  0.16427466375E+03  0.17457578128E+03  0.00000000000E+00 0.  1.
</event>
<event>
12    1  0.1061634E+000  0.2384255E+03  0.7818608E-02  0.1120935E+00
         21   -1    0    0  503  502  0.00000000000E+00  0.00000000000E+00  0.29579724651E+03  0.29579724651E+03  0.00000000000E+00 0. -1.
         21   -1    0    0  501  503 -0.00000000000E+00 -0.00000000000E+00 -0.28509153331E+03  0.28509153331E+03  0.00000000000E+00 0.  1.
          6    2    1    2  501    0  0.89375059325E+02 -0.13836912261E+03  0.17154319990E+03  0.29372399809E+03  0.17237401865E+03 0.  0.
         24    2    3    3    0    0  0.12125199482E+03 -0.71017428633E+02  0.98336568773E+02  0.18915970907E+03  0.79785922077E+02 0.  0.
         -6    2    1    2    0  502 -0.89375059325E+02  0.13836912261E+03 -0.16083748670E+03  0.28716478172E+03  0.17164206773E+03 0.  0.
        -24    2    5    5    0    0 -0.10119386469E+03  0.76654110300E+02 -0.16666753819E+03  0.22388361229E+03  0.78928782384E+02 0.  0.
          5    1    3    3  501    0 -0.31876935493E+02 -0.67351693973E+02  0.73206631124E+02  0.10456428902E+03  0.47000000000E+01 0. -1.
        -13    1    4    4    0    0  0.65097891398E+02 -0.48079995215E+01  0.74663889184E+02  0.99174334744E+02  0.00000000000E+00 0.  1.
         14    1    4    4    0    0  0.56154103420E+02 -0.66209429112E+02  0.23672679589E+02  0.89985374329E+02  0.00000000000E+00 0. -1.
         -5    1    5    5    0  502  0.11818805362E+02  0.61715012307E+02  0.58300514990E+01  0.63281169432E+02  0.47000000000E+01 0.  1.
         11    1    6    6    0    0 -0.11607761408E+02  0.52450453954E+02 -0.83403264373E+02  0.99206324158E+02  0.00000000000E+00 0. -1.
        -12    1    6    6    0    0 -0.89586103279E+02  0.24203656345E+02 -0.83264273821E+02  0.12467728813E+03  0.00000000000E+00 0.  1.
</event>
<event>
12    1  0.1061634E+000  0.1971556E+03  0.7818608E-02  0.1156584E+00
         21   -1    0    0  503  502  0.00000000000E+00  0.00000000000E+00  0.65161343770E+03  0.65161343770E+03  0.00000000000E+00 0. -1.
         21   -1    0    0  501  503 -0.00000000000E+00 -0.00000000000E+00 -0.54954000738E+02  0.54954000738E+02  0.00000000000E+00 0. -1.
          6    2    1    2  501    0 -0.19043933541E+01 -0.39143503029E+02  0.26483201415E+03  0.33016105808E+03  0.19322134460E+03 0.  0.
         24    2    3    3    0    0 -0.49531759589E+02 -0.65271860243E+02  0.86820347134E+02  0.14398560143E+03  0.80500122948E+02 0.  0.
         -6    2    1    2    0  502  0.19043933541E+01  0.39143503029E+02  0.33182742281E+03  0.37640638036E+03  0.17331036928E+03 0.  0.
        -24    2    5    5    0    0  0.64093333952E+02  0.42349913307E+02  0.16513392854E+03  0.19839919951E+03  0.78686449903E+02 0.  0.
          5    1    3    3  501    0  0.47627366235E+02  0.26128357214E+02  0.17801166701E+03  0.18617545665E+03  0.47000000000E+01 0. -1.
        -13    1    4    4    0    0  0.20854542195E+02 -0.77144133233E+01  0.79282445469E+01  0.23606803356E+02  0.00000000000E+00 0.  1.
         14    1    4    4    0    0 -0.70386301784E+02 -0.57557446920E+02  0.78892102587E+02  0.12037879807E+03  0.00000000000E+00 0. -1.
         -5    1    5    5    0  502 -0.62188940598E+02 -0.32064102785E+01  0.16669349428E+03  0.17800718085E+03  0.47000000000E+01 0.  1.
         13    1    6    6    0    0  0.44108338400E+02 -0.92758019883E+01  0.35284200380E+02  0.57241250994E+02  0.00000000000E+00 0. -1.
        -14    1    6    6    0    0  0.19984995552E+02  0.51625715296E+02  0.12984972816E+03  0.14115794852E+03  0.00000000000E+00 0.  1.
</event>
<event>
12    1  0.1061634E+000  0.1853752E+03  0.7818608E-02  0.1163185E+00
         21   -1    0    0  503  502  0.00000000000E+00  0.00000000000E+00  0.70824833196E+03  0.70824833196E+03  0.00000000000E+00 0.  1.
         21   -1    0    0  501  503 -0.00000000000E+00 -0.00000000000E+00 -0.48019578558E+02  0.48019578558E+02  0.00000000000E+00 0.  1.
          6    2    1    2  501    0 -0.42473729805E+01 -0.68685517638E+02  0.34297631888E+03  0.38986755025E+03  0.17212847211E+03 0.  0.
         24    2    3    3    0    0 -0.17781130658E+02 -0.11224274472E+03  0.25846545576E+03  0.29371886012E+03  0.80943033153E+02 0.  0.
         -6    2    1    2    0  502  0.42473729805E+01  0.68685517638E+02  0.31725243451E+03  0.36640036026E+03  0.16989519206E+03 0.  0.
        -24    2    5    5    0    0 -0.40463872870E+02  0.72961267800E+02  0.12905496379E+03  0.17286029843E+03  0.79150663233E+02 0.  0.
          5    1    3    3  501    0  0.13533757678E+02  0.43557227086E+02  0.84510863125E+02  0.96148690134E+02  0.47000000000E+01 0. -1.
        -11    1    4    4    0    0  0.19365914192E+02 -0.30177221370E+01  0.70482294996E+02  0.73156675616E+02  0.00000000000E+00 0.  1.
         12    1    4    4    0    0 -0.37147044850E+02 -0.10922502259E+03  0.18798316076E+03  0.22056218450E+03  0.00000000000E+00 0. -1.
         -5    1    5    5    0  502  0.44711245850E+02 -0.42757501624E+01  0.18819747073E+03  0.19354006183E+03  0.47000000000E+01 0.  1.
         13    1    6    6    0    0 -0.35454758669E+02  0.72206548484E+01  0.88109339321E+02  0.95249322540E+02  0.00000000000E+00 0. -1.
        -14    1    6    6    0    0 -0.50091142004E+01  0.65740612952E+02  0.40945624465E+02  0.77610975894E+02  0.00000000000E+00 0.  1.
</event>
<event>
12    1  0.1061634E+000  0.2378360E+03  0.7818608E-02  0.1121358E+00
         21   -1    0    0  501  502  0.00000000000E+00  0.00000000000E+00  0.42505455637E+03  0.42505455637E+03  0.00000000000E+00 0. -1.
         21   -1    0    0  502  503 -0.00000000000E+00 -0.00000000000E+00 -0.16232438504E+03  0.16232438504E+03  0.00000000000E+00 0. -1.
         -6    2    1    2    0  503  0.15423059101E+03 -0.55965593324E+02  0.25668244962E+03  0.34946608218E+03  0.17123504258E+03 0.  0.
        -24    2    3    3    0    0  0.16382055698E+02 -0.26169891745E+02  0.14808009748E+03  0.17140271309E+03  0.80609799658E+02 0.  0.
          6    2    1    2  501    0 -0.15423059101E+03  0.55965593324E+02  0.60477217062E+01  0.23791285923E+03  0.17218226044E+03 0.  0.
         24    2    5    5    0    0 -0.15239824882E+02 -0.75452861819E+01 -0.15806745156E+02  0.83472668195E+02  0.80178859665E+02 0.  0.
          5    1    5    5  501    0 -0.13899076613E+03  0.63510879506E+02  0.21854466862E+02  0.15444019103E+03  0.47000000000E+01 0. -1.
        -13    1    6    6    0    0 -0.27359941880E+02  0.30293422427E+02 -0.15714393537E+02  0.43740142047E+02  0.00000000000E+00 0.  1.
         14    1    6    6    0    0  0.12120116999E+02 -0.37838708609E+02 -0.92351618880E-01  0.39732526148E+02  0.00000000000E+00 0. -1.
         -5    1    3    3    0  503  0.13784853531E+03 -0.29795701579E+02  0.10860235214E+03  0.17806336909E+03  0.47000000000E+01 0.  1.
         11    1    4    4    0    0 -0.21494981374E+02 -0.70358570494E+01  0.64018552241E+01  0.23505770759E+02  0.00000000000E+00 0. -1.
        -12    1    4    4    0    0  0.37877037072E+02 -0.19134034696E+02  0.14167824226E+03  0.14789694233E+03  0.00000000000E+00 0.  1.
</event>
<event>
12    1  0.1061634E+000  0.2253773E+03  0.7818608E-02  0.1131170E+00
         21   -1    0    0  501  502  0.00000000000E+00  0.00000000000E+00  0.18274968174E+03  0.18274968174E+03  0.00000000000E+00 0.  1.
         21   -1    0    0  502  503 -0.00000000000E+00 -0.00000000000E+00 -0.27134527826E+03  0.27134527826E+03  0.00000000000E+00 0.  1.
         -6    2    1    2    0  503 -0.11314871583E+03  0.73535259892E+02 -0.26082669319E+02  0.22020862895E+03  0.17205077240E+03 0.  0.
        -24    2    3    3    0    0 -0.10685424379E+03  0.10869589904E+03 -0.47103778949E+02  0.17849690429E+03  0.80060920352E+02 0.  0.
          6    2    1    2  501    0  0.11314871583E+03 -0.73535259892E+02 -0.62512927199E+02  0.23388633105E+03  0.18051283457E+03 0.  0.
         24    2    5    5    0    0  0.13493572403E+03 -0.12052083214E+02 -0.25275520927E+02  0.15862964254E+03  0.78559590153E+02 0.  0.
          5    1    5    5  501    0 -0.21787008198E+02 -0.61483176677E+02 -0.37237406271E+02  0.75256688516E+02  0.47000000000E+01 0. -1.
        -13    1    6    6    0    0  0.31015183401E+02  0.81925590802E+01  0.25717744907E+02  0.41115228672E+02  0.00000000000E+00 0.  1.
         14    1    6    6    0    0  0.10392054062E+03 -0.20244642294E+02 -0.50993265834E+02  0.11751441386E+03  0.00000000000E+00 0. -1.
         -5    1    3    3    0  503 -0.62944720372E+01 -0.35160639146E+02  0.21021109631E+02  0.41711724652E+02  0.47000000000E+01 0.  1.
         11    1    4    4    0    0 -0.10101262476E+03  0.70462332985E+02 -0.78816318651E+01  0.12341236102E+03  0.00000000000E+00 0. -1.
        -12    1    4    4    0    0 -0.58416190266E+01  0.38233566053E+02 -0.39222147084E+02  0.55084543275E+02  0.00000000000E+00 0.  1.
</event>
<event>
12    1  0.1061634E+000  0.1932765E+03  0.7818608E-02  0.1157941E+00
         21   -1    0    0  501  502  0.00000000000E+00  0.00000000000E+00  0.62031399713E+03  0.62031399713E+03  0.00000000000E+00 0.  1.
         21   -1    0    0  502  503 -0.00000000000E+00 -0.00000000000E+00 -0.57592762237E+02  0.57592762237E+02  0.00000000000E+00 0.  1.
         -6    2    1    2    0  503  0.25112991615E+02 -0.51978168592E+02  0.23835495042E+03  0.30032329464E+03  0.17334533901E+03 0.  0.
        -24    2    3    3    0    0 -0.16860440906E+02  0.29364621293E+02  0.14415821041E+03  0.16889447614E+03  0.81223143195E+02 0.  0.
          6    2    1    2  501    0 -0.25112991615E+02  0.51978168592E+02  0.32436628447E+03  0.37758346473E+03  0.18445431406E+03 0.  0.
         24    2    5    5    0    0 -0.76368203141E+02  0.11160073136E+02  0.27046325760E+03  0.29260793925E+03  0.80699335273E+02 0.  0.
          5    1    5    5  501    0  0.51255211526E+02  0.40818095456E+02  0.53903026872E+02  0.84975525484E+02  0.47000000000E+01 0. -1.
        -11    1    6    6    0    0 -0.74529837116E+02  0.34902645024E+02  0.16372026134E+03  0.18324086668E+03  0.00000000000E+00 0.  1.
         12    1    6    6    0    0 -0.18383660254E+01 -0.23742571888E+02  0.10674299626E+03  0.10936707256E+03  0.00000000000E+00 0. -1.
         -5    1    3    3    0  503  0.41973432520E+02 -0.81342789885E+02  0.94196740015E+02  0.13142881850E+03  0.47000000000E+01 0.  1.
         13    1    4    4    0    0 -0.81636009155E+01 -0.21878674503E+02  0.93290234799E+02  0.96168543125E+02  0.00000000000E+00 0. -1.
        -14    1    4    4    0    0 -0.86968399901E+01  0.51243295797E+02  0.50867975609E+02  0.72725933012E+02  0.00000000000E+00 0.  1.
</event>
<event>
12    1  0.1061634E+000  0.1973442E+03  0.7818608E-02  0.1152128E+00
         21   -1    0    0  503  502  0.00000000000E+00  0.00000000000E+00  0.17911390959E+03  0.17911390959E+03  0.00000000000E+00 0.  1.
         21   -1    0    0  501  503 -0.00000000000E+00 -0.00000000000E+00 -0.25634885673E+03  0.25634885673E+03  0.00000000000E+00 0.  1.
          6    2    1    2  501    0 -0.52714882772E+02 -0.76832803754E+02 -0.12412040734E+03  0.23262540586E+03  0.17328175131E+03 0.  0.
         24    2    3    3    0    0 -0.33996872591E+01  0.17448421915E+02 -0.22583563214E+02  0.85476641896E+02  0.80499898643E+02 0.  0.
         -6    2    1    2    0  502  0.52714882772E+02  0.76832803754E+02  0.46885460194E+02  0.20283736046E+03  0.17396151822E+03 0.  0.
        -24    2    5    5    0    0 -0.13262765426E+02  0.86993730398E+02 -0.59107605091E+01  0.11759754927E+03  0.77784551348E+02 0.  0.
          5    1    3    3  501    0 -0.49315195512E+02 -0.94281225669E+02 -0.10153684412E+03  0.14714876397E+03  0.47000000000E+01 0. -1.
        -11    1    4    4    0    0 -0.35274503948E+02 -0.43065605858E+01  0.77731288785E+01  0.36376621963E+02  0.00000000000E+00 0.  1.
         12    1    4    4    0    0  0.31874816689E+02  0.21754982501E+02 -0.30356692092E+02  0.49100019933E+02  0.00000000000E+00 0. -1.
         -5    1    5    5    0  502  0.65977648198E+02 -0.10160926644E+02  0.52796220703E+02  0.85239811195E+02  0.47000000000E+01 0.  1.
         13    1    6    6    0    0 -0.45755070960E+02  0.43282346652E+02 -0.33700548040E+01  0.63073332873E+02  0.00000000000E+00 0. -1.
        -14    1    6    6    0    0  0.32492305534E+02  0.43711383746E+02 -0.25407057051E+01  0.54524216394E+02  0.00000000000E+00 0.  1.
</event>
<event>
12    1  0.1061634E+000  0.1896943E+03  0.7818608E-02  0.1158768E+00
         21   -1    0    0  501  502  0.00000000000E+00  0.00000000000E+00  0.75185877987E+03  0.75185877987E+03  0.00000000000E+00 0.  1.
         21   -1    0    0  502  503 -0.00000000000E+00 -0.00000000000E+00 -0.56403964577E+02  0.56403964577E+02  0.00000000000E+00 0.  1.
         -6    2    1    2    0  503 -0.76207964317E+02  0.26838208285E+02  0.50543754001E+03  0.53986206767E+03  0.17162750949E+03 0.  0.
        -24    2    3    3    0    0 -0.69450821243E+02 -0.46390105461E+02  0.28127894472E+03  0.30390187875E+03  0.79139425740E+02 0.  0.
          6    2    1    2  501    0  0.76207964317E+02 -0.26838208285E+02  0.19001727529E+03  0.26840067678E+03  0.17147715632E+03 0.  0.
         24    2    5    5    0    0  0.11256547546E+03 -0.40824953585E+01  0.95571988667E+02  0.16456574406E+03  0.72527415974E+02 0.  0.
          5    1    5    5  501    0 -0.36357511141E+02 -0.22755712926E+02  0.94445286622E+02  0.10383493272E+03  0.47000000000E+01 0. -1.
        -11    1    6    6    0    0  0.54417309805E+02  0.18147680488E+02  0.83259020140E+02  0.10110710335E+03  0.00000000000E+00 0.  1.
         12    1    6    6    0    0  0.58148165653E+02 -0.22230175846E+02  0.12312968527E+02  0.63458640711E+02  0.00000000000E+00 0. -1.
         -5    1    3    3    0  503 -0.67571430738E+01  0.73228313746E+02  0.22415859528E+03  0.23596018892E+03  0.47000000000E+01 0.  1.
         13    1    4    4    0    0 -0.59087231464E+02  0.47337246794E+01  0.11132492900E+03  0.12612275325E+03  0.00000000000E+00 0. -1.
        -14    1    4    4    0    0 -0.10363589779E+02 -0.51123830141E+02  0.16995401572E+03  0.17777912549E+03  0.00000000000E+00 0.  1.
</event>
<event>
12    1  0.1061634E+000  0.7134332E+03  0.7818608E-02  0.9694595E-01
         21   -1    0    0  503  502  0.00000000000E+00  0.00000000000E+00  0.45919694973E+03  0.45919694973E+03  0.00000000000E+00 0. -1.
         21   -1    0    0  501  503 -0.00000000000E+00 -0.00000000000E+00 -0.11595399493E+04  0.11595399493E+04  0.00000000000E+00 0. -1.
          6    2    1    2  501    0 -0.54693789137E+03 -0.42400939156E+03 -0.17989017062E+03  0.73576309934E+03  0.17338351628E+03 0.  0.
         24    2    3    3    0    0 -0.45176897682E+03 -0.31409954348E+03 -0.19561404094E+03  0.58945306175E+03  0.80226724730E+02 0.  0.
         -6    2    1    2    0  502  0.54693789137E+03  0.42400939156E+03 -0.52045282891E+03  0.88297379965E+03  0.17276157730E+03 0.  0.
        -24    2    5    5    0    0  0.16394077232E+03  0.87845929936E+02 -0.17005723580E+03  0.26451456267E+03  0.80343053092E+02 0.  0.
          5    1    3    3  501    0 -0.95168914545E+02 -0.10990984808E+03  0.15723870325E+02  0.14631003759E+03  0.47000000000E+01 0. -1.
        -13    1    4    4    0    0 -0.19397735389E+03 -0.15006971555E+03 -0.12744742808E+03  0.27638918263E+03  0.00000000000E+00 0.  1.
         14    1    4    4    0    0 -0.25779162293E+03 -0.16402982793E+03 -0.68166612859E+02  0.31306387912E+03  0.00000000000E+00 0. -1.
         -5    1    5    5    0  502  0.38299711905E+03  0.33616346163E+03 -0.35039559311E+03  0.61845923698E+03  0.47000000000E+01 0.  1.
         13    1    6    6    0    0  0.10320372473E+03  0.10767421588E+02 -0.76345589487E+02  0.12882389219E+03  0.00000000000E+00 0. -1.
        -14    1    6    6    0    0  0.60737047590E+02  0.77078508348E+02 -0.93711646311E+02  0.13569067047E+03  0.00000000000E+00 0.  1.
</event>
<event>
12    1  0.1061634E+000  0.1983778E+03  0.7818608E-02  0.1151579E+00
         21   -1    0    0  503  502  0.00000000000E+00  0.00000000000E+00  0.54090380921E+03  0.54090380921E+03  0.00000000000E+00 0. -1.
         21   -1    0    0  501  503 -0.00000000000E+00 -0.00000000000E+00 -0.88968555277E+02  0.88968555277E+02  0.00000000000E+00 0. -1.
          6    2    1    2  501    0  0.44027996280E+02 -0.82067238157E+02  0.36264853693E+03  0.41232730566E+03  0.17270306779E+03 0.  0.
         24    2    3    3    0    0 -0.65541062699E+01  0.22673701439E+01  0.25004395298E+03  0.26275204841E+03  0.80427378708E+02 0.  0.
         -6    2    1    2    0  502 -0.44027996280E+02  0.82067238157E+02  0.89286717005E+02  0.21754505882E+03  0.17515775390E+03 0.  0.
        -24    2    5    5    0    0 -0.85846566396E+02  0.88381726484E+02  0.39794058248E+02  0.15227424727E+03  0.80143101844E+02 0.  0.
          5    1    3    3  501    0  0.50582102549E+02 -0.84334608301E+02  0.11260458395E+03  0.14957525725E+03  0.47000000000E+01 0. -1.
        -13    1    4    4    0    0 -0.20749085337E+02  0.11498688077E+02  0.17220439279E+02  0.29313612857E+02  0.00000000000E+00 0.  1.
         14    1    4    4    0    0  0.14194979067E+02 -0.92313179327E+01  0.23282351370E+03  0.23343843555E+03  0.00000000000E+00 0. -1.
         -5    1    5    5    0  502  0.41818570116E+02 -0.63144883263E+01  0.49492658757E+02  0.65270811549E+02  0.47000000000E+01 0.  1.
         11    1    6    6    0    0 -0.77296477067E+02  0.23111474403E+02  0.27998527940E+02  0.85397910881E+02  0.00000000000E+00 0. -1.
        -12    1    6    6    0    0 -0.85500893291E+01  0.65270252081E+02  0.11795530308E+02  0.66876336394E+02  0.00000000000E+00 0.  1.
</event>
<event>
12    1  0.1061634E+000  0.1792385E+03  0.7818608E-02  0.1168703E+00
         21   -1    0    0  503  502  0.00000000000E+00  0.00000000000E+00  0.46750237361E+02  0.46750237361E+02  0.00000000000E+00 0.  1.
         21   -1    0    0  501  503 -0.00000000000E+00 -0.00000000000E+00 -0.10493010154E+04  0.10493010154E+04  0.00000000000E+00 0.  1.
          6    2    1    2  501    0 -0.41920848870E+02  0.28031264310E+02 -0.17761129705E+03  0.25186431117E+03  0.17130892870E+03 0.  0.
         24    2    3    3    0    0 -0.70047935117E+02  0.71260642541E+02 -0.12551861071E+03  0.17840922221E+03  0.78039326933E+02 0.  0.
         -6    2    1    2    0  502  0.41920848870E+02 -0.28031264310E+02 -0.82493948096E+03  0.84418694156E+03  0.17199806891E+03 0.  0.
        -24    2    5    5    0    0 -0.97043077741E+01 -0.39080223168E+02 -0.22038301356E+03  0.23731146129E+03  0.78272725501E+02 0.  0.
          5    1    3    3  501    0  0.28127086246E+02 -0.43229378231E+02 -0.52092686343E+02  0.73455088955E+02  0.47000000000E+01 0. -1.
        -11    1    4    4    0    0 -0.80101292648E+02  0.33904838122E+02 -0.75512752371E+02  0.11518650486E+03  0.00000000000E+00 0.  1.
         12    1    4    4    0    0  0.10053357532E+02  0.37355804419E+02 -0.50005858334E+02  0.63222717350E+02  0.00000000000E+00 0. -1.
         -5    1    5    5    0  502  0.51625156645E+02  0.11048958858E+02 -0.60455646740E+03  0.60687548028E+03  0.47000000000E+01 0.  1.
         13    1    6    6    0    0  0.58621209425E+01  0.17141586743E+02 -0.11876548029E+03  0.12013924324E+03  0.00000000000E+00 0. -1.
        -14    1    6    6    0    0 -0.15566428717E+02 -0.56221809911E+02 -0.10161753327E+03  0.11717221804E+03  0.00000000000E+00 0.  1.
</event>
<event>
12    1  0.1061634E+000  0.2101980E+03  0.7818608E-02  0.1141516E+00
         21   -1    0    0  501  502  0.00000000000E+00  0.00000000000E+00  0.13540805159E+03  0.13540805159E+03  0.00000000000E+00 0. -1.
         21   -1    0    0  502  503 -0.00000000000E+00 -0.00000000000E+00 -0.32834002348E+03  0.32834002348E+03  0.00000000000E+00 0. -1.
         -6    2    1    2    0  503  0.20571435564E+02  0.11944506487E+03 -0.11804338698E+03  0.24060801514E+03  0.17107795958E+03 0.  0.
        -24    2    3    3    0    0  0.67143391017E+02  0.60424823922E+02 -0.11206959018E+03  0.16504273128E+03  0.80747234010E+02 0.  0.
          6    2    1    2  501    0 -0.20571435564E+02 -0.11944506487E+03 -0.74888584918E+02  0.22314005993E+03  0.17173490825E+03 0.  0.
         24    2    5    5    0    0 -0.14235869578E+02 -0.28998643896E+02  0.27190768628E+02  0.86527546288E+02  0.75525472773E+02 0.  0.
          5    1    5    5  501    0 -0.63355659861E+01 -0.90446420976E+02 -0.10207935355E+03  0.13661251364E+03  0.47000000000E+01 0. -1.
        -13    1    6    6    0    0  0.83115484144E+01 -0.90439098879E+01 -0.24101431016E+02  0.27050935661E+02  0.00000000000E+00 0.  1.
         14    1    6    6    0    0 -0.22547417993E+02 -0.19954734008E+02  0.51292199644E+02  0.59476610628E+02  0.00000000000E+00 0. -1.
         -5    1    3    3    0  503 -0.46571955453E+02  0.59020240949E+02 -0.59737967925E+01  0.75565283858E+02  0.47000000000E+01 0.  1.
         11    1    4    4    0    0  0.47960081242E+02 -0.57026705709E+01 -0.26099599517E+02  0.54898806356E+02  0.00000000000E+00 0. -1.
        -12    1    4    4    0    0  0.19183309776E+02  0.66127494493E+02 -0.85969990668E+02  0.11014392492E+03  0.00000000000E+00 0.  1.
</event>
<event>
12    1  0.1061634E+000  0.3245043E+03  0.7818608E-02  0.1073660E+00
         21   -1    0    0  501  502  0.00000000000E+00  0.00000000000E+00  0.20957448088E+03  0.20957448088E+03  0.00000000000E+00 0. -1.
         21   -1    0    0  502  503 -0.00000000000E+00 -0.00000000000E+00 -0.54318490675E+03  0.54318490675E+03  0.00000000000E+00 0.  1.
         -6    2    1    2    0  503  0.20893873072E+03  0.17913275052E+03 -0.27084722338E+03  0.42224122237E+03  0.17083763038E+03 0.  0.
        -24    2    3    3    0    0  0.20948231808E+03  0.10282794626E+03 -0.21927918448E+03  0.33002370084E+03  0.79848946464E+02 0.  0.
          6    2    1    2  501    0 -0.20893873072E+03 -0.17913275052E+03 -0.62763202487E+02  0.33051816525E+03  0.17192760824E+03 0.  0.
         24    2    5    5    0    0 -0.66645822321E+02 -0.88256072372E+02 -0.85156959326E+02  0.16013796465E+03  0.78496242323E+02 0.  0.
          5    1    5    5  501    0 -0.14229290840E+03 -0.90876678147E+02  0.22393756839E+02  0.17038020060E+03  0.47000000000E+01 0. -1.
        -13    1    6    6    0    0 -0.18194915919E+02 -0.29474505293E+02 -0.75863771447E+02  0.83397321574E+02  0.00000000000E+00 0.  1.
         14    1    6    6    0    0 -0.48450906402E+02 -0.58781567079E+02 -0.92931878782E+01  0.76740643080E+02  0.00000000000E+00 0. -1.
         -5    1    3    3    0  503 -0.54358736306E+00  0.76304804262E+02 -0.51568038905E+02  0.92217521530E+02  0.47000000000E+01 0.  1.
         11    1    4    4    0    0  0.64368423947E+02  0.70853668070E+02 -0.10841831229E+03  0.14463079450E+03  0.00000000000E+00 0. -1.
        -12    1    4    4    0    0  0.14511389413E+03  0.31974278188E+02 -0.11086087219E+03  0.18539290633E+03  0.00000000000E+00 0.  1.
</event>
<event>
12    1  0.1061634E+000  0.1765412E+03  0.7818608E-02  0.1171380E+00
         21   -1    0    0  503  502  0.00000000000E+00  0.00000000000E+00  0.25619589156E+03  0.25619589156E+03  0.00000000000E+00 0.  1.
         21   -1    0    0  501  503 -0.00000000000E+00 -0.00000000000E+00 -0.17023099540E+03  0.17023099540E+03  0.00000000000E+00 0.  1.
          6    2    1    2  501    0  0.38277078785E+02  0.15828295445E+02  0.15755002592E+03  0.23661956339E+03  0.17161333695E+03 0.  0.
         24    2    3    3    0    0 -0.34843441203E+02 -0.24745049998E+02  0.91166574635E+02  0.12974739954E+03  0.81833125696E+02 0.  0.
         -6    2    1    2    0  502 -0.38277078785E+02 -0.15828295445E+02 -0.71585129756E+02  0.18980732357E+03  0.17084121160E+03 0.  0.
        -24    2    5    5    0    0  0.90409946340E+01 -0.22669513742E+02  0.18586443409E+02  0.87636853536E+02  0.82092117659E+02 0.  0.
          5    1    3    3  501    0  0.73120519988E+02  0.40573345444E+02  0.66383451281E+02  0.10687216386E+03  0.47000000000E+01 0. -1.
        -13    1    4    4    0    0 -0.72101824739E+01 -0.52497331054E+02  0.56249471660E+02  0.77278454702E+02  0.00000000000E+00 0.  1.
         14    1    4    4    0    0 -0.27633258729E+02  0.27752281055E+02  0.34917102975E+02  0.52468944833E+02  0.00000000000E+00 0. -1.
         -5    1    5    5    0  502 -0.47318073419E+02  0.68412182965E+01 -0.90171573165E+02  0.10217047003E+03  0.47000000000E+01 0.  1.
         11    1    6    6    0    0 -0.29657561770E+02 -0.31917225752E+02  0.19738793410E+02  0.47832000117E+02  0.00000000000E+00 0. -1.
        -12    1    6    6    0    0  0.38698556404E+02  0.92477120102E+01 -0.11523500009E+01  0.39804853419E+02  0.00000000000E+00 0.  1.
</event>
<event>
12    1  0.1061634E+000  0.2498651E+03  0.7818608E-02  0.1113593E+00
         21   -1    0    0  501  502  0.00000000000E+00  0.00000000000E+00  0.16516115410E+03  0.16516115410E+03  0.00000000000E+00 0.  1.
         21   -1    0    0  502  503 -0.00000000000E+00 -0.00000000000E+00 -0.51122782792E+03  0.51122782792E+03  0.00000000000E+00 0.  1.
         -6    2    1    2    0  503 -0.95605881264E+02  0.15477844696E+03 -0.34724792293E+03  0.42780100064E+03  0.17127674680E+03 0.  0.
        -24    2    3    3    0    0 -0.39652951316E+02  0.15797356150E+03 -0.31439444277E+03  0.36266744335E+03  0.78458945570E+02 0.  0.
          6    2    1    2  501    0  0.95605881264E+02 -0.15477844696E+03  0.11812491135E+01  0.24858798139E+03  0.16940406419E+03 0.  0.
         24    2    5    5    0    0  0.11159519675E+03 -0.62324068329E+02 -0.21181425327E+02  0.15201857864E+03  0.79518664753E+02 0.  0.
          5    1    5    5  501    0 -0.15989315484E+02 -0.92454378630E+02  0.22362674440E+02  0.96569402740E+02  0.47000000000E+01 0. -1.
        -11    1    6    6    0    0  0.35586927314E+02 -0.19763355739E+02 -0.46013919199E+02  0.61435334994E+02  0.00000000000E+00 0.  1.
         12    1    6    6    0    0  0.76008269433E+02 -0.42560712590E+02  0.24832493872E+02  0.90583243651E+02  0.00000000000E+00 0. -1.
         -5    1    3    3    0  503 -0.55952929948E+02 -0.31951145400E+01 -0.32853480163E+02  0.65133557292E+02  0.47000000000E+01 0.  1.
         13    1    4    4    0    0 -0.44111547368E+02  0.40013575070E+02 -0.13930958951E+03  0.15150602803E+03  0.00000000000E+00 0. -1.
        -14    1    4    4    0    0  0.44585960520E+01  0.11795998643E+03 -0.17508485326E+03  0.21116141532E+03  0.00000000000E+00 0.  1.
</event>
<event>
12    1  0.1061634E+000  0.2267682E+03  0.7818608E-02  0.1129453E+00
         21   -1    0    0  501  502  0.00000000000E+00  0.00000000000E+00  0.27956040812E+03  0.27956040812E+03  0.00000000000E+00 0. -1.
         21   -1    0    0  502  503 -0.00000000000E+00 -0.00000000000E+00 -0.21704672171E+03  0.21704672171E+03  0.00000000000E+00 0. -1.
         -6    2    1    2    0  503  0.38189075328E+02 -0.13921107198E+03  0.13139755243E+03  0.25960757637E+03  0.17115095351E+03 0.  0.
        -24    2    3    3    0    0  0.63870392550E+02 -0.24225868217E+02  0.67327387250E+02  0.12541292966E+03  0.80802884333E+02 0.  0.
          6    2    1    2  501    0 -0.38189075328E+02  0.13921107198E+03 -0.68883866022E+02  0.23699955346E+03  0.17488760192E+03 0.  0.
         24    2    5    5    0    0 -0.49275830335E+02  0.13508371689E+03  0.27640056166E+01  0.16422965098E+03  0.79297039729E+02 0.  0.
          5    1    5    5  501    0  0.11086755007E+02  0.41273550916E+01 -0.71647871639E+02  0.72769902480E+02  0.47000000000E+01 0. -1.
        -11    1    6    6    0    0 -0.42452135367E+01  0.49942102027E+02  0.36686728485E+02  0.62114019672E+02  0.00000000000E+00 0.  1.
         12    1    6    6    0    0 -0.45030616798E+02  0.85141614862E+02 -0.33922722868E+02  0.10211563131E+03  0.00000000000E+00 0. -1.
         -5    1    3    3    0  503 -0.25681317222E+02 -0.11498520376E+03  0.64070165183E+02  0.13419464671E+03  0.47000000000E+01 0.  1.
         11    1    4    4    0    0  0.21040993829E+02  0.15485751190E+02  0.61374358671E+02  0.66703401814E+02  0.00000000000E+00 0. -1.
        -12    1    4    4    0    0  0.42829398721E+02 -0.39711619407E+02  0.59530285791E+01  0.58709527846E+02  0.00000000000E+00 0.  1.
</event>
<event>
12    1  0.1061634E+000  0.2969183E+03  0.7818608E-02  0.1087065E+00
         21   -1    0    0  503  502  0.00000000000E+00  0.00000000000E+00  0.37755954048E+03  0.37755954048E+03  0.00000000000E+00 0.  1.
         21   -1    0    0  501  503 -0.00000000000E+00 -0.00000000000E+00 -0.23415414548E+03  0.23415414548E+03  0.00000000000E+00 0.  1.
          6    2    1    2  501    0 -0.23724470491E+03 -0.16559029568E+02  0.41375331686E+02  0.29978721396E+03  0.17776727515E+03 0.  0.
         24    2    3    3    0    0 -0.16552224096E+03 -0.80764637195E+02  0.32170595609E+02  0.20297146601E+03  0.79005885329E+02 0.  0.
         -6    2    1    2    0  502  0.23724470491E+03  0.16559029568E+02  0.10203006332E+03  0.31192647200E+03  0.17415148190E+03 0.  0.
        -24    2    5    5    0    0  0.16557776963E+03 -0.39587865757E+02  0.11388642974E+03  0.21999559095E+03  0.80279164462E+02 0.  0.
          5    1    3    3  501    0 -0.71722463943E+02  0.64205607626E+02  0.92047360772E+01  0.96815747950E+02  0.47000000000E+01 0. -1.
        -11    1    4    4    0    0 -0.53990981447E+02 -0.69620572215E+02  0.18845918313E+02  0.90095609161E+02  0.00000000000E+00 0.  1.
         12    1    4    4    0    0 -0.11153125952E+03 -0.11144064980E+02  0.13324677296E+02  0.11287585685E+03  0.00000000000E+00 0. -1.
         -5    1    5    5    0  502  0.71666935274E+02  0.56146895326E+02 -0.11856366420E+02  0.91930881052E+02  0.47000000000E+01 0.  1.
         11    1    6    6    0    0  0.12324839083E+03 -0.27567676821E+01  0.45199704594E+02  0.13130414657E+03  0.00000000000E+00 0. -1.
        -12    1    6    6    0    0  0.42329378802E+02 -0.36831098075E+02  0.68686725149E+02  0.88691444384E+02  0.00000000000E+00 0.  1.
</event>
<event>
12    1  0.1061634E+000  0.2006308E+03  0.7818608E-02  0.1149337E+00
         21   -1    0    0  503  502  0.00000000000E+00  0.00000000000E+00  0.22894941691E+03  0.22894941691E+03  0.00000000000E+00 0. -1.
         21   -1    0    0  501  503 -0.00000000000E+00 -0.00000000000E+00 -0.17865248009E+03  0.17865248009E+03  0.00000000000E+00 0. -1.
          6    2    1    2  501    0  0.21174101542E+02 -0.10106510342E+03 -0.28244522851E+01  0.20065071575E+03  0.17201812257E+03 0.  0.
         24    2    3    3    0    0 -0.57548428858E+01 -0.12268324746E+03  0.33486990439E+02  0.15032057495E+03  0.79941224053E+02 0.  0.
         -6    2    1    2    0  502 -0.21174101542E+02  0.10106510342E+03  0.53121389101E+02  0.20695118125E+03  0.17130210663E+03 0.  0.
        -24    2    5    5    0    0  0.62523961701E+01  0.43614630372E+02  0.96105846918E+02  0.12999324960E+03  0.75634533706E+02 0.  0.
          5    1    3    3  501    0  0.26928944427E+02  0.21618144032E+02 -0.36311442724E+02  0.50330140792E+02  0.47000000000E+01 0. -1.
        -11    1    4    4    0    0  0.20896179676E+01 -0.63441204796E+02 -0.23557098931E+02  0.67705907270E+02  0.00000000000E+00 0.  1.
         12    1    4    4    0    0 -0.78444608534E+01 -0.59242042660E+02  0.57044089370E+02  0.82614667685E+02  0.00000000000E+00 0. -1.
         -5    1    5    5    0  502 -0.27426497712E+02  0.57450473051E+02 -0.42984457817E+02  0.76957931654E+02  0.47000000000E+01 0.  1.
         11    1    6    6    0    0  0.17450451482E+02 -0.16758293990E+02  0.40381570158E+02  0.47074726582E+02  0.00000000000E+00 0. -1.
        -12    1    6    6    0    0 -0.11198055312E+02  0.60372924362E+02  0.55724276760E+02  0.82918523016E+02  0.00000000000E+00 0.  1.
</event>
<event>
12    1  0.1061634E+000  0.4005806E+03  0.7818608E-02  0.1043621E+00
         21   -1    0    0  503  502  0.00000000000E+00  0.00000000000E+00  0.49027021471E+03  0.49027021471E+03  0.00000000000E+00 0. -1.
         21   -1    0    0  501  503 -0.00000000000E+00 -0.00000000000E+00 -0.43087208151E+03  0.43087208151E+03  0.00000000000E+00 0. -1.
          6    2    1    2  501    0  0.35788892441E+03 -0.53640060625E+02  0.25593602106E+03  0.47494504896E+03  0.17061012377E+03 0.  0.
         24    2    3    3    0    0  0.12510055215E+03 -0.76772850048E+02  0.12094840008E+03  0.20481674606E+03  0.76007666277E+02 0.  0.
         -6    2    1    2    0  502 -0.35788892441E+03  0.53640060625E+02 -0.19653788786E+03  0.44619724727E+03  0.17176467560E+03 0.  0.
        -24    2    5    5    0    0 -0.17211365059E+03 -0.31652391851E+01 -0.22878000741E+02  0.18558423753E+03  0.65459749797E+02 0.  0.
          5    1    3    3  501    0  0.23278837227E+03  0.23132789422E+02  0.13498762097E+03  0.27012830290E+03  0.47000000000E+01 0. -1.
        -13    1    4    4    0    0  0.42190404197E+02  0.93582620239E+01  0.17158875078E+02  0.46497680247E+02  0.00000000000E+00 0.  1.
         14    1    4    4    0    0  0.82910147950E+02 -0.86131112071E+02  0.10378952500E+03  0.15831906581E+03  0.00000000000E+00 0. -1.
         -5    1    5    5    0  502 -0.18577527382E+03  0.56805299810E+02 -0.17365988712E+03  0.26061300973E+03  0.47000000000E+01 0.  1.
         11    1    6    6    0    0 -0.14552154127E+02  0.20064775697E+02 -0.53574690489E+01  0.25358684669E+02  0.00000000000E+00 0. -1.
        -12    1    6    6    0    0 -0.15756149647E+03 -0.23230014883E+02 -0.17520531692E+02  0.16022555287E+03  0.00000000000E+00 0.  1.
</event>
<event>
12    1  0.1061634E+000  0.2248657E+03  0.7818608E-02  0.1131758E+00
         21   -1    0    0  501  502  0.00000000000E+00  0.00000000000E+00  0.73641373939E+03  0.73641373939E+03  0.00000000000E+00 0. -1.
         21   -1    0    0  502  503 -0.00000000000E+00 -0.00000000000E+00 -0.77345368853E+02  0.77345368853E+02  0.00000000000E+00 0. -1.
         -6    2    1    2    0  503 -0.80152553008E+02  0.11028622701E+03  0.18071078546E+03  0.28848043607E+03  0.17882139243E+03 0.  0.
        -24    2    3    3    0    0 -0.11582809125E+03  0.46919171327E+02  0.14224801544E+03  0.20608139207E+03  0.81347937278E+02 0.  0.
          6    2    1    2  501    0  0.80152553008E+02 -0.11028622701E+03  0.47835758508E+03  0.52527867217E+03  0.16883193009E+03 0.  0.
         24    2    5    5    0    0  0.91094795931E+02 -0.45293809826E+02  0.18853125261E+03  0.22801592650E+03  0.78086096555E+02 0.  0.
          5    1    5    5  501    0 -0.10942242923E+02 -0.64992417182E+02  0.28982633247E+03  0.29726274567E+03  0.47000000000E+01 0. -1.
        -13    1    6    6    0    0  0.40112963369E+02 -0.62634620839E+02  0.11124269036E+03  0.13381734460E+03  0.00000000000E+00 0.  1.
         14    1    6    6    0    0  0.50981832562E+02  0.17340811013E+02  0.77288562248E+02  0.94198581902E+02  0.00000000000E+00 0. -1.
         -5    1    3    3    0  503  0.35675538243E+02  0.63367055682E+02  0.38462770018E+02  0.82399044000E+02  0.47000000000E+01 0.  1.
         11    1    4    4    0    0  0.12419934983E+02  0.59965082439E+01  0.19623388604E+02  0.23985209534E+02  0.00000000000E+00 0. -1.
        -12    1    4    4    0    0 -0.12824802623E+03  0.40922663083E+02  0.12262462684E+03  0.18209618254E+03  0.00000000000E+00 0.  1.
</event>
<event>
12    1  0.1061634E+000  0.1849240E+03  0.7818608E-02  0.1163197E+00
         21   -1    0    0  503  502  0.00000000000E+00  0.00000000000E+00  0.28979257793E+04  0.28979257793E+04  0.00000000000E+00 0.  1.
         21   -1    0    0  501  503 -0.00000000000E+00 -0.00000000000E+00 -0.14220963634E+02  0.14220963634E+02  0.00000000000E+00 0.  1.
          6    2    1    2  501    0 -0.59166302992E+02 -0.32554217414E+02  0.20461803049E+04  0.20545195817E+04  0.17215238314E+03 0.  0.
         24    2    3    3    0    0 -0.86665858016E+02 -0.37451493870E+02  0.94428738677E+03  0.95226266889E+03  0.78815838621E+02 0.  0.
         -6    2    1    2    0  502  0.59166302992E+02  0.32554217414E+02  0.83752451072E+03  0.85762716117E+03  0.17180399599E+03 0.  0.
        -24    2    5    5    0    0  0.92897328876E+01  0.79681797481E+02  0.52811234352E+03  0.54066239932E+03  0.83532596420E+02 0.  0.
          5    1    3    3  501    0  0.27499555024E+02  0.48972764555E+01  0.11018929182E+04  0.11022569128E+04  0.47000000000E+01 0. -1.
        -13    1    4    4    0    0 -0.22359262394E+02 -0.44284232189E+01  0.60168639836E+03  0.60211798637E+03  0.00000000000E+00 0.  1.
         14    1    4    4    0    0 -0.64306595622E+02 -0.33023070651E+02  0.34260098841E+03  0.35014468252E+03  0.00000000000E+00 0. -1.
         -5    1    5    5    0  502  0.49876570104E+02 -0.47127580067E+02  0.30941216720E+03  0.31696476186E+03  0.47000000000E+01 0.  1.
         13    1    6    6    0    0 -0.29793569826E+02  0.36014269472E+02  0.35119062905E+03  0.35428737254E+03  0.00000000000E+00 0. -1.
        -14    1    6    6    0    0  0.39083302714E+02  0.43667528009E+02  0.17692171448E+03  0.18637502678E+03  0.00000000000E+00 0.  1.
</event>
<event>
12    1  0.1061634E+000  0.2350818E+03  0.7818608E-02  0.1123385E+00
         21   -1    0    0  501  502  0.00000000000E+00  0.00000000000E+00  0.54714961602E+03  0.54714961602E+03  0.00000000000E+00 0. -1.
         21   -1    0    0  502  503 -0.00000000000E+00 -0.00000000000E+00 -0.10038987192E+03  0.10038987192E+03  0.00000000000E+00 0. -1.
         -6    2    1    2    0  503  0.44372202068E+02 -0.15392290838E+03  0.21584527163E+03  0.31914360629E+03  0.17205320720E+03 0.  0.
        -24    2    3    3    0    0  0.16607793025E+02 -0.58288217180E+02  0.19211816494E+03  0.21666471987E+03  0.79755103182E+02 0.  0.
          6    2    1    2  501    0 -0.44372202068E+02  0.15392290838E+03  0.23091447247E+03  0.32839588166E+03  0.16988586596E+03 0.  0.
         24    2    5    5    0    0 -0.39081966499E+02  0.15559626307E+03  0.11680826783E+03  0.21405821225E+03  0.80244312025E+02 0.  0.
          5    1    5    5  501    0 -0.52902355690E+01 -0.16733546908E+01  0.11410620464E+03  0.11433766941E+03  0.47000000000E+01 0. -1.
        -13    1    6    6    0    0  0.16743491925E+02  0.88653434148E+02  0.75294026583E+02  0.11751155836E+03  0.00000000000E+00 0.  1.
         14    1    6    6    0    0 -0.55825458424E+02  0.66942828920E+02  0.41514241248E+02  0.96546653895E+02  0.00000000000E+00 0. -1.
         -5    1    3    3    0  503  0.27764409042E+02 -0.95634691197E+02  0.23727106687E+02  0.10247888642E+03  0.47000000000E+01 0.  1.
         13    1    4    4    0    0  0.16670437194E+02  0.17588400378E+02  0.49802562433E+02  0.55385472183E+02  0.00000000000E+00 0. -1.
        -14    1    4    4    0    0 -0.62644168294E-01 -0.75876617557E+02  0.14231560251E+03  0.16127924768E+03  0.00000000000E+00 0.  1.
</event>
<event>
12    1  0.1061634E+000  0.1937663E+03  0.7818608E-02  0.1155600E+00
         21   -1    0    0  503  502  0.00000000000E+00  0.00000000000E+00  0.28651487213E+03  0.28651487213E+03  0.00000000000E+00 0. -1.
         21   -1    0    0  501  503 -0.00000000000E+00 -0.00000000000E+00 -0.30610698276E+03  0.30610698276E+03  0.00000000000E+00 0. -1.
          6    2    1    2  501    0  0.86405888455E+02 -0.22287710278E+02  0.21526880740E+03  0.28814682460E+03  0.16948514241E+03 0.  0.
         24    2    3    3    0    0  0.18405164808E+02  0.35495532689E+02  0.50732524987E+02  0.10091093110E+03  0.77527698220E+02 0.  0.
         -6    2    1    2    0  502 -0.86405888455E+02  0.22287710278E+02 -0.23486091804E+03  0.30447503029E+03  0.17199614431E+03 0.  0.
        -24    2    5    5    0    0 -0.10096708553E+03  0.43964913326E+01 -0.85103883096E+02  0.15287890999E+03  0.76912994378E+02 0.  0.
          5    1    3    3  501    0  0.68000723647E+02 -0.57783242967E+02  0.16453628242E+03  0.18723589350E+03  0.47000000000E+01 0. -1.
        -11    1    4    4    0    0  0.19413479169E+02 -0.50576443107E+01  0.56482776171E+02  0.59939694221E+02  0.00000000000E+00 0.  1.
         12    1    4    4    0    0 -0.10083143609E+01  0.40553176999E+02 -0.57502511838E+01  0.40971236878E+02  0.00000000000E+00 0. -1.
         -5    1    5    5    0  502  0.14561197075E+02  0.17891218945E+02 -0.14975703494E+03  0.15159612030E+03  0.47000000000E+01 0.  1.
         13    1    6    6    0    0 -0.17546709790E+02 -0.21018123287E+02  0.46101066497E+01  0.27765115060E+02  0.00000000000E+00 0. -1.
        -14    1    6    6    0    0 -0.83420375740E+02  0.25414614620E+02 -0.89713989746E+02  0.12511379493E+03  0.00000000000E+00 0.  1.
</event>
<event>
12    1  0.1061634E+000  0.2583471E+03  0.7818608E-02  0.1108530E+00
         21   -1    0    0  503  502  0.00000000000E+00  0.00000000000E+00  0.11261667997E+04  0.11261667997E+04  0.00000000000E+00 0. -1.
         21   -1    0    0  501  503 -0.00000000000E+00 -0.00000000000E+00 -0.90779494554E+02  0.90779494554E+02  0.00000000000E+00 0. -1.
          6    2    1    2  501    0  0.14713187276E+03 -0.12394352378E+03  0.87784900842E+03  0.91435491232E+03  0.16857116904E+03 0.  0.
         24    2    3    3    0    0  0.43511695864E+02 -0.70352531559E+02  0.63763647002E+03  0.64727198678E+03  0.74417811089E+02 0.  0.
         -6    2    1    2    0  502 -0.14713187276E+03  0.12394352378E+03  0.15753829672E+03  0.30259138193E+03  0.17243388419E+03 0.  0.
        -24    2    5    5    0    0 -0.14810687836E+03  0.12826798481E+03  0.82834434483E+02  0.22760865970E+03  0.80968111569E+02 0.  0.
          5    1    3    3  501    0  0.10362017689E+03 -0.53590992222E+02  0.24021253840E+03  0.26708292553E+03  0.47000000000E+01 0. -1.
        -11    1    4    4    0    0 -0.16669239724E+02 -0.93918433576E+01  0.52088005227E+02  0.55490815124E+02  0.00000000000E+00 0.  1.
         12    1    4    4    0    0  0.60180935588E+02 -0.60960688201E+02  0.58554846479E+03  0.59178117166E+03  0.00000000000E+00 0. -1.
         -5    1    5    5    0  502  0.97500560549E+00 -0.43244610263E+01  0.74703862239E+02  0.74982722226E+02  0.47000000000E+01 0.  1.
         13    1    6    6    0    0 -0.53707653390E+02  0.33328094744E+02 -0.10943976876E+02  0.64148613093E+02  0.00000000000E+00 0. -1.
        -14    1    6    6    0    0 -0.94399224972E+02  0.94939890063E+02  0.93778411359E+02  0.16346004661E+03  0.00000000000E+00 0.  1.
</event>
<event>
12    1  0.1061634E+000  0.5047965E+03  0.7818608E-02  0.1012593E+00
         21   -1    0    0  503  502  0.00000000000E+00  0.00000000000E+00  0.83736757623E+03  0.83736757623E+03  0.00000000000E+00 0.  1.
         21   -1    0    0  501  503 -0.00000000000E+00 -0.00000000000E+00 -0.37800371248E+03  0.37800371248E+03  0.00000000000E+00 0. -1.
          6    2    1    2  501    0  0.29362677849E+03 -0.37220762997E+03  0.49915144475E+03  0.70990959833E+03  0.17339050767E+03 0.  0.
         24    2    3    3    0    0  0.24725983976E+03 -0.37147149812E+03  0.42494357310E+03  0.62227779410E+03  0.86741630353E+02 0.  0.
         -6    2    1    2    0  502 -0.29362677849E+03  0.37220762997E+03 -0.39787581005E+02  0.50546169039E+03  0.17074326925E+03 0.  0.
        -24    2    5    5    0    0 -0.20425014601E+03  0.16509099153E+03  0.99956063646E+01  0.27440771381E+03  0.78908324141E+02 0.  0.
          5    1    3    3  501    0  0.46366938733E+02 -0.73613184542E+00  0.74207871654E+02  0.87631804232E+02  0.47000000000E+01 0. -1.
        -11    1    4    4    0    0  0.17509025531E+03 -0.26087680488E+03  0.35040514033E+03  0.47063474924E+03  0.00000000000E+00 0.  1.
         12    1    4    4    0    0  0.72169584442E+02 -0.11059469324E+03  0.74538432772E+02  0.15164304485E+03  0.00000000000E+00 0. -1.
         -5    1    5    5    0  502 -0.89376632477E+02  0.20711663843E+03 -0.49783187369E+02  0.23105397658E+03  0.47000000000E+01 0.  1.
         11    1    6    6    0    0 -0.18121452948E+03  0.17138911813E+03  0.27097114835E+01  0.24943992873E+03  0.00000000000E+00 0. -1.
        -12    1    6    6    0    0 -0.23035616532E+02 -0.62981265930E+01  0.72858948811E+01  0.24967785080E+02  0.00000000000E+00 0.  1.
</event>
<event>
12    1  0.1061634E+000  0.5752999E+03  0.7818608E-02  0.9958377E-01
         21   -1    0    0  501  502  0.00000000000E+00  0.00000000000E+00  0.39049126565E+03  0.39049126565E+03  0.00000000000E+00 0.  1.
         21   -1    0    0  502  503 -0.00000000000E+00 -0.00000000000E+00 -0.91900472532E+03  0.91900472532E+03  0.00000000000E+00 0.  1.
         -6    2    1    2    0  503 -0.29804747790E+03 -0.46031305243E+03 -0.80626172625E+02  0.58092219276E+03  0.17392414729E+03 0.  0.
        -24    2    3    3    0    0 -0.24409838815E+03 -0.43188335226E+03 -0.32231661866E+02  0.50292943151E+03  0.76104401926E+02 0.  0.
          6    2    1    2  501    0  0.29804747790E+03  0.46031305243E+03 -0.44788728704E+03  0.72857379820E+03  0.17174502093E+03 0.  0.
         24    2    5    5    0    0  0.18395026525E+03  0.38168817907E+03 -0.31328012404E+03  0.53533502627E+03  0.94422391985E+02 0.  0.
          5    1    5    5  501    0  0.11409721265E+03  0.78624873358E+02 -0.13460716301E+03  0.19323877193E+03  0.47000000000E+01 0. -1.
        -11    1    6    6    0    0 -0.97184428056E+01  0.39463432089E+02 -0.34552196731E+02  0.53344773894E+02  0.00000000000E+00 0.  1.
         12    1    6    6    0    0  0.19366870806E+03  0.34222474698E+03 -0.27872792730E+03  0.48199025238E+03  0.00000000000E+00 0. -1.
         -5    1    3    3    0  503 -0.53949089748E+02 -0.28429700174E+02 -0.48394510759E+02  0.77992761255E+02  0.47000000000E+01 0.  1.
         11    1    4    4    0    0 -0.16368794243E+03 -0.21479869415E+03 -0.81627035871E+01  0.27018299583E+03  0.00000000000E+00 0. -1.
        -12    1    4    4    0    0 -0.80410445717E+02 -0.21708465811E+03 -0.24068958279E+02  0.23274643568E+03  0.00000000000E+00 0.  1.
</event>
<event>
12    1  0.1061634E+000  0.2690679E+03  0.7818608E-02  0.1102247E+00
         21   -1    0    0  503  502  0.00000000000E+00  0.00000000000E+00  0.83145227298E+03  0.83145227298E+03  0.00000000000E+00 0. -1.
         21   -1    0    0  501  503 -0.00000000000E+00 -0.00000000000E+00 -0.92949820653E+02  0.92949820653E+02  0.00000000000E+00 0. -1.
          6    2    1    2  501    0  0.40015889738E+02  0.19892139550E+03  0.49655272554E+03  0.56476731824E+03  0.17671027557E+03 0.  0.
         24    2    3    3    0    0 -0.33924017301E+02  0.66749901316E+02  0.28346950398E+03  0.30330419840E+03  0.77666523058E+02 0.  0.
         -6    2    1    2    0  502 -0.40015889738E+02 -0.19892139550E+03  0.24194972680E+03  0.35963477540E+03  0.17212352647E+03 0.  0.
        -24    2    5    5    0    0  0.35023719073E+02 -0.55389561657E+02  0.89363895695E+02  0.13706600835E+03  0.80663004853E+02 0.  0.
          5    1    3    3  501    0  0.73939907039E+02  0.13217149418E+03  0.21308322156E+03  0.26146311984E+03  0.47000000000E+01 0. -1.
        -11    1    4    4    0    0 -0.11304859399E+02  0.79029419254E+02  0.18427488467E+03  0.20082500361E+03  0.00000000000E+00 0.  1.
         12    1    4    4    0    0 -0.22619157902E+02 -0.12279517938E+02  0.99194619308E+02  0.10247919479E+03  0.00000000000E+00 0. -1.
         -5    1    5    5    0  502 -0.75039608812E+02 -0.14353183384E+03  0.15258583110E+03  0.22256876706E+03  0.47000000000E+01 0.  1.
         11    1    6    6    0    0 -0.22418399121E+02 -0.24431163543E+01  0.71557521884E+01  0.23659210174E+02  0.00000000000E+00 0. -1.
        -12    1    6    6    0    0  0.57442118194E+02 -0.52946445303E+02  0.82208143507E+02  0.11340679817E+03  0.00000000000E+00 0.  1.
</event>
<event>
12    1  0.1061634E+000  0.1797488E+03  0.7818608E-02  0.1168377E+00
         21   -1    0    0  501  502  0.00000000000E+00  0.00000000000E+00  0.29180804156E+03  0.29180804156E+03  0.00000000000E+00 0.  1.
         21   -1    0    0  502  503 -0.00000000000E+00 -0.00000000000E+00 -0.45351386554E+03  0.45351386554E+03  0.00000000000E+00 0.  1.
         -6    2    1    2    0  503 -0.68938483901E+01 -0.50087911265E+02  0.24345839473E+03  0.30262455311E+03  0.17249146698E+03 0.  0.
        -24    2    3    3    0    0 -0.35040249629E+02 -0.90434587286E+02  0.21061529548E+03  0.24328794268E+03  0.73647720226E+02 0.  0.
          6    2    1    2  501    0  0.68938483901E+01  0.50087911265E+02 -0.40516421872E+03  0.44269735399E+03  0.17107477634E+03 0.  0.
         24    2    5    5    0    0 -0.55702763623E+02 -0.46942671335E+01 -0.22233076856E+03  0.24177551993E+03  0.76808836526E+02 0.  0.
          5    1    5    5  501    0  0.62596612013E+02  0.54782178398E+02 -0.18283345016E+03  0.20092183406E+03  0.47000000000E+01 0. -1.
        -11    1    6    6    0    0 -0.33400776813E+02  0.86519942351E+01 -0.24675373616E+02  0.42418662863E+02  0.00000000000E+00 0.  1.
         12    1    6    6    0    0 -0.22301986810E+02 -0.13346261369E+02 -0.19765539495E+03  0.19935685707E+03  0.00000000000E+00 0. -1.
         -5    1    3    3    0  503  0.28146401239E+02  0.40346676021E+02  0.32843099254E+02  0.59336610430E+02  0.47000000000E+01 0.  1.
         11    1    4    4    0    0 -0.50494114731E+02 -0.78888363541E+02  0.20095949549E+03  0.22171546710E+03  0.00000000000E+00 0. -1.
        -12    1    4    4    0    0  0.15453865102E+02 -0.11546223746E+02  0.96557999893E+01  0.21572475584E+02  0.00000000000E+00 0.  1.
</event>
<event>
12    1  0.1061634E+000  0.2659395E+03  0.7818608E-02  0.1103642E+00
         21   -1    0    0  503  502  0.00000000000E+00  0.00000000000E+00  0.68081428410E+03  0.68081428410E+03  0.00000000000E+00 0. -1.
         21   -1    0    0  501  503 -0.00000000000E+00 -0.00000000000E+00 -0.13667152771E+03  0.13667152771E+03  0.00000000000E+00 0. -1.
          6    2    1    2  501    0  0.19580536631E+03 -0.57061625892E+02  0.71688351940E+02  0.27532625194E+03  0.17049796063E+03 0.  0.
         24    2    3    3    0    0  0.16599008276E+03 -0.10238868237E+03  0.60044794396E+02  0.21963823155E+03  0.81236848619E+02 0.  0.
         -6    2    1    2    0  502 -0.19580536631E+03  0.57061625892E+02  0.47245440445E+03  0.54215955987E+03  0.17066942738E+03 0.  0.
        -24    2    5    5    0    0 -0.14780966977E+03  0.14712966467E+02  0.43767868615E+03  0.46916342008E+03  0.80545096467E+02 0.  0.
          5    1    3    3  501    0  0.29815283553E+02  0.45327056480E+02  0.11643557544E+02  0.55688020388E+02  0.47000000000E+01 0. -1.
        -13    1    4    4    0    0  0.13780856314E+03 -0.56588601126E+02  0.70566551133E+02  0.16484267649E+03  0.00000000000E+00 0.  1.
         14    1    4    4    0    0  0.28181519617E+02 -0.45800081247E+02 -0.10521756738E+02  0.54795555066E+02  0.00000000000E+00 0. -1.
         -5    1    5    5    0  502 -0.47995696536E+02  0.42348659425E+02  0.34775718303E+02  0.72996139792E+02  0.47000000000E+01 0.  1.
         11    1    6    6    0    0 -0.10952931801E+03 -0.14942722718E+02  0.22057665732E+03  0.24672660623E+03  0.00000000000E+00 0. -1.
        -12    1    6    6    0    0 -0.38280351764E+02  0.29655689185E+02  0.21710202883E+03  0.22243681385E+03  0.00000000000E+00 0.  1.
</event>
<event>
12    1  0.1061634E+000  0.2678082E+03  0.7818608E-02  0.1102657E+00
         21   -1    0    0  501  502  0.00000000000E+00  0.00000000000E+00  0.18575783708E+03  0.18575783708E+03  0.00000000000E+00 0.  1.
         21   -1    0    0  502  503 -0.00000000000E+00 -0.00000000000E+00 -0.40172080124E+03  0.40172080124E+03  0.00000000000E+00 0. -1.
         -6    2    1    2    0  503 -0.20273032640E+03 -0.34698330699E+02 -0.48104046192E+02  0.27209413327E+03  0.17151576810E+03 0.  0.
        -24    2    3    3    0    0 -0.12472139587E+03  0.44919830606E+02 -0.83867150012E+01  0.15367115726E+03  0.77273991835E+02 0.  0.
          6    2    1    2  501    0  0.20273032640E+03  0.34698330699E+02 -0.16785891797E+03  0.31538450504E+03  0.17025630762E+03 0.  0.
         24    2    5    5    0    0  0.15656122797E+03  0.18406718529E+01 -0.46535699830E+02  0.18139710021E+03  0.78895693351E+02 0.  0.
          5    1    5    5  501    0  0.46169098433E+02  0.32857658846E+02 -0.12132321814E+03  0.13398740483E+03  0.47000000000E+01 0. -1.
        -13    1    6    6    0    0  0.76778843044E+01 -0.59054821276E+01 -0.29849137159E+02  0.31381453371E+02  0.00000000000E+00 0.  1.
         14    1    6    6    0    0  0.14888334366E+03  0.77461539805E+01 -0.16686562671E+02  0.15001564684E+03  0.00000000000E+00 0. -1.
         -5    1    3    3    0  503 -0.78008930527E+02 -0.79618161305E+02 -0.39717331191E+02  0.11842297602E+03  0.47000000000E+01 0.  1.
         11    1    4    4    0    0 -0.37883480153E+02 -0.21970387453E+02 -0.90684823098E+00  0.43802721000E+02  0.00000000000E+00 0. -1.
        -12    1    4    4    0    0 -0.86837915722E+02  0.66890218059E+02 -0.74798667702E+01  0.10986843626E+03  0.00000000000E+00 0.  1.
</event>
<event>
12    1  0.1061634E+000  0.4327632E+03  0.7818608E-02  0.1033043E+00
         21   -1    0    0  501  502  0.00000000000E+00  0.00000000000E+00  0.19629622001E+04  0.19629622001E+04  0.00000000000E+00 0. -1.
         21   -1    0    0  502  503 -0.00000000000E+00 -0.00000000000E+00 -0.98509855709E+02  0.98509855709E+02  0.00000000000E+00 0. -1.
         -6    2    1    2    0  503 -0.82899247071E+02  0.38752799362E+03  0.74440530375E+03  0.86072670609E+03  0.17222362007E+03 0.  0.
        -24    2    3    3    0    0 -0.71909988720E+02  0.12310102540E+03  0.34014708929E+03  0.37751952559E+03  0.80598020561E+02 0.  0.
          6    2    1    2  501    0  0.82899247071E+02 -0.38752799362E+03  0.11200470406E+04  0.12007453497E+04  0.17387866640E+03 0.  0.
         24    2    5    5    0    0  0.11752135167E+03 -0.25638033510E+03  0.68481350318E+03  0.74484106087E+03  0.79224538504E+02 0.  0.
          5    1    5    5  501    0 -0.34622104595E+02 -0.13114765852E+03  0.43523353743E+03  0.45590428882E+03  0.47000000000E+01 0. -1.
        -11    1    6    6    0    0  0.43710834055E+02 -0.12583754598E+03  0.22825570227E+03  0.26428467722E+03  0.00000000000E+00 0.  1.
         12    1    6    6    0    0  0.73810517611E+02 -0.13054278911E+03  0.45655780091E+03  0.48055638365E+03  0.00000000000E+00 0. -1.
         -5    1    3    3    0  503 -0.10989258351E+02  0.26442696822E+03  0.40425821447E+03  0.48320718050E+03  0.47000000000E+01 0.  1.
         11    1    4    4    0    0 -0.43409936416E+02  0.10042673393E+02  0.66261938424E+02  0.79849372898E+02  0.00000000000E+00 0. -1.
        -12    1    4    4    0    0 -0.28500052305E+02  0.11305835201E+03  0.27388515086E+03  0.29767015269E+03  0.00000000000E+00 0.  1.
</event>
<event>
12    1  0.1061634E+000  0.1831561E+03  0.7818608E-02  0.1167651E+00
         21   -1    0    0  501  502  0.00000000000E+00  0.00000000000E+00  0.11717313270E+04  0.11717313270E+04  0.00000000000E+00 0. -1.
         21   -1    0    0  502  503 -0.00000000000E+00 -0.00000000000E+00 -0.26853999432E+02  0.26853999432E+02  0.00000000000E+00 0. -1.
         -6    2    1    2    0  503 -0.45446141912E+01 -0.32346291749E+02  0.60941056496E+03  0.63633906558E+03  0.18021995891E+03 0.  0.
        -24    2    3    3    0    0  0.33264932662E+02  0.31086352413E+02  0.19658329870E+03  0.21693269469E+03  0.79635944429E+02 0.  0.
          6    2    1    2  501    0  0.45446141912E+01  0.32346291749E+02  0.53546676265E+03  0.56224626090E+03  0.16831300567E+03 0.  0.
         24    2    5    5    0    0 -0.40509015327E+02 -0.28987592695E+02  0.27442411529E+03  0.29029584509E+03  0.80509761966E+02 0.  0.
          5    1    5    5  501    0  0.45053629518E+02  0.61333884444E+02  0.26104264737E+03  0.27195041581E+03  0.47000000000E+01 0. -1.
        -13    1    6    6    0    0  0.13214317929E+02 -0.87258360796E+01  0.17319058252E+03  0.17391301356E+03  0.00000000000E+00 0.  1.
         14    1    6    6    0    0 -0.53723333256E+02 -0.20261756615E+02  0.10123353277E+03  0.11638283153E+03  0.00000000000E+00 0. -1.
         -5    1    3    3    0  503 -0.37809546853E+02 -0.63432644162E+02  0.41282726625E+03  0.41940637089E+03  0.47000000000E+01 0.  1.
         13    1    4    4    0    0  0.36094138773E+02  0.31698834881E+02  0.20368010367E+03  0.20926821932E+03  0.00000000000E+00 0. -1.
        -14    1    4    4    0    0 -0.28292061110E+01 -0.61248246830E+00 -0.70968049654E+01  0.76644753708E+01  0.00000000000E+00 0.  1.
</event>
<event>
12    1  0.1061634E+000  0.2123335E+03  0.7818608E-02  0.1140158E+00
         21   -1    0    0  501  502  0.00000000000E+00  0.00000000000E+00  0.54762363883E+03  0.54762363883E+03  0.00000000000E+00 0. -1.
         21   -1    0    0  502  503 -0.00000000000E+00 -0.00000000000E+00 -0.83851499703E+02  0.83851499703E+02  0.00000000000E+00 0. -1.
         -6    2    1    2    0  503  0.91596952095E+02  0.85566568637E+02  0.17772796446E+03  0.27523532870E+03  0.16868792936E+03 0.  0.
        -24    2    3    3    0    0  0.12531429599E+03  0.70347239731E+02  0.10309744605E+03  0.19180696704E+03  0.74218746318E+02 0.  0.
          6    2    1    2  501    0 -0.91596952095E+02 -0.85566568637E+02  0.28604417466E+03  0.35623980983E+03  0.17138813538E+03 0.  0.
         24    2    5    5    0    0  0.19285711375E+02 -0.47355473023E+02  0.12607508432E+03  0.15782798370E+03  0.80001662872E+02 0.  0.
          5    1    5    5  501    0 -0.11088266347E+03 -0.38211095614E+02  0.15996909034E+03  0.19841182613E+03  0.47000000000E+01 0. -1.
        -13    1    6    6    0    0  0.40160437635E+00 -0.66394988219E+02  0.75191686954E+02  0.10031074486E+03  0.00000000000E+00 0.  1.
         14    1    6    6    0    0  0.18884106998E+02  0.19039515196E+02  0.50883397367E+02  0.57517238839E+02  0.00000000000E+00 0. -1.
         -5    1    3    3    0  503 -0.33717343893E+02  0.15219328906E+02  0.74630518410E+02  0.83428361663E+02  0.47000000000E+01 0.  1.
         13    1    4    4    0    0  0.52685473188E+02  0.91323961300E+01  0.76195560280E+02  0.93085568970E+02  0.00000000000E+00 0. -1.
        -14    1    4    4    0    0  0.72628822800E+02  0.61214843601E+02  0.26901885774E+02  0.98721398069E+02  0.00000000000E+00 0.  1.
</event>
<event>
12    1  0.1061634E+000  0.1996930E+03  0.7818608E-02  0.1150231E+00
         21   -1    0    0  503  502  0.00000000000E+00  0.00000000000E+00  0.30416147350E+03  0.30416147350E+03  0.00000000000E+00 0. -1.
         21   -1    0    0  501  503 -0.00000000000E+00 -0.00000000000E+00 -0.16364428379E+03  0.16364428379E+03  0.00000000000E+00 0. -1.
          6    2    1    2  501    0 -0.81647517432E+02  0.62852164193E+02  0.17555195015E+03  0.26506273554E+03  0.16977354011E+03 0.  0.
         24    2    3    3    0    0 -0.78813397262E+02 -0.21214970765E+02  0.10264554738E+03  0.15365021837E+03  0.80066563771E+02 0.  0.
         -6    2    1    2    0  502  0.81647517432E+02 -0.62852164193E+02 -0.35034760439E+02  0.20274302175E+03  0.17105726171E+03 0.  0.
        -24    2    5    5    0    0  0.47090492510E+02 -0.33100934271E+02  0.47043746237E+02  0.10873081556E+03  0.79347903935E+02 0.  0.
          5    1    3    3  501    0 -0.28341201709E+01  0.84067134958E+02  0.72906402771E+02  0.11141251717E+03  0.47000000000E+01 0. -1.
        -11    1    4    4    0    0 -0.77677260691E+02  0.12550802410E+02  0.83856528941E+02  0.11499216024E+03  0.00000000000E+00 0.  1.
         12    1    4    4    0    0 -0.11361365705E+01 -0.33765773176E+02  0.18789018443E+02  0.38658058132E+02  0.00000000000E+00 0. -1.
         -5    1    5    5    0  502  0.34557024922E+02 -0.29751229921E+02 -0.82078506677E+02  0.94012206184E+02  0.47000000000E+01 0.  1.
         11    1    6    6    0    0  0.53138762935E+02  0.10145468140E+02  0.22076049056E+02  0.58429535271E+02  0.00000000000E+00 0. -1.
        -12    1    6    6    0    0 -0.60482704248E+01 -0.43246402411E+02  0.24967697181E+02  0.50301280294E+02  0.00000000000E+00 0.  1.
</event>
<event>
12    1  0.1061634E+000  0.4223981E+03  0.7818608E-02  0.1036377E+00
         21   -1    0    0  501  502  0.00000000000E+00  0.00000000000E+00  0.23788619237E+03  0.23788619237E+03  0.00000000000E+00 0.  1.
         21   -1    0    0  502  503 -0.00000000000E+00 -0.00000000000E+00 -0.76132839313E+03  0.76132839313E+03  0.00000000000E+00 0.  1.
         -6    2    1    2    0  503  0.18535292791E+02  0.38484108305E+03 -0.32728644142E+03  0.53349232231E+03  0.17044479149E+03 0.  0.
        -24    2    3    3    0    0  0.75000938480E+02  0.24625887355E+03 -0.17955975435E+03  0.32316243379E+03  0.76965444551E+02 0.  0.
          6    2    1    2  501    0 -0.18535292791E+02 -0.38484108305E+03 -0.19615575934E+03  0.46572226319E+03  0.17312980168E+03 0.  0.
         24    2    5    5    0    0  0.72622702294E+01 -0.15128646736E+03 -0.14667303543E+03  0.22554752944E+03  0.80114748570E+02 0.  0.
          5    1    5    5  501    0 -0.25797563020E+02 -0.23355461569E+03 -0.49482723905E+02  0.24017473375E+03  0.47000000000E+01 0. -1.
        -11    1    6    6    0    0  0.16444830036E+02  0.49751261598E+00 -0.37768677604E+01  0.16880304612E+02  0.00000000000E+00 0.  1.
         12    1    6    6    0    0 -0.91825598068E+01 -0.15178397998E+03 -0.14289616767E+03  0.20866722483E+03  0.00000000000E+00 0. -1.
         -5    1    3    3    0  503 -0.56465645689E+02  0.13858220950E+03 -0.14772668707E+03  0.21032988852E+03  0.47000000000E+01 0.  1.
         11    1    4    4    0    0 -0.25311145498E+01  0.47317895529E+02 -0.55281192013E+01  0.47706916480E+02  0.00000000000E+00 0. -1.
        -12    1    4    4    0    0  0.77532053030E+02  0.19894097802E+03 -0.17403163515E+03  0.27545551731E+03  0.00000000000E+00 0.  1.
</event>
<event>
12    1  0.1061634E+000  0.3068077E+03  0.7818608E-02  0.1082051E+00
         21   -1    0    0  503  502  0.00000000000E+00  0.00000000000E+00  0.11021201578E+03  0.11021201578E+03  0.00000000000E+00 0.  1.
         21   -1    0    0  501  503 -0.00000000000E+00 -0.00000000000E+00 -0.90922587714E+03  0.90922587714E+03  0.00000000000E+00 0.  1.
          6    2    1    2  501    0  0.25187866541E+03  0.21875163286E+02 -0.27059549397E+03  0.40908790359E+03  0.17380910980E+03 0.  0.
         24    2    3    3    0    0  0.31333577501E+02  0.19757246047E+02 -0.68461253984E+02  0.10988068050E+03  0.77554360289E+02 0.  0.
         -6    2    1    2    0  502 -0.25187866541E+03 -0.21875163286E+02 -0.52841836740E+03  0.61034998933E+03  0.17140523217E+03 0.  0.
        -24    2    5    5    0    0 -0.24051307812E+03 -0.63511284545E+02 -0.45320011237E+03  0.52350173628E+03  0.82362018119E+02 0.  0.
          5    1    3    3  501    0  0.22054508791E+03  0.21179172388E+01 -0.20213423998E+03  0.29920722309E+03  0.47000000000E+01 0. -1.
        -11    1    4    4    0    0  0.11491224499E+02 -0.25345395570E+02 -0.30623314612E+01  0.27996699646E+02  0.00000000000E+00 0.  1.
         12    1    4    4    0    0  0.19842353002E+02  0.45102641617E+02 -0.65398922523E+02  0.81883980855E+02  0.00000000000E+00 0. -1.
         -5    1    5    5    0  502 -0.11365587291E+02  0.41636121259E+02 -0.75218255033E+02  0.86848253052E+02  0.47000000000E+01 0.  1.
         13    1    6    6    0    0 -0.87109355401E+02 -0.59246605468E+02 -0.22575840667E+03  0.24912859780E+03  0.00000000000E+00 0. -1.
        -14    1    6    6    0    0 -0.15340372272E+03 -0.42646790764E+01 -0.22744170570E+03  0.27437313849E+03  0.00000000000E+00 0.  1.
</event>
<event>
12    1  0.1061634E+000  0.2807420E+03  0.7818608E-02  0.1095393E+00
         21   -1    0    0  501  502  0.00000000000E+00  0.00000000000E+00  0.99220075675E+03  0.99220075675E+03  0.00000000000E+00 0.  1.
         21   -1    0    0  502  503 -0.00000000000E+00 -0.00000000000E+00 -0.79885591883E+02  0.79885591883E+02  0.00000000000E+00 0. -1.
         -6    2    1    2    0  503  0.25158608590E+02 -0.21976526699E+03  0.50478681454E+03  0.57721722646E+03  0.17158167217E+03 0.  0.
        -24    2    3    3    0    0  0.95098327443E+01 -0.17338050393E+03  0.49016504643E+03  0.52591112027E+03  0.78546149608E+02 0.  0.
          6    2    1    2  501    0 -0.25158608590E+02  0.21976526699E+03  0.40752835033E+03  0.49486912217E+03  0.17287672949E+03 0.  0.
         24    2    5    5    0    0 -0.65426940943E+02  0.12563280535E+03  0.16447975755E+03  0.23109427998E+03  0.79288644926E+02 0.  0.
          5    1    5    5  501    0  0.40268332352E+02  0.94132461645E+02  0.24304859278E+03  0.26377484220E+03  0.47000000000E+01 0. -1.
        -11    1    6    6    0    0 -0.82817638971E+02  0.90034472800E+02  0.13083839986E+03  0.17911910701E+03  0.00000000000E+00 0.  1.
         12    1    6    6    0    0  0.17390698029E+02  0.35598332545E+02  0.33641357684E+02  0.51975172965E+02  0.00000000000E+00 0. -1.
         -5    1    3    3    0  503  0.15648775846E+02 -0.46384763063E+02  0.14621768111E+02  0.51306106192E+02  0.47000000000E+01 0.  1.
         13    1    4    4    0    0 -0.15288844026E+02 -0.11977933344E+03  0.23748409938E+03  0.26641984710E+03  0.00000000000E+00 0. -1.
        -14    1    4    4    0    0  0.24798676771E+02 -0.53601170487E+02  0.25268094705E+03  0.25949127317E+03  0.00000000000E+00 0.  1.
</event>
<event>
12    1  0.1061634E+000  0.2640628E+03  0.7818608E-02  0.1104948E+00
         21   -1    0    0  503  502  0.00000000000E+00  0.00000000000E+00  0.35964216175E+03  0.35964216175E+03  0.00000000000E+00 0. -1.
         21   -1    0    0  501  503 -0.00000000000E+00 -0.00000000000E+00 -0.22074178183E+03  0.22074178183E+03  0.00000000000E+00 0. -1.
          6    2    1    2  501    0 -0.13777476705E+03 -0.14299195176E+03 -0.33651123413E+02  0.26619833176E+03  0.17407058632E+03 0.  0.
         24    2    3    3    0    0 -0.97259417036E+02 -0.14787831737E+03  0.21702634457E+02  0.19726721639E+03  0.84356146010E+02 0.  0.
         -6    2    1    2    0  502  0.13777476705E+03  0.14299195176E+03  0.17255150334E+03  0.31418561181E+03  0.17178472768E+03 0.  0.
        -24    2    5    5    0    0  0.10930337847E+03  0.59205246621E+02  0.36324867141E+02  0.15167217134E+03  0.78945942360E+02 0.  0.
          5    1    3    3  501    0 -0.40515350013E+02  0.48863656170E+01 -0.55353757870E+02  0.68931115368E+02  0.47000000000E+01 0. -1.
        -13    1    4    4    0    0 -0.44361420553E+02 -0.52806767534E+02 -0.31893920625E+02  0.75984949192E+02  0.00000000000E+00 0.  1.
         14    1    4    4    0    0 -0.52897996484E+02 -0.95071549839E+02  0.53596555082E+02  0.12128226720E+03  0.00000000000E+00 0. -1.
         -5    1    5    5    0  502  0.28471388583E+02  0.83786705135E+02  0.13622663620E+03  0.16251344047E+03  0.47000000000E+01 0.  1.
         11    1    6    6    0    0  0.35971136384E+02  0.62722825273E+02  0.71019518535E+01  0.72653376956E+02  0.00000000000E+00 0. -1.
        -12    1    6    6    0    0  0.73332242082E+02 -0.35175786511E+01  0.29222915287E+02  0.79018794386E+02  0.00000000000E+00 0.  1.
</event>
<event>
12    1  0.1061634E+000  0.2686172E+03  0.7818608E-02  0.1102244E+00
         21   -1    0    0  503  502  0.00000000000E+00  0.00000000000E+00  0.87403097792E+02  0.87403097792E+02  0.00000000000E+00 0.  1.
         21   -1    0    0  501  503 -0.00000000000E+00 -0.00000000000E+00 -0.87017691578E+03  0.87017691578E+03  0.00000000000E+00 0.  1.
          6    2    1    2  501    0 -0.16240561277E+03 -0.12469641273E+03 -0.50494824499E+03  0.57195096386E+03  0.17386890619E+03 0.  0.
         24    2    3    3    0    0 -0.50488791951E+02 -0.11756986266E+03 -0.24367653194E+03  0.28758999513E+03  0.83414401414E+02 0.  0.
         -6    2    1    2    0  502  0.16240561277E+03  0.12469641273E+03 -0.27782557300E+03  0.38562904971E+03  0.17204050848E+03 0.  0.
        -24    2    5    5    0    0  0.80888384347E+02  0.13956432007E+03 -0.22100096913E+03  0.28504456381E+03  0.79923994157E+02 0.  0.
          5    1    3    3  501    0 -0.11191682082E+03 -0.71265500703E+01 -0.26127171305E+03  0.28436096873E+03  0.47000000000E+01 0. -1.
        -11    1    4    4    0    0 -0.94255277398E+01 -0.95575896045E+02 -0.20737016903E+03  0.22853004065E+03  0.00000000000E+00 0.  1.
         12    1    4    4    0    0 -0.41063264211E+02 -0.21993966617E+02 -0.36306362908E+02  0.59059954477E+02  0.00000000000E+00 0. -1.
         -5    1    5    5    0  502  0.81517228426E+02 -0.14867907335E+02 -0.56824603870E+02  0.10058448590E+03  0.47000000000E+01 0.  1.
         13    1    6    6    0    0  0.26150667817E+02  0.45368201776E+01 -0.94487284830E+01  0.28173012522E+02  0.00000000000E+00 0. -1.
        -14    1    6    6    0    0  0.54737716530E+02  0.13502749989E+03 -0.21155224065E+03  0.25687155129E+03  0.00000000000E+00 0.  1.
</event>
<event>
12    1  0.1061634E+000  0.4148057E+03  0.7818608E-02  0.1038961E+00
         21   -1    0    0  503  502  0.00000000000E+00  0.00000000000E+00  0.11109625004E+04  0.11109625004E+04  0.00000000000E+00 0. -1.
         21   -1    0    0  501  503 -0.00000000000E+00 -0.00000000000E+00 -0.16684363630E+03  0.16684363630E+03  0.00000000000E+00 0.  1.
          6    2    1    2  501    0 -0.19504009249E+03  0.31988944956E+03  0.29613827218E+03  0.50966819469E+03  0.17802779223E+03 0.  0.
         24    2    3    3    0    0 -0.30235719646E+02  0.85424204071E+02  0.13210610120E+03  0.17942120262E+03  0.80798840294E+02 0.  0.
         -6    2    1    2    0  502  0.19504009249E+03 -0.31988944956E+03  0.64798059188E+03  0.76813794197E+03  0.17258955017E+03 0.  0.
        -24    2    5    5    0    0  0.14397876439E+03 -0.31766781543E+03  0.58653261297E+03  0.68807459831E+03  0.88223699836E+02 0.  0.
          5    1    3    3  501    0 -0.16480437284E+03  0.23446524548E+03  0.16403217098E+03  0.33024699206E+03  0.47000000000E+01 0. -1.
        -13    1    4    4    0    0  0.12333534164E+02  0.28866269251E+02  0.21845502759E+01  0.31466646236E+02  0.00000000000E+00 0.  1.
         14    1    4    4    0    0 -0.42569253810E+02  0.56557934820E+02  0.12992155093E+03  0.14795455639E+03  0.00000000000E+00 0. -1.
         -5    1    5    5    0  502  0.51061328098E+02 -0.22216341260E+01  0.61447978910E+02  0.80063343657E+02  0.47000000000E+01 0.  1.
         11    1    6    6    0    0  0.74406805222E+02 -0.22894083997E+03  0.45558061200E+03  0.51527077823E+03  0.00000000000E+00 0. -1.
        -12    1    6    6    0    0  0.69571959171E+02 -0.88726975459E+02  0.13095200097E+03  0.17280382008E+03  0.00000000000E+00 0.  1.
</event>
<event>
12    1  0.1061634E+000  0.1772656E+03  0.7818608E-02  0.1170749E+00
         21   -1    0    0  503  502  0.00000000000E+00  0.00000000000E+00  0.66900355808E+03  0.66900355808E+03  0.00000000000E+00 0. -1.
         21   -1    0    0  501  503 -0.00000000000E+00 -0.00000000000E+00 -0.46685482839E+02  0.46685482839E+02  0.00000000000E+00 0. -1.
          6    2    1    2  501    0 -0.30075465418E+02  0.32432250095E+02  0.31451835147E+03  0.36049365269E+03  0.17052124722E+03 0.  0.
         24    2    3    3    0    0 -0.26719173269E+02 -0.46477297770E+02  0.19812119137E+03  0.21975144040E+03  0.78515193814E+02 0.  0.
         -6    2    1    2    0  502  0.30075465418E+02 -0.32432250095E+02  0.30779972378E+03  0.35519538823E+03  0.17165870033E+03 0.  0.
        -24    2    5    5    0    0  0.37340320959E+02 -0.85379945409E+02  0.23390107108E+03  0.26387541542E+03  0.78971445223E+02 0.  0.
          5    1    3    3  501    0 -0.33562921494E+01  0.78909547865E+02  0.11639716010E+03  0.14074221229E+03  0.47000000000E+01 0. -1.
        -11    1    4    4    0    0 -0.46890489135E+02 -0.13365546006E+02  0.65988959764E+02  0.82048148073E+02  0.00000000000E+00 0.  1.
         12    1    4    4    0    0  0.20171315866E+02 -0.33111751764E+02  0.13213223160E+03  0.13770329232E+03  0.00000000000E+00 0. -1.
         -5    1    5    5    0  502 -0.72648555407E+01  0.52947695314E+02  0.73898652697E+02  0.91319972818E+02  0.47000000000E+01 0.  1.
         13    1    6    6    0    0 -0.20822589074E+02 -0.48423935156E+02  0.11365256934E+03  0.12528114075E+03  0.00000000000E+00 0. -1.
        -14    1    6    6    0    0  0.58162910033E+02 -0.36956010253E+02  0.12024850175E+03  0.13859427466E+03  0.00000000000E+00 0.  1.
</event>
<event>
12    1  0.1061634E+000  0.4352533E+03  0.7818608E-02  0.1032318E+00
         21   -1    0    0  501  502  0.00000000000E+00  0.00000000000E+00  0.51091932578E+03  0.51091932578E+03  0.00000000000E+00 0. -1.
         21   -1    0    0  502  503 -0.00000000000E+00 -0.00000000000E+00 -0.49498436220E+03  0.49498436220E+03  0.00000000000E+00 0. -1.
         -6    2    1    2    0  503  0.39317535759E+03  0.72047346115E+02  0.26106585336E+03  0.50754391640E+03  0.17224333189E+03 0.  0.
        -24    2    3    3    0    0  0.33498398939E+03  0.36074938763E+02  0.15096408044E+03  0.37783370159E+03  0.80327318644E+02 0.  0.
          6    2    1    2  501    0 -0.39317535759E+03 -0.72047346115E+02 -0.24513088978E+03  0.49835977158E+03  0.16880647768E+03 0.  0.
         24    2    5    5    0    0 -0.39229827496E+03 -0.55733322161E+02 -0.20155717359E+03  0.45158717924E+03  0.79382280742E+02 0.  0.
          5    1    5    5  501    0 -0.87708263346E+00 -0.16314023954E+02 -0.43573716188E+02  0.46772592338E+02  0.47000000000E+01 0. -1.
        -11    1    6    6    0    0 -0.74759030224E+02  0.15363699492E+02 -0.58331757367E+02  0.96060136267E+02  0.00000000000E+00 0.  1.
         12    1    6    6    0    0 -0.31753924473E+03 -0.71097021653E+02 -0.14322541623E+03  0.35552704298E+03  0.00000000000E+00 0. -1.
         -5    1    3    3    0  503  0.58191368196E+02  0.35972407352E+02  0.11010177292E+03  0.12971021480E+03  0.47000000000E+01 0.  1.
         13    1    4    4    0    0  0.16548282507E+03  0.50244341308E+02  0.10222748880E+03  0.20089678617E+03  0.00000000000E+00 0. -1.
        -14    1    4    4    0    0  0.16950116432E+03 -0.14169402545E+02  0.48736591637E+02  0.17693691542E+03  0.00000000000E+00 0.  1.
</event>
<event>
12    1  0.1061634E+000  0.3188435E+03  0.7818608E-02  0.1076315E+00
         21   -1    0    0  503  502  0.00000000000E+00  0.00000000000E+00  0.16572491560E+04  0.16572491560E+04  0.00000000000E+00 0. -1.
         21   -1    0    0  501  503 -0.00000000000E+00 -0.00000000000E+00 -0.91748385376E+02  0.91748385376E+02  0.00000000000E+00 0. -1.
          6    2    1    2  501    0  0.24066716320E+03 -0.11780744205E+03  0.12889258118E+04  0.13277766947E+04  0.17280603526E+03 0.  0.
         24    2    3    3    0    0  0.19234317923E+03 -0.46794635333E+02  0.10954914787E+04  0.11160765356E+04  0.79621711244E+02 0.  0.
         -6    2    1    2    0  502 -0.24066716320E+03  0.11780744205E+03  0.27657495884E+03  0.42122084669E+03  0.17068689752E+03 0.  0.
        -24    2    5    5    0    0 -0.84591315036E+02 -0.81478445663E+01  0.10720169949E+03  0.15866838415E+03  0.80382671039E+02 0.  0.
          5    1    3    3  501    0  0.48323983967E+02 -0.71012806715E+02  0.19343433306E+03  0.21170015907E+03  0.47000000000E+01 0. -1.
        -13    1    4    4    0    0  0.13718857377E+03 -0.69381731326E+02  0.79788178243E+03  0.81255760913E+03  0.00000000000E+00 0.  1.
         14    1    4    4    0    0  0.55154605461E+02  0.22587095993E+02  0.29760969628E+03  0.30351892648E+03  0.00000000000E+00 0. -1.
         -5    1    5    5    0  502 -0.15607584816E+03  0.12595528661E+03  0.16937325935E+03  0.26255246255E+03  0.47000000000E+01 0.  1.
         11    1    6    6    0    0 -0.56858549415E+02  0.20665548944E+02  0.10165378583E+03  0.11829392092E+03  0.00000000000E+00 0. -1.
        -12    1    6    6    0    0 -0.27732765621E+02 -0.28813393510E+02  0.55479136659E+01  0.40374463224E+02  0.00000000000E+00 0.  1.
</event>
<event>
12    1  0.1061634E+000  0.2980936E+03  0.7818608E-02  0.1086323E+00
         21   -1    0    0  503  502  0.00000000000E+00  0.00000000000E+00  0.27152092058E+03  0.27152092058E+03  0.00000000000E+00 0.  1.
         21   -1    0    0  501  503 -0.00000000000E+00 -0.00000000000E+00 -0.40217166352E+03  0.40217166352E+03  0.00000000000E+00 0. -1.
          6    2    1    2  501    0  0.22760829996E+03 -0.85143558431E+02  0.81015357663E+02  0.30890655861E+03  0.17264069630E+03 0.  0.
         24    2    3    3    0    0  0.11322090555E+03 -0.11789076686E+03  0.14086963539E+02  0.17231096717E+03  0.52682259806E+02 0.  0.
         -6    2    1    2    0  502 -0.22760829996E+03  0.85143558431E+02 -0.21166610060E+03  0.36478602549E+03  0.17091326015E+03 0.  0.
        -24    2    5    5    0    0 -0.16312146424E+03 -0.98657130486E+01 -0.11572155720E+03  0.21507711107E+03  0.78490384857E+02 0.  0.
          5    1    3    3  501    0  0.11438739441E+03  0.32747208433E+02  0.66928394124E+02  0.13659559144E+03  0.47000000000E+01 0. -1.
        -11    1    4    4    0    0  0.50257261975E+02 -0.17552591479E+02  0.25968966483E+01  0.53297558303E+02  0.00000000000E+00 0.  1.
         12    1    4    4    0    0  0.62963643577E+02 -0.10033817539E+03  0.11490066891E+02  0.11901340886E+03  0.00000000000E+00 0. -1.
         -5    1    5    5    0  502 -0.64486835725E+02  0.95009271480E+02 -0.95944543402E+02  0.14970891442E+03  0.47000000000E+01 0.  1.
         13    1    6    6    0    0 -0.13716032933E+03  0.21867602804E+02 -0.77638636377E+02  0.15911915614E+03  0.00000000000E+00 0. -1.
        -14    1    6    6    0    0 -0.25961134912E+02 -0.31733315852E+02 -0.38082920818E+02  0.55957954921E+02  0.00000000000E+00 0.  1.
</event>
<event>
12    1  0.1061634E+000  0.1892585E+03  0.7818608E-02  0.1160205E+00
         21   -1    0    0  501  502  0.00000000000E+00  0.00000000000E+00  0.14095670948E+03  0.14095670948E+03  0.00000000000E+00 0. -1.
         21   -1    0    0  502  503 -0.00000000000E+00 -0.00000000000E+00 -0.33468628314E+03  0.33468628314E+03  0.00000000000E+00 0. -1.
         -6    2    1    2    0  503 -0.27707006990E+02 -0.66799873948E+02 -0.21887183106E+03  0.28935042634E+03  0.17489679641E+03 0.  0.
        -24    2    3    3    0    0  0.38808155220E+02 -0.72874589626E+02 -0.95616706155E+02  0.14908252270E+03  0.79159745795E+02 0.  0.
          6    2    1    2  501    0  0.27707006990E+02  0.66799873948E+02  0.25142257406E+02  0.18629256628E+03  0.16983193383E+03 0.  0.
         24    2    5    5    0    0  0.64317976844E+02 -0.42083724893E+01  0.21091355580E+02  0.10616121174E+03  0.81675241369E+02 0.  0.
          5    1    5    5  501    0 -0.36610969854E+02  0.71008246438E+02  0.40509018258E+01  0.80131354546E+02  0.47000000000E+01 0. -1.
        -11    1    6    6    0    0 -0.72818119737E+01  0.10689003401E+02 -0.18828071083E+02  0.22842413183E+02  0.00000000000E+00 0.  1.
         12    1    6    6    0    0  0.71599788818E+02 -0.14897375890E+02  0.39919426663E+02  0.83318798553E+02  0.00000000000E+00 0. -1.
         -5    1    3    3    0  503 -0.66515162210E+02  0.60747156779E+01 -0.12325512491E+03  0.14026790364E+03  0.47000000000E+01 0.  1.
         13    1    4    4    0    0  0.20363477470E+02  0.14362082644E+02 -0.25467587902E+02  0.35630586104E+02  0.00000000000E+00 0. -1.
        -14    1    4    4    0    0  0.18444677750E+02 -0.87236672271E+02 -0.70149118253E+02  0.11345193660E+03  0.00000000000E+00 0.  1.
</event>
<event>
12    1  0.1061634E+000  0.2660189E+03  0.7818608E-02  0.1103865E+00
         21   -1    0    0  503  502  0.00000000000E+00  0.00000000000E+00  0.42201145682E+03  0.42201145682E+03  0.00000000000E+00 0. -1.
         21   -1    0    0  501  503 -0.00000000000E+00 -0.00000000000E+00 -0.16748476074E+03  0.16748476074E+03  0.00000000000E+00 0. -1.
          6    2    1    2  501    0 -0.85716360275E+02 -0.18184272877E+03  0.14984032983E+03  0.30361984884E+03  0.17122738023E+03 0.  0.
         24    2    3    3    0    0 -0.67550515055E+02 -0.20316859183E+03  0.10893825937E+03  0.25382165876E+03  0.81959388186E+02 0.  0.
         -6    2    1    2    0  502  0.85716360275E+02  0.18184272877E+03  0.10468636625E+03  0.28587636871E+03  0.17421822660E+03 0.  0.
        -24    2    5    5    0    0 -0.92539425212E+01  0.13270220134E+03  0.57048114703E+02  0.16871987994E+03  0.86697178753E+02 0.  0.
          5    1    3    3  501    0 -0.18165845220E+02  0.21325863055E+02  0.40902070459E+02  0.49798190082E+02  0.47000000000E+01 0. -1.
        -11    1    4    4    0    0 -0.46262913936E+02 -0.13318118682E+03  0.11281206079E+03  0.18056590705E+03  0.00000000000E+00 0.  1.
         12    1    4    4    0    0 -0.21287601120E+02 -0.69987405012E+02 -0.38738014223E+01  0.73255751714E+02  0.00000000000E+00 0. -1.
         -5    1    5    5    0  502  0.94970302796E+02  0.49140527434E+02  0.47638251550E+02  0.11715648877E+03  0.47000000000E+01 0.  1.
         11    1    6    6    0    0  0.24091820616E+01  0.43915466200E+02  0.65365825874E+02  0.78784919381E+02  0.00000000000E+00 0. -1.
        -12    1    6    6    0    0 -0.11663124583E+02  0.88786735141E+02 -0.83177111702E+01  0.89934960561E+02  0.00000000000E+00 0.  1.
</event>
<event>
12    1  0.1061634E+000  0.1771674E+03  0.7818608E-02  0.1170648E+00
         21   -1    0    0  501  502  0.00000000000E+00  0.00000000000E+00  0.31861993377E+03  0.31861993377E+03  0.00000000000E+00 0. -1.
         21   -1    0    0  502  503 -0.00000000000E+00 -0.00000000000E+00 -0.10212702304E+03  0.10212702304E+03  0.00000000000E+00 0. -1.
         -6    2    1    2    0  503  0.14951386675E+02  0.40644342767E+02  0.14881969114E+03  0.23137757514E+03  0.17179282651E+03 0.  0.
        -24    2    3    3    0    0  0.45437895770E+02  0.14461775714E+02  0.20512268396E+02  0.96841933813E+02  0.81754887690E+02 0.  0.
          6    2    1    2  501    0 -0.14951386675E+02 -0.40644342767E+02  0.67673219590E+02  0.18936938168E+03  0.17148058638E+03 0.  0.
         24    2    5    5    0    0  0.26690353328E+02 -0.23414716149E+02  0.10076065944E+03  0.13326445124E+03  0.79662284544E+02 0.  0.
          5    1    5    5  501    0 -0.41641740003E+02 -0.17229626618E+02 -0.33087439853E+02  0.56104930442E+02  0.47000000000E+01 0. -1.
        -13    1    6    6    0    0  0.12757891226E+02 -0.52923528682E+02  0.66666199513E+02  0.86070005427E+02  0.00000000000E+00 0.  1.
         14    1    6    6    0    0  0.13932462102E+02  0.29508812533E+02  0.34094459930E+02  0.47194445809E+02  0.00000000000E+00 0. -1.
         -5    1    3    3    0  503 -0.30486509095E+02  0.26182567053E+02  0.12830742275E+03  0.13453564132E+03  0.47000000000E+01 0.  1.
         13    1    4    4    0    0 -0.95386538383E+01 -0.23809752592E+02  0.14799418838E+02  0.29612717428E+02  0.00000000000E+00 0. -1.
        -14    1    4    4    0    0  0.54976549608E+02  0.38271528306E+02  0.57128495578E+01  0.67229216385E+02  0.00000000000E+00 0.  1.
</event>
<event>
12    1  0.1061634E+000  0.1847052E+03  0.7818608E-02  0.1163613E+00
         21   -1    0    0  503  502  0.00000000000E+00  0.00000000000E+00  0.57586818793E+03  0.57586818793E+03  0.00000000000E+00 0. -1.
         21   -1    0    0  501  503 -0.00000000000E+00 -0.00000000000E+00 -0.14379228458E+03  0.14379228458E+03  0.00000000000E+00 0. -1.
          6    2    1    2  501    0 -0.57963582788E+02 -0.33116162729E+02  0.49230339253E+03  0.52538392042E+03  0.17090692313E+03 0.  0.
         24    2    3    3    0    0 -0.33460760257E+02  0.41151083288E+02  0.34982822156E+03  0.36278848233E+03  0.80141525946E+02 0.  0.
         -6    2    1    2    0  502  0.57963582788E+02  0.33116162729E+02 -0.60227489189E+02  0.19427655209E+03  0.17221954324E+03 0.  0.
        -24    2    5    5    0    0  0.49512506892E+02 -0.49362023398E+01  0.27366445787E+02  0.98285976428E+02  0.80220672991E+02 0.  0.
          5    1    3    3  501    0 -0.24502822532E+02 -0.74267246017E+02  0.14247517097E+03  0.16259543809E+03  0.47000000000E+01 0. -1.
        -11    1    4    4    0    0 -0.77064312988E+01 -0.24436114155E+02  0.90253155931E+02  0.93819746929E+02  0.00000000000E+00 0.  1.
         12    1    4    4    0    0 -0.25754328958E+02  0.65587197443E+02  0.25957506563E+03  0.26896873541E+03  0.00000000000E+00 0. -1.
         -5    1    5    5    0  502  0.84510758962E+01  0.38052365069E+02 -0.87593934975E+02  0.95990575660E+02  0.47000000000E+01 0.  1.
         11    1    6    6    0    0  0.36484065122E+02 -0.33303939894E+02 -0.91564907102E+01  0.50240230318E+02  0.00000000000E+00 0. -1.
        -12    1    6    6    0    0  0.13028441770E+02  0.28367737555E+02  0.36522936497E+02  0.48045746110E+02  0.00000000000E+00 0.  1.
</event>
<event>
12    1  0.1061634E+000  0.2564170E+03  0.7818608E-02  0.1109487E+00
         21   -1    0    0  501  502  0.00000000000E+00  0.00000000000E+00  0.17029142425E+03  0.17029142425E+03  0.00000000000E+00 0.  1.
         21   -1    0    0  502  503 -0.00000000000E+00 -0.00000000000E+00 -0.49716377310E+03  0.49716377310E+03  0.00000000000E+00 0.  1.
         -6    2    1    2    0  503 -0.11784806129E+03  0.14767733933E+03 -0.32263933892E+03  0.41212353736E+03  0.17335773684E+03 0.  0.
        -24    2    3    3    0    0 -0.12274830007E+03  0.11345788740E+03 -0.32845680145E+03  0.37675524505E+03  0.78235585730E+02 0.  0.
          6    2    1    2  501    0  0.11784806129E+03 -0.14767733933E+03 -0.42330099259E+01  0.25533166000E+03  0.17169617388E+03 0.  0.
         24    2    5    5    0    0  0.10541929937E+03 -0.14127203562E+03  0.48838142029E+02  0.20024863895E+03  0.81506665722E+02 0.  0.
          5    1    5    5  501    0  0.12428761917E+02 -0.64053037128E+01 -0.53071151955E+02  0.55083021053E+02  0.47000000000E+01 0. -1.
        -11    1    6    6    0    0  0.32105984720E+02 -0.27179626673E+01  0.26884905220E+02  0.41964028699E+02  0.00000000000E+00 0.  1.
         12    1    6    6    0    0  0.73313314650E+02 -0.13855407295E+03  0.21953236809E+02  0.15828461025E+03  0.00000000000E+00 0. -1.
         -5    1    3    3    0  503  0.49002387798E+01  0.34219451929E+02  0.58174625228E+01  0.35368292305E+02  0.47000000000E+01 0.  1.
         13    1    4    4    0    0 -0.79500953830E+02  0.10115572153E+03 -0.17736176289E+03  0.21911201837E+03  0.00000000000E+00 0. -1.
        -14    1    4    4    0    0 -0.43247346237E+02  0.12302165864E+02 -0.15109503856E+03  0.15764322668E+03  0.00000000000E+00 0.  1.
</event>
<event>
12    1  0.1061634E+000  0.2003993E+03  0.7818608E-02  0.1149657E+00
         21   -1    0    0  501  502  0.00000000000E+00  0.00000000000E+00  0.12813700827E+03  0.12813700827E+03  0.00000000000E+00 0. -1.
         21   -1    0    0  502  503 -0.00000000000E+00 -0.00000000000E+00 -0.38250966271E+03  0.38250966271E+03  0.00000000000E+00 0. -1.
         -6    2    1    2    0  503  0.10139137069E+03 -0.15224957923E+02 -0.16887611030E+02  0.19990715785E+03  0.17077959761E+03 0.  0.
        -24    2    3    3    0    0 -0.11083160305E+02 -0.14477660001E+02 -0.29323148244E+02  0.86647230413E+02  0.79469846067E+02 0.  0.
          6    2    1    2  501    0 -0.10139137069E+03  0.15224957923E+02 -0.23748504342E+03  0.31073951313E+03  0.17218562594E+03 0.  0.
         24    2    5    5    0    0 -0.13305868527E+03 -0.13213312816E+02 -0.16639443851E+03  0.22774844035E+03  0.79391671809E+02 0.  0.
          5    1    5    5  501    0  0.31667314582E+02  0.28438270739E+02 -0.71090604910E+02  0.82991072784E+02  0.47000000000E+01 0. -1.
        -13    1    6    6    0    0 -0.68026032058E+02 -0.33014802413E+02 -0.13062497116E+03  0.15093177700E+03  0.00000000000E+00 0.  1.
         14    1    6    6    0    0 -0.65032653214E+02  0.19801489597E+02 -0.35769467344E+02  0.76816663352E+02  0.00000000000E+00 0. -1.
         -5    1    3    3    0  503  0.11247453099E+03 -0.74729792174E+00  0.12435537214E+02  0.11325992743E+03  0.47000000000E+01 0.  1.
         11    1    4    4    0    0  0.14107730206E+02 -0.23259843308E+02 -0.47238778400E+02  0.54511930318E+02  0.00000000000E+00 0. -1.
        -12    1    4    4    0    0 -0.25190890510E+02  0.87821833066E+01  0.17915630156E+02  0.32135300095E+02  0.00000000000E+00 0.  1.
</event>
<event>
12    1  0.1277714E+000  0.2795063E+03  0.7818608E-02  0.1096672E+00
         21   -1    0    0  503  502  0.00000000000E+00  0.00000000000E+00  0.50799478107E+03  0.50799478107E+03  0.00000000000E+00 0.  1.
         21   -1    0    0  501  503 -0.00000000000E+00 -0.00000000000E+00 -0.46535791885E+03  0.46535791885E+03  0.00000000000E+00 0. -1.
          6    2    1    2  501    0  0.20677772963E+03  0.53906886174E+02  0.42139963352E+03  0.50566930200E+03  0.18016883749E+03 0.  0.
         24    2    3    3    0    0  0.99603563347E+02  0.19576835033E+02  0.96937918599E+02  0.16221282909E+03  0.81313710766E+02 0.  0.
         -6    2    1    2    0  502 -0.20677772963E+03 -0.53906886174E+02 -0.37876277130E+03  0.46768339792E+03  0.17205679853E+03 0.  0.
        -24    2    5    5    0    0 -0.58512861462E+02  0.22915736817E+02 -0.95696678260E+02  0.13900013159E+03  0.78830808709E+02 0.  0.
          5    1    3    3  501    0  0.10717416629E+03  0.34330051141E+02  0.32446171492E+03  0.34345647290E+03  0.47000000000E+01 0. -1.
        -13    1    4    4    0    0  0.71051850559E+02 -0.25622156290E+02  0.66854875570E+02  0.10086840312E+03  0.00000000000E+00 0.  1.
         14    1    4    4    0    0  0.28551712788E+02  0.45198991324E+02  0.30083043029E+02  0.61344425971E+02  0.00000000000E+00 0. -1.
         -5    1    5    5    0  502 -0.14826486817E+03 -0.76822622992E+02 -0.28306609304E+03  0.32868326633E+03  0.47000000000E+01 0.  1.
         11    1    6    6    0    0 -0.68733340122E+02  0.79924357617E+00 -0.91235086886E+02  0.11423113373E+03  0.00000000000E+00 0. -1.
        -12    1    6    6    0    0  0.10220478660E+02  0.22116493241E+02 -0.44615913740E+01  0.24768997858E+02  0.00000000000E+00 0.  1.
</event>
<event>
12    1  0.1061634E+000  0.3030438E+03  0.7818608E-02  0.1083740E+00
         21   -1    0    0  503  502  0.00000000000E+00  0.00000000000E+00  0.39927557501E+03  0.39927557501E+03  0.00000000000E+00 0. -1.
         21   -1    0    0  501  503 -0.00000000000E+00 -0.00000000000E+00 -0.69832880181E+03  0.69832880181E+03  0.00000000000E+00 0. -1.
          6    2    1    2  501    0 -0.23935521615E+03  0.69035468594E+02 -0.59897848551E+03  0.67123519452E+03  0.17240836649E+03 0.  0.
         24    2    3    3    0    0 -0.23241883176E+03  0.25069501785E+02 -0.55838334120E+03  0.61081023769E+03  0.81548742903E+02 0.  0.
         -6    2    1    2    0  502  0.23935521615E+03 -0.69035468594E+02  0.29992525872E+03  0.42636918230E+03  0.17256506998E+03 0.  0.
        -24    2    5    5    0    0  0.75889538750E+02 -0.83685306893E+02  0.15600352129E+03  0.20803182417E+03  0.78598273086E+02 0.  0.
          5    1    3    3  501    0 -0.69363843960E+01  0.43965966809E+02 -0.40595144313E+02  0.60424956829E+02  0.47000000000E+01 0. -1.
        -13    1    4    4    0    0 -0.90101522801E+02 -0.22557218240E+02 -0.15873312404E+03  0.18391116653E+03  0.00000000000E+00 0.  1.
         14    1    4    4    0    0 -0.14231730895E+03  0.47626720024E+02 -0.39965021716E+03  0.42689907116E+03  0.00000000000E+00 0. -1.
         -5    1    5    5    0  502  0.16346567740E+03  0.14649838299E+02  0.14392173743E+03  0.21833735813E+03  0.47000000000E+01 0.  1.
         13    1    6    6    0    0 -0.12045475273E+02 -0.24606933442E+02  0.56029748187E+02  0.62369281941E+02  0.00000000000E+00 0. -1.
        -14    1    6    6    0    0  0.87935014022E+02 -0.59078373451E+02  0.99973773098E+02  0.14566254223E+03  0.00000000000E+00 0.  1.
</event>
<event>
12    1  0.1061634E+000  0.2570136E+03  0.7818608E-02  0.1108953E+00
         21   -1    0    0  503  502  0.00000000000E+00  0.00000000000E+00  0.60066194653E+03  0.60066194653E+03  0.00000000000E+00 0.  1.
         21   -1    0    0  501  503 -0.00000000000E+00 -0.00000000000E+00 -0.11571262003E+03  0.11571262003E+03  0.00000000000E+00 0.  1.
          6    2    1    2  501    0  0.77531727279E+02  0.17459402596E+03  0.16265431476E+03  0.30414884678E+03  0.17191815568E+03 0.  0.
         24    2    3    3    0    0  0.82246121837E+02  0.14336095098E+03  0.18876790839E+03  0.26289669216E+03  0.78514716359E+02 0.  0.
         -6    2    1    2    0  502 -0.77531727279E+02 -0.17459402596E+03  0.32229501175E+03  0.41222571978E+03  0.17193524018E+03 0.  0.
        -24    2    5    5    0    0 -0.67097543947E+02 -0.29730055939E+02  0.11996777643E+03  0.16312164084E+03  0.82646510510E+02 0.  0.
          5    1    3    3  501    0 -0.47143945578E+01  0.31233074979E+02 -0.26113593635E+02  0.41252154625E+02  0.47000000000E+01 0. -1.
        -13    1    4    4    0    0  0.81475339659E+02  0.82003941106E+02  0.15337509188E+03  0.19205935577E+03  0.00000000000E+00 0.  1.
         14    1    4    4    0    0  0.77078217757E+00  0.61357009875E+02  0.35392816517E+02  0.70837336390E+02  0.00000000000E+00 0. -1.
         -5    1    5    5    0  502 -0.10434183331E+02 -0.14486397002E+03  0.20232723532E+03  0.24910407894E+03  0.47000000000E+01 0.  1.
         11    1    6    6    0    0 -0.60810586874E+02 -0.42413496029E+02  0.44783683293E+02  0.86616455773E+02  0.00000000000E+00 0. -1.
        -12    1    6    6    0    0 -0.62869570735E+01  0.12683440089E+02  0.75184093135E+02  0.76505185068E+02  0.00000000000E+00 0.  1.
</event>
<event>
12    1  0.1061634E+000  0.2002747E+03  0.7818608E-02  0.1149609E+00
         21   -1    0    0  501  502  0.00000000000E+00  0.00000000000E+00  0.81691246912E+03  0.81691246912E+03  0.00000000000E+00 0.  1.
         21   -1    0    0  502  503 -0.00000000000E+00 -0.00000000000E+00 -0.56528314234E+02  0.56528314234E+02  0.00000000000E+00 0.  1.
         -6    2    1    2    0  503  0.79284599014E+02 -0.64330656267E+02  0.53936770338E+03  0.57518212653E+03  0.17173374230E+03 0.  0.
        -24    2    3    3    0    0  0.99825143691E+02 -0.97825952315E+02  0.44586588899E+03  0.47365120450E+03  0.77550604747E+02 0.  0.
          6    2    1    2  501    0 -0.79284599014E+02  0.64330656267E+02  0.22101645150E+03  0.29825865683E+03  0.17229472877E+03 0.  0.
         24    2    5    5    0    0  0.81333568990E+01  0.72486303239E+02  0.83564490053E+02  0.13509142575E+03  0.77111955366E+02 0.  0.
          5    1    5    5  501    0 -0.87417955913E+02 -0.81556469722E+01  0.13745196145E+03  0.16316723109E+03  0.47000000000E+01 0. -1.
        -13    1    6    6    0    0  0.29219111795E+02  0.63873172512E+02  0.87259294585E+02  0.11201661998E+03  0.00000000000E+00 0.  1.
         14    1    6    6    0    0 -0.21085754896E+02  0.86131307265E+01 -0.36948045325E+01  0.23074805762E+02  0.00000000000E+00 0. -1.
         -5    1    3    3    0  503 -0.20540544677E+02  0.33495296048E+02  0.93501814395E+02  0.10153092203E+03  0.47000000000E+01 0.  1.
         13    1    4    4    0    0  0.10610810570E+02  0.25455603274E+01  0.36677565993E+01  0.11511803369E+02  0.00000000000E+00 0. -1.
        -14    1    4    4    0    0  0.89214333121E+02 -0.10037151264E+03  0.44219813239E+03  0.46213940113E+03  0.00000000000E+00 0.  1.
</event>
<event>
12    1  0.1061634E+000  0.3307853E+03  0.7818608E-02  0.1070863E+00
         21   -1    0    0  503  502  0.00000000000E+00  0.00000000000E+00  0.48508497281E+03  0.48508497281E+03  0.00000000000E+00 0.  1.
         21   -1    0    0  501  503 -0.00000000000E+00 -0.00000000000E+00 -0.23009472959E+03  0.23009472959E+03  0.00000000000E+00 0.  1.
          6    2    1    2  501    0 -0.28201564106E+03  0.91196471842E+01  0.18023699377E+03  0.37670186894E+03  0.17263526400E+03 0.  0.
         24    2    3    3    0    0 -0.14518609534E+03 -0.57348395115E+02  0.12306805470E+03  0.21412664690E+03  0.79602978105E+02 0.  0.
         -6    2    1    2    0  502  0.28201564106E+03 -0.91196471842E+01  0.74753249444E+02  0.33847783346E+03  0.17135695398E+03 0.  0.
        -24    2    5    5    0    0  0.44584498183E+02  0.51845592434E+01  0.11938154552E+02  0.92416897767E+02  0.79898099639E+02 0.  0.
          5    1    3    3  501    0 -0.13682954571E+03  0.66468042299E+02  0.57168939068E+02  0.16257522204E+03  0.47000000000E+01 0. -1.
        -13    1    4    4    0    0 -0.20580797693E+02  0.19809454469E+02  0.17427703062E+02  0.33462046472E+02  0.00000000000E+00 0.  1.
         14    1    4    4    0    0 -0.12460529765E+03 -0.77157849584E+02  0.10564035164E+03  0.18066460043E+03  0.00000000000E+00 0. -1.
         -5    1    5    5    0  502  0.23743114287E+03 -0.14304206428E+02  0.62815094892E+02  0.24606093569E+03  0.47000000000E+01 0.  1.
         11    1    6    6    0    0  0.67834872781E+02  0.75760349074E+01  0.82155785069E+01  0.68749269089E+02  0.00000000000E+00 0. -1.
        -12    1    6    6    0    0 -0.23250374598E+02 -0.23914756640E+01  0.37225760450E+01  0.23667628678E+02  0.00000000000E+00 0.  1.
</event>
<event>
12    1  0.1061634E+000  0.5891498E+03  0.7818608E-02  0.9928416E-01
         21   -1    0    0  501  502  0.00000000000E+00  0.00000000000E+00  0.10025934485E+04  0.10025934485E+04  0.00000000000E+00 0. -1.
         21   -1    0    0  502  503 -0.00000000000E+00 -0.00000000000E+00 -0.37710926441E+03  0.37710926441E+03  0.00000000000E+00 0. -1.
         -6    2    1    2    0  503  0.55535906548E+03 -0.95884680445E+02  0.11450446734E+03  0.60017394420E+03  0.17169719481E+03 0.  0.
        -24    2    3    3    0    0  0.43305200508E+03 -0.13371620030E+03  0.77459913943E+02  0.46681491805E+03  0.80635402434E+02 0.  0.
          6    2    1    2  501    0 -0.55535906548E+03  0.95884680445E+02  0.51097971671E+03  0.77952876867E+03  0.17013896305E+03 0.  0.
         24    2    5    5    0    0 -0.53767731316E+03  0.11767733247E+03  0.50271999603E+03  0.74989977894E+03  0.81715582193E+02 0.  0.
          5    1    5    5  501    0 -0.17681752312E+02 -0.21792652022E+02  0.82597206760E+01  0.29628989734E+02  0.47000000000E+01 0. -1.
        -13    1    6    6    0    0 -0.51208987052E+03  0.92677358285E+02  0.46460321419E+03  0.69762545457E+03  0.00000000000E+00 0.  1.
         14    1    6    6    0    0 -0.25587442645E+02  0.24999974182E+02  0.38116781845E+02  0.52274324371E+02  0.00000000000E+00 0. -1.
         -5    1    3    3    0  503  0.12230706040E+03  0.37831519856E+02  0.37044553395E+02  0.13335902615E+03  0.47000000000E+01 0.  1.
         11    1    4    4    0    0  0.13594454480E+02 -0.20462013448E+02  0.12314889087E+02  0.27480168853E+02  0.00000000000E+00 0. -1.
        -12    1    4    4    0    0  0.41945755060E+03 -0.11325418685E+03  0.65145024856E+02  0.43933474920E+03  0.00000000000E+00 0.  1.
</event>
<event>
12    1  0.1061634E+000  0.2407713E+03  0.7818608E-02  0.1119435E+00
         21   -1    0    0  503  502  0.00000000000E+00  0.00000000000E+00  0.64513035762E+03  0.64513035762E+03  0.00000000000E+00 0. -1.
         21   -1    0    0  501  503 -0.00000000000E+00 -0.00000000000E+00 -0.89618419185E+02  0.89618419185E+02  0.00000000000E+00 0. -1.
          6    2    1    2  501    0 -0.13454393928E+03 -0.99954538078E+02  0.29101197848E+03  0.37770197151E+03  0.17285203610E+03 0.  0.
         24    2    3    3    0    0 -0.13476883979E+03 -0.67645843111E+02  0.29878867080E+03  0.34413905605E+03  0.80115041242E+02 0.  0.
         -6    2    1    2    0  502  0.13454393928E+03  0.99954538078E+02  0.26449995996E+03  0.35704680530E+03  0.17154944207E+03 0.  0.
        -24    2    5    5    0    0  0.12988135673E+03  0.70887309630E+02  0.27806822188E+03  0.32429270361E+03  0.77133936153E+02 0.  0.
          5    1    3    3  501    0  0.22490050879E+00 -0.32308694967E+02 -0.77766923206E+01  0.33562915460E+02  0.47000000000E+01 0. -1.
        -13    1    4    4    0    0 -0.87180531735E+02 -0.43400813538E+00  0.13307042400E+03  0.15908604973E+03  0.00000000000E+00 0.  1.
         14    1    4    4    0    0 -0.47588308053E+02 -0.67211834976E+02  0.16571824680E+03  0.18505300632E+03  0.00000000000E+00 0. -1.
         -5    1    5    5    0  502  0.46625825501E+01  0.29067228448E+02 -0.13568261917E+02  0.32754101684E+02  0.47000000000E+01 0.  1.
         13    1    6    6    0    0  0.34163176192E+02 -0.10336616819E+02  0.31492092379E+02  0.47599581271E+02  0.00000000000E+00 0. -1.
        -14    1    6    6    0    0  0.95718180537E+02  0.81223926449E+02  0.24657612950E+03  0.27669312234E+03  0.00000000000E+00 0.  1.
</event>
<event>
12    1  0.1061634E+000  0.2694009E+03  0.7818608E-02  0.1102127E+00
         21   -1    0    0  501  502  0.00000000000E+00  0.00000000000E+00  0.31519508084E+03  0.31519508084E+03  0.00000000000E+00 0.  1.
         21   -1    0    0  502  503 -0.00000000000E+00 -0.00000000000E+00 -0.27021604623E+03  0.27021604623E+03  0.00000000000E+00 0.  1.
         -6    2    1    2    0  503 -0.31333787993E+01 -0.20259559467E+03 -0.94048618112E+02  0.28534542311E+03  0.17754457153E+03 0.  0.
        -24    2    3    3    0    0  0.52269201168E+01 -0.22266966357E+03 -0.10656881454E+03  0.25981684777E+03  0.80862737923E+02 0.  0.
          6    2    1    2  501    0  0.31333787993E+01  0.20259559467E+03  0.13902765273E+03  0.30006570396E+03  0.17220901668E+03 0.  0.
         24    2    5    5    0    0 -0.58433281543E+02  0.99630963785E+02  0.44374146339E+02  0.14718161338E+03  0.79703106079E+02 0.  0.
          5    1    5    5  501    0  0.61566660342E+02  0.10296463088E+03  0.94653506393E+02  0.15288409058E+03  0.47000000000E+01 0. -1.
        -13    1    6    6    0    0 -0.54251577783E+02  0.79143616075E+02  0.66495792773E+02  0.11674174966E+03  0.00000000000E+00 0.  1.
         14    1    6    6    0    0 -0.41817037596E+01  0.20487347710E+02 -0.22121646435E+02  0.30439863723E+02  0.00000000000E+00 0. -1.
         -5    1    3    3    0  503 -0.83602989161E+01  0.20074068901E+02  0.12520196431E+02  0.25528575340E+02  0.47000000000E+01 0.  1.
         11    1    4    4    0    0 -0.14115013366E+02 -0.78060017560E+02 -0.31111649033E+00  0.79326519761E+02  0.00000000000E+00 0. -1.
        -12    1    4    4    0    0  0.19341933483E+02 -0.14460964601E+03 -0.10625769805E+03  0.18049032801E+03  0.00000000000E+00 0.  1.
</event>
<event>
12    1  0.1061634E+000  0.1849448E+03  0.7818608E-02  0.1163209E+00
         21   -1    0    0  503  502  0.00000000000E+00  0.00000000000E+00  0.31820054613E+02  0.31820054613E+02  0.00000000000E+00 0. -1.
         21   -1    0    0  501  503 -0.00000000000E+00 -0.00000000000E+00 -0.10791412385E+04  0.10791412385E+04  0.00000000000E+00 0. -1.
          6    2    1    2  501    0 -0.64714130756E+02  0.17214398767E+02 -0.47996237883E+03  0.51436218319E+03  0.17239581247E+03 0.  0.
         24    2    3    3    0    0 -0.10531948486E+03 -0.47647356287E+01 -0.28891364197E+03  0.31775702816E+03  0.79897057693E+02 0.  0.
         -6    2    1    2    0  502  0.64714130756E+02 -0.17214398767E+02 -0.56735880506E+03  0.59659910993E+03  0.17190180349E+03 0.  0.
        -24    2    5    5    0    0  0.10697999714E+03 -0.23253430810E+02 -0.49436895902E+03  0.51190860872E+03  0.75261638379E+02 0.  0.
          5    1    3    3  501    0  0.40605354104E+02  0.21979134395E+02 -0.19104873686E+03  0.19660515503E+03  0.47000000000E+01 0. -1.
        -11    1    4    4    0    0 -0.56583513660E+02  0.37145859814E+02 -0.13718883709E+03  0.15297805706E+03  0.00000000000E+00 0.  1.
         12    1    4    4    0    0 -0.48735971200E+02 -0.41910595443E+02 -0.15172480489E+03  0.16477897110E+03  0.00000000000E+00 0. -1.
         -5    1    5    5    0  502 -0.42265866383E+02  0.60390320436E+01 -0.72989846043E+02  0.84690501206E+02  0.47000000000E+01 0.  1.
         11    1    6    6    0    0  0.16341505109E+02 -0.25084811857E+02 -0.49123480971E+02  0.57527462641E+02  0.00000000000E+00 0. -1.
        -12    1    6    6    0    0  0.90638492030E+02  0.18313810463E+01 -0.44524547804E+03  0.45438114608E+03  0.00000000000E+00 0.  1.
</event>
<event>
12    1  0.1061634E+000  0.1857050E+03  0.7818608E-02  0.1162581E+00
         21   -1    0    0  501  502  0.00000000000E+00  0.00000000000E+00  0.10953794283E+04  0.10953794283E+04  0.00000000000E+00 0. -1.
         21   -1    0    0  502  503 -0.00000000000E+00 -0.00000000000E+00 -0.41233781735E+02  0.41233781735E+02  0.00000000000E+00 0. -1.
         -6    2    1    2    0  503 -0.53328626486E+02 -0.40791243484E+02  0.24791861949E+03  0.30927508816E+03  0.17227759668E+03 0.  0.
        -24    2    3    3    0    0 -0.15663035974E+02 -0.80848687231E+00  0.33551198430E+02  0.87931918519E+02  0.79751834032E+02 0.  0.
          6    2    1    2  501    0  0.53328626486E+02  0.40791243484E+02  0.80622702707E+03  0.82733812187E+03  0.17314294896E+03 0.  0.
         24    2    5    5    0    0  0.81670646316E+02  0.52325659321E-01  0.71029818728E+03  0.71923001941E+03  0.78091028693E+02 0.  0.
          5    1    5    5  501    0 -0.28342019830E+02  0.40738917825E+02  0.95928839787E+02  0.10810810245E+03  0.47000000000E+01 0. -1.
        -11    1    6    6    0    0  0.30376297737E+02 -0.25577796203E+02  0.48948058393E+03  0.49108877524E+03  0.00000000000E+00 0.  1.
         12    1    6    6    0    0  0.51294348579E+02  0.25630121862E+02  0.22081760335E+03  0.22814124417E+03  0.00000000000E+00 0. -1.
         -5    1    3    3    0  503 -0.37665590512E+02 -0.39982756612E+02  0.21436742106E+03  0.22134316964E+03  0.47000000000E+01 0.  1.
         11    1    4    4    0    0  0.86311415971E+01  0.34135591862E+02  0.25955257130E+01  0.35305410220E+02  0.00000000000E+00 0. -1.
        -12    1    4    4    0    0 -0.24294177571E+02 -0.34944078734E+02  0.30955672717E+02  0.52626508300E+02  0.00000000000E+00 0.  1.
</event>
<event>
12    1  0.1061634E+000  0.2144540E+03  0.7818608E-02  0.1138259E+00
         21   -1    0    0  501  502  0.00000000000E+00  0.00000000000E+00  0.98159535162E+03  0.98159535162E+03  0.00000000000E+00 0. -1.
         21   -1    0    0  502  503 -0.00000000000E+00 -0.00000000000E+00 -0.48279995520E+02  0.48279995520E+02  0.00000000000E+00 0. -1.
         -6    2    1    2    0  503  0.11256205092E+03  0.61920489803E+02  0.56009173578E+03  0.59942629831E+03  0.17060120824E+03 0.  0.
        -24    2    3    3    0    0  0.51768022880E+02  0.62837443264E+02  0.50269459961E+03  0.51568099462E+03  0.81219180445E+02 0.  0.
          6    2    1    2  501    0 -0.11256205092E+03 -0.61920489803E+02  0.37322362033E+03  0.43044904883E+03  0.17171531821E+03 0.  0.
         24    2    5    5    0    0 -0.45491758032E+02 -0.62933687655E+02  0.10330444209E+03  0.15228020885E+03  0.80543808960E+02 0.  0.
          5    1    5    5  501    0 -0.67070292888E+02  0.10131978519E+01  0.26991917823E+03  0.27816883998E+03  0.47000000000E+01 0. -1.
        -11    1    6    6    0    0 -0.31136239244E+02 -0.67941621608E+02  0.11208970154E+03  0.13472056462E+03  0.00000000000E+00 0.  1.
         12    1    6    6    0    0 -0.14355518788E+02  0.50079339527E+01 -0.87852594434E+01  0.17559644234E+02  0.00000000000E+00 0. -1.
         -5    1    3    3    0  503  0.60794028041E+02 -0.91695346065E+00  0.57397136170E+02  0.83745303686E+02  0.47000000000E+01 0.  1.
         13    1    4    4    0    0 -0.10020427636E+02 -0.10040064199E+02  0.27142543511E+02  0.30625635134E+02  0.00000000000E+00 0. -1.
        -14    1    4    4    0    0  0.61788450516E+02  0.72877507463E+02  0.47555205610E+03  0.48505535949E+03  0.00000000000E+00 0.  1.
</event>
<event>
12    1  0.1061634E+000  0.1796659E+03  0.7818608E-02  0.1168836E+00
         21   -1    0    0  501  502  0.00000000000E+00  0.00000000000E+00  0.13598524992E+02  0.13598524992E+02  0.00000000000E+00 0.  1.
         21   -1    0    0  502  503 -0.00000000000E+00 -0.00000000000E+00 -0.26253847644E+04  0.26253847644E+04  0.00000000000E+00 0.  1.
         -6    2    1    2    0  503 -0.39468116770E+01  0.43177945550E+02 -0.17536572220E+04  0.17628367713E+04  0.17435572185E+03 0.  0.
        -24    2    3    3    0    0  0.48177366344E+02  0.13516097870E+02 -0.54991408553E+03  0.55759140885E+03  0.77452787146E+02 0.  0.
          6    2    1    2  501    0  0.39468116770E+01 -0.43177945550E+02 -0.85812901740E+03  0.87614651807E+03  0.17136918716E+03 0.  0.
         24    2    5    5    0    0 -0.15542791691E+02  0.29795286112E+02 -0.63117382779E+03  0.63690671103E+03  0.78360833458E+02 0.  0.
          5    1    5    5  501    0  0.19489603368E+02 -0.72973231662E+02 -0.22695518961E+03  0.23923980704E+03  0.47000000000E+01 0. -1.
        -13    1    6    6    0    0 -0.36775298083E+02  0.19522777255E+01 -0.49270156638E+03  0.49407597336E+03  0.00000000000E+00 0.  1.
         14    1    6    6    0    0  0.21232506392E+02  0.27843008387E+02 -0.13847226141E+03  0.14283073767E+03  0.00000000000E+00 0. -1.
         -5    1    3    3    0  503 -0.52124178021E+02  0.29661847679E+02 -0.12037431365E+04  0.12052453625E+04  0.47000000000E+01 0.  1.
         11    1    4    4    0    0  0.69856628182E+01  0.29287393490E+02 -0.40489542132E+03  0.40601336567E+03  0.00000000000E+00 0. -1.
        -12    1    4    4    0    0  0.41191703526E+02 -0.15771295620E+02 -0.14501866421E+03  0.15157804318E+03  0.00000000000E+00 0.  1.
</event>
<event>
12    1  0.1061634E+000  0.2241931E+03  0.7818608E-02  0.1131945E+00
         21   -1    0    0  503  502  0.00000000000E+00  0.00000000000E+00  0.22266074445E+03  0.22266074445E+03  0.00000000000E+00 0. -1.
         21   -1    0    0  501  503 -0.00000000000E+00 -0.00000000000E+00 -0.22847697093E+03  0.22847697093E+03  0.00000000000E+00 0. -1.
          6    2    1    2  501    0 -0.65175862476E+02  0.12608966917E+03  0.41738000515E+02  0.22804522295E+03  0.17353980899E+03 0.  0.
         24    2    3    3    0    0 -0.35751446742E+02  0.15805178093E+03  0.28884158558E+02  0.18249652283E+03  0.78817224187E+02 0.  0.
         -6    2    1    2    0  502  0.65175862476E+02 -0.12608966917E+03 -0.47554226995E+02  0.22309249243E+03  0.16541571253E+03 0.  0.
        -24    2    5    5    0    0 -0.21730114724E+02 -0.42883090370E+02 -0.39833301207E+02  0.10243725498E+03  0.81212942305E+02 0.  0.
          5    1    3    3  501    0 -0.29424415734E+02 -0.31962111767E+02  0.12853841957E+02  0.45548700124E+02  0.47000000000E+01 0. -1.
        -13    1    4    4    0    0  0.19478826433E+02  0.74123194002E+02 -0.41011870989E+01  0.76749542695E+02  0.00000000000E+00 0.  1.
         14    1    4    4    0    0 -0.55230273175E+02  0.83928586932E+02  0.32985345657E+02  0.10574698013E+03  0.00000000000E+00 0. -1.
         -5    1    5    5    0  502  0.86905977200E+02 -0.83206578798E+02 -0.77209257881E+01  0.12065523745E+03  0.47000000000E+01 0.  1.
         11    1    6    6    0    0 -0.55158658447E+01  0.19797082127E+02 -0.30857397036E+02  0.37074629986E+02  0.00000000000E+00 0. -1.
        -12    1    6    6    0    0 -0.16214248879E+02 -0.62680172496E+02 -0.89759041712E+01  0.65362624997E+02  0.00000000000E+00 0.  1.
</event>
<event>
12    1  0.1061634E+000  0.3108075E+03  0.7818608E-02  0.1080018E+00
         21   -1    0    0  501  502  0.00000000000E+00  0.00000000000E+00  0.11038484772E+04  0.11038484772E+04  0.00000000000E+00 0.  1.
         21   -1    0    0  502  503 -0.00000000000E+00 -0.00000000000E+00 -0.88067432051E+02  0.88067432051E+02  0.00000000000E+00 0.  1.
         -6    2    1    2    0  503  0.21443757510E+03 -0.14464813194E+03  0.56034077600E+03  0.64052933303E+03  0.17143361846E+03 0.  0.
        -24    2    3    3    0    0  0.17522582916E+03 -0.13613431096E+03  0.55063770450E+03  0.59898073782E+03  0.79620354443E+02 0.  0.
          6    2    1    2  501    0 -0.21443757510E+03  0.14464813194E+03  0.45544026917E+03  0.55138657624E+03  0.17232168172E+03 0.  0.
         24    2    5    5    0    0 -0.20051882283E+03  0.16791019418E+03  0.44450967675E+03  0.52178213308E+03  0.79158764875E+02 0.  0.
          5    1    5    5  501    0 -0.13918752269E+02 -0.23262062240E+02  0.10930592420E+02  0.29604443163E+02  0.47000000000E+01 0. -1.
        -13    1    6    6    0    0 -0.53979891917E+02  0.72855320657E+02  0.21522188577E+03  0.23354268688E+03  0.00000000000E+00 0.  1.
         14    1    6    6    0    0 -0.14653893091E+03  0.95054873523E+02  0.22928779098E+03  0.28823944620E+03  0.00000000000E+00 0. -1.
         -5    1    3    3    0  503  0.39211745942E+02 -0.85138209762E+01  0.97030715043E+01  0.41548595212E+02  0.47000000000E+01 0.  1.
         13    1    4    4    0    0  0.14132079164E+03 -0.92330382445E+02  0.48244157451E+03  0.51112262569E+03  0.00000000000E+00 0. -1.
        -14    1    4    4    0    0  0.33905037517E+02 -0.43803928519E+02  0.68196129984E+02  0.87858112132E+02  0.00000000000E+00 0.  1.
</event>
<event>
12    1  0.1061634E+000  0.2381039E+03  0.7818608E-02  0.1121302E+00
         21   -1    0    0  501  502  0.00000000000E+00  0.00000000000E+00  0.19573704057E+03  0.19573704057E+03  0.00000000000E+00 0. -1.
         21   -1    0    0  502  503 -0.00000000000E+00 -0.00000000000E+00 -0.30396689627E+03  0.30396689627E+03  0.00000000000E+00 0. -1.
         -6    2    1    2    0  503 -0.66833817406E+02 -0.15058047284E+03 -0.11168581869E+03  0.26299657765E+03  0.17190764907E+03 0.  0.
        -24    2    3    3    0    0  0.12602656960E+02 -0.48573950382E+02 -0.93132879552E+02  0.13229927227E+03  0.79442485929E+02 0.  0.
          6    2    1    2  501    0  0.66833817406E+02  0.15058047284E+03  0.34559629861E+01  0.23670735919E+03  0.16993290519E+03 0.  0.
         24    2    5    5    0    0 -0.13748653843E+02  0.11863970898E+03  0.30595313093E+02  0.14575472651E+03  0.77742916626E+02 0.  0.
          5    1    5    5  501    0  0.80582471249E+02  0.31940763854E+02 -0.27139350107E+02  0.90952632685E+02  0.47000000000E+01 0. -1.
        -13    1    6    6    0    0  0.15152218010E+02  0.43075194226E+02 -0.20515587644E+02  0.50059478669E+02  0.00000000000E+00 0.  1.
         14    1    6    6    0    0 -0.28900871853E+02  0.75564514758E+02  0.51110900738E+02  0.95695247838E+02  0.00000000000E+00 0. -1.
         -5    1    3    3    0  503 -0.79436474366E+02 -0.10200652246E+03 -0.18552939139E+02  0.13069730538E+03  0.47000000000E+01 0.  1.
         11    1    4    4    0    0  0.73882025950E+01 -0.59672509283E+02 -0.10113329712E+03  0.11765771411E+03  0.00000000000E+00 0. -1.
        -12    1    4    4    0    0  0.52144543653E+01  0.11098558901E+02  0.80004175726E+01  0.14641558160E+02  0.00000000000E+00 0.  1.
</event>
<event>
12    1  0.1061634E+000  0.3494449E+03  0.7818608E-02  0.1062901E+00
         21   -1    0    0  501  502  0.00000000000E+00  0.00000000000E+00  0.20920104260E+03  0.20920104260E+03  0.00000000000E+00 0. -1.
         21   -1    0    0  502  503 -0.00000000000E+00 -0.00000000000E+00 -0.64521766561E+03  0.64521766561E+03  0.00000000000E+00 0. -1.
         -6    2    1    2    0  503 -0.22312817056E+03 -0.20582809060E+03 -0.35107755657E+03  0.49534551421E+03  0.17309056689E+03 0.  0.
        -24    2    3    3    0    0 -0.14104316977E+03 -0.10406061730E+03 -0.11750848998E+03  0.22763080628E+03  0.85356610393E+02 0.  0.
          6    2    1    2  501    0  0.22312817056E+03  0.20582809060E+03 -0.84939066436E+02  0.35907319400E+03  0.17195211621E+03 0.  0.
         24    2    5    5    0    0  0.86167311882E+02  0.17077549559E+03 -0.49940475551E+02  0.21335444919E+03  0.80230881581E+02 0.  0.
          5    1    5    5  501    0  0.13696085868E+03  0.35052595005E+02 -0.34998590886E+02  0.14571874481E+03  0.47000000000E+01 0. -1.
        -13    1    6    6    0    0  0.44122330105E+02  0.15163962957E+03 -0.22228433311E+02  0.15948498524E+03  0.00000000000E+00 0.  1.
         14    1    6    6    0    0  0.42044981777E+02  0.19135866023E+02 -0.27712042240E+02  0.53869463949E+02  0.00000000000E+00 0. -1.
         -5    1    3    3    0  503 -0.82085000790E+02 -0.10176747330E+03 -0.23356906659E+03  0.26771470794E+03  0.47000000000E+01 0.  1.
         11    1    4    4    0    0  0.70780906398E+01 -0.22501446890E+02 -0.38750664605E+01  0.23904615021E+02  0.00000000000E+00 0. -1.
        -12    1    4    4    0    0 -0.14812126041E+03 -0.81559170410E+02 -0.11363342352E+03  0.20372619125E+03  0.00000000000E+00 0.  1.
</event>
<event>
12    1  0.1061634E+000  0.1783461E+03  0.7818608E-02  0.1170548E+00
         21   -1    0    0  503  502  0.00000000000E+00  0.00000000000E+00  0.47545848475E+03  0.47545848475E+03  0.00000000000E+00 0. -1.
         21   -1    0    0  501  503 -0.00000000000E+00 -0.00000000000E+00 -0.65821902052E+02  0.65821902052E+02  0.00000000000E+00 0. -1.
          6    2    1    2  501    0 -0.28203630624E+02 -0.16354236385E+02  0.18105294251E+03  0.25414070709E+03  0.17534088279E+03 0.  0.
         24    2    3    3    0    0 -0.31091711645E+02  0.53702187493E+02  0.14156846619E+03  0.17353451992E+03  0.78879525298E+02 0.  0.
         -6    2    1    2    0  502  0.28203630624E+02  0.16354236385E+02  0.22858364019E+03  0.28713967972E+03  0.17069214767E+03 0.  0.
        -24    2    5    5    0    0 -0.43482525055E+02 -0.20654714502E+01  0.78091130927E+02  0.11936520044E+03  0.79087484402E+02 0.  0.
          5    1    3    3  501    0  0.28880810210E+01 -0.70056423879E+02  0.39484476322E+02  0.80606187164E+02  0.47000000000E+01 0. -1.
        -11    1    4    4    0    0 -0.27692916439E+02 -0.14202885241E+02  0.57801059220E+02  0.65647406781E+02  0.00000000000E+00 0.  1.
         12    1    4    4    0    0 -0.33987952068E+01  0.67905072735E+02  0.83767406969E+02  0.10788711314E+03  0.00000000000E+00 0. -1.
         -5    1    5    5    0  502  0.71686155680E+02  0.18419707835E+02  0.15049250926E+03  0.16777447928E+03  0.47000000000E+01 0.  1.
         11    1    6    6    0    0 -0.28593727792E+02 -0.36340029168E+02  0.65000191884E+02  0.79769818440E+02  0.00000000000E+00 0. -1.
        -12    1    6    6    0    0 -0.14888797263E+02  0.34274557717E+02  0.13090939043E+02  0.39595381999E+02  0.00000000000E+00 0.  1.
</event>
<event>
12    1  0.1061634E+000  0.1793484E+03  0.7818608E-02  0.1169255E+00
         21   -1    0    0  501  502  0.00000000000E+00  0.00000000000E+00  0.25276228434E+02  0.25276228434E+02  0.00000000000E+00 0. -1.
         21   -1    0    0  502  503 -0.00000000000E+00 -0.00000000000E+00 -0.12713181869E+04  0.12713181869E+04  0.00000000000E+00 0. -1.
         -6    2    1    2    0  503 -0.23587947397E+02 -0.14983753708E+02 -0.71469604252E+03  0.73685566350E+03  0.17715792817E+03 0.  0.
        -24    2    3    3    0    0 -0.40745389211E+02  0.24730521640E+02 -0.66244902555E+03  0.66885976467E+03  0.79138409784E+02 0.  0.
          6    2    1    2  501    0  0.23587947397E+02  0.14983753708E+02 -0.53134591600E+03  0.55973875188E+03  0.17377595855E+03 0.  0.
         24    2    5    5    0    0  0.24937973898E+02  0.67718644425E+02 -0.44846818090E+03  0.46138428963E+03  0.80895216707E+02 0.  0.
          5    1    5    5  501    0 -0.13500265012E+01 -0.52734890717E+02 -0.82877735095E+02  0.98354462252E+02  0.47000000000E+01 0. -1.
        -11    1    6    6    0    0  0.23824109810E+02  0.51556800954E+02 -0.43892071876E+03  0.44258003716E+03  0.00000000000E+00 0.  1.
         12    1    6    6    0    0  0.11138640880E+01  0.16161843471E+02 -0.95474621456E+01  0.18804252472E+02  0.00000000000E+00 0. -1.
         -5    1    3    3    0  503  0.17157441814E+02 -0.39714275348E+02 -0.52247016966E+02  0.67995898832E+02  0.47000000000E+01 0.  1.
         13    1    4    4    0    0 -0.23790280268E+02  0.28206622326E+02 -0.10779457226E+03  0.11393533599E+03  0.00000000000E+00 0. -1.
        -14    1    4    4    0    0 -0.16955108943E+02 -0.34761006862E+01 -0.55465445329E+03  0.55492442868E+03  0.00000000000E+00 0.  1.
</event>
<event>
12    1  0.1061634E+000  0.1902534E+03  0.7818608E-02  0.1158244E+00
         21   -1    0    0  501  502  0.00000000000E+00  0.00000000000E+00  0.67477934721E+03  0.67477934721E+03  0.00000000000E+00 0. -1.
         21   -1    0    0  502  503 -0.00000000000E+00 -0.00000000000E+00 -0.71014802364E+02  0.71014802364E+02  0.00000000000E+00 0. -1.
         -6    2    1    2    0  503 -0.60790607106E+02  0.52658175419E+02  0.48636496620E+03  0.52223429261E+03  0.17236413396E+03 0.  0.
        -24    2    3    3    0    0 -0.77677763596E+02  0.57700511095E+02  0.15873052262E+03  0.19409252473E+03  0.55797360226E+02 0.  0.
          6    2    1    2  501    0  0.60790607106E+02 -0.52658175419E+02  0.11739957864E+03  0.22355985696E+03  0.17241800147E+03 0.  0.
         24    2    5    5    0    0  0.92521632173E+02 -0.22581584229E+02  0.12805570870E+03  0.17831494126E+03  0.79547302772E+02 0.  0.
          5    1    5    5  501    0 -0.31731025068E+02 -0.30076591190E+02 -0.10656130059E+02  0.45244915706E+02  0.47000000000E+01 0. -1.
        -13    1    6    6    0    0  0.65849485966E+02 -0.25606068016E+02  0.30186548499E+02  0.76831329752E+02  0.00000000000E+00 0.  1.
         14    1    6    6    0    0  0.26672146207E+02  0.30244837861E+01  0.97869160203E+02  0.10148361151E+03  0.00000000000E+00 0. -1.
         -5    1    3    3    0  503  0.16887156490E+02 -0.50423356753E+01  0.32763444358E+03  0.32814176788E+03  0.47000000000E+01 0.  1.
         13    1    4    4    0    0 -0.44911239979E+02  0.41501376873E+01  0.42401046359E+02  0.61903892056E+02  0.00000000000E+00 0. -1.
        -14    1    4    4    0    0 -0.32766523617E+02  0.53550373407E+02  0.11632947626E+03  0.13218863268E+03  0.00000000000E+00 0.  1.
</event>
<event>
12    1  0.1061634E+000  0.1910080E+03  0.7818608E-02  0.1158597E+00
         21   -1    0    0  501  502  0.00000000000E+00  0.00000000000E+00  0.17785454214E+03  0.17785454214E+03  0.00000000000E+00 0.  1.
         21   -1    0    0  502  503 -0.00000000000E+00 -0.00000000000E+00 -0.33634933479E+03  0.33634933479E+03  0.00000000000E+00 0.  1.
         -6    2    1    2    0  503  0.31157583590E+02  0.70547355272E+02 -0.24222181291E+03  0.30565110135E+03  0.16971583531E+03 0.  0.
        -24    2    3    3    0    0  0.25087362871E+02 -0.13977263269E+02 -0.58815915757E+02  0.10355936023E+03  0.80252660270E+02 0.  0.
          6    2    1    2  501    0 -0.31157583590E+02 -0.70547355272E+02  0.83727020265E+02  0.20855277558E+03  0.17474645040E+03 0.  0.
         24    2    5    5    0    0 -0.14788961296E+02 -0.18002330459E+02 -0.25944434664E+02  0.85756890247E+02  0.78347515957E+02 0.  0.
          5    1    5    5  501    0 -0.16368622294E+02 -0.52545024813E+02  0.10967145493E+03  0.12279588533E+03  0.47000000000E+01 0. -1.
        -11    1    6    6    0    0 -0.41614297527E+02 -0.10319753851E+02  0.60547805752E+01  0.43300201455E+02  0.00000000000E+00 0.  1.
         12    1    6    6    0    0  0.26825336231E+02 -0.76825766085E+01 -0.31999215239E+02  0.42456688792E+02  0.00000000000E+00 0. -1.
         -5    1    3    3    0  503  0.60702207182E+01  0.84524618540E+02 -0.18340589716E+03  0.20209174112E+03  0.47000000000E+01 0.  1.
         11    1    4    4    0    0  0.46506315420E+02 -0.63812050510E+01 -0.64839867111E+02  0.80048519779E+02  0.00000000000E+00 0. -1.
        -12    1    4    4    0    0 -0.21418952548E+02 -0.75960582179E+01  0.60239513544E+01  0.23510840450E+02  0.00000000000E+00 0.  1.
</event>
<event>
12    1  0.1061634E+000  0.2055235E+03  0.7818608E-02  0.1145263E+00
         21   -1    0    0  501  502  0.00000000000E+00  0.00000000000E+00  0.51999464786E+03  0.51999464786E+03  0.00000000000E+00 0.  1.
         21   -1    0    0  502  503 -0.00000000000E+00 -0.00000000000E+00 -0.16869425403E+03  0.16869425403E+03  0.00000000000E+00 0.  1.
         -6    2    1    2    0  503 -0.13312158783E+02  0.10788965662E+03  0.42397725905E+03  0.47116518674E+03  0.17442054187E+03 0.  0.
        -24    2    3    3    0    0 -0.23766400230E+02  0.13691606395E+03  0.27148950825E+03  0.31551677643E+03  0.80829652802E+02 0.  0.
          6    2    1    2  501    0  0.13312158783E+02 -0.10788965662E+03 -0.72676865219E+02  0.21752371515E+03  0.17383109140E+03 0.  0.
         24    2    5    5    0    0  0.16435477743E+02 -0.14224955123E+03 -0.77907703416E+02  0.18231279146E+03  0.81628940482E+02 0.  0.
          5    1    5    5  501    0 -0.31233189599E+01  0.34359894609E+02  0.52308381964E+01  0.35210923690E+02  0.47000000000E+01 0. -1.
        -13    1    6    6    0    0 -0.16816774116E+01 -0.62714623147E+02 -0.78814241948E+02  0.10073547900E+03  0.00000000000E+00 0.  1.
         14    1    6    6    0    0  0.18117155154E+02 -0.79534928080E+02  0.90653853252E+00  0.81577312457E+02  0.00000000000E+00 0. -1.
         -5    1    3    3    0  503  0.10454241447E+02 -0.29026407333E+02  0.15248775081E+03  0.15564841031E+03  0.47000000000E+01 0.  1.
         13    1    4    4    0    0  0.27507234584E+02  0.32496790744E+02  0.52942668495E+02  0.67938321370E+02  0.00000000000E+00 0. -1.
        -14    1    4    4    0    0 -0.51273634814E+02  0.10441927321E+03  0.21854683975E+03  0.24757845506E+03  0.00000000000E+00 0.  1.
</event>
<event>
12    1  0.1061634E+000  0.2381219E+03  0.7818608E-02  0.1121246E+00
         21   -1    0    0  503  502  0.00000000000E+00  0.00000000000E+00  0.66783052001E+02  0.66783052001E+02  0.00000000000E+00 0. -1.
         21   -1    0    0  501  503 -0.00000000000E+00 -0.00000000000E+00 -0.86930026321E+03  0.86930026321E+03  0.00000000000E+00 0. -1.
          6    2    1    2  501    0  0.61081272615E+02 -0.15230504327E+03 -0.32382316364E+03  0.40194957794E+03  0.17255223506E+03 0.  0.
         24    2    3    3    0    0  0.94530118859E+02 -0.68247882056E+02 -0.23439610954E+03  0.27465574591E+03  0.83069403625E+02 0.  0.
         -6    2    1    2    0  502 -0.61081272615E+02  0.15230504327E+03 -0.47869404757E+03  0.53413373728E+03  0.17094768218E+03 0.  0.
        -24    2    5    5    0    0 -0.74969925078E+02  0.37294330003E+02 -0.28446491170E+03  0.30793160188E+03  0.83007401670E+02 0.  0.
          5    1    3    3  501    0 -0.33448846244E+02 -0.84057161219E+02 -0.89427054098E+02  0.12729383203E+03  0.47000000000E+01 0. -1.
        -13    1    4    4    0    0  0.39800066447E+02 -0.74055496526E+02 -0.10854489286E+03  0.13729623309E+03  0.00000000000E+00 0.  1.
         14    1    4    4    0    0  0.54730052412E+02  0.58076144701E+01 -0.12585121668E+03  0.13735951282E+03  0.00000000000E+00 0. -1.
         -5    1    5    5    0  502  0.13888652463E+02  0.11501071327E+03 -0.19422913587E+03  0.22620213539E+03  0.47000000000E+01 0.  1.
         13    1    6    6    0    0 -0.41547077132E+02  0.69938200931E+01 -0.36038695608E+02  0.55442409029E+02  0.00000000000E+00 0. -1.
        -14    1    6    6    0    0 -0.33422847946E+02  0.30300509910E+02 -0.24842621610E+03  0.25248919286E+03  0.00000000000E+00 0.  1.
</event>
<event>
12    1  0.1061634E+000  0.1833297E+03  0.7818608E-02  0.1165418E+00
         21   -1    0    0  501  502  0.00000000000E+00  0.00000000000E+00  0.19854633737E+03  0.19854633737E+03  0.00000000000E+00 0. -1.
         21   -1    0    0  502  503 -0.00000000000E+00 -0.00000000000E+00 -0.31551549907E+03  0.31551549907E+03  0.00000000000E+00 0. -1.
         -6    2    1    2    0  503 -0.13638722253E+02 -0.59290385367E+02 -0.23501446108E+03  0.29601488382E+03  0.16938609739E+03 0.  0.
        -24    2    3    3    0    0  0.41527658398E+02 -0.58333120996E+02 -0.85204310276E+02  0.13629820595E+03  0.78677360390E+02 0.  0.
          6    2    1    2  501    0  0.13638722253E+02  0.59290385367E+02  0.11804529938E+03  0.21804695262E+03  0.17294049930E+03 0.  0.
         24    2    5    5    0    0  0.28710789491E+02 -0.77770429147E+00  0.12950386980E+03  0.15489054802E+03  0.79968214396E+02 0.  0.
          5    1    5    5  501    0 -0.15072067237E+02  0.60068089659E+02 -0.11458570420E+02  0.63156404601E+02  0.47000000000E+01 0. -1.
        -11    1    6    6    0    0  0.21894717210E+02  0.11868137419E+02  0.31606180735E+00  0.24906449417E+02  0.00000000000E+00 0.  1.
         12    1    6    6    0    0  0.68160722806E+01 -0.12645841711E+02  0.12918780799E+03  0.12998409860E+03  0.00000000000E+00 0. -1.
         -5    1    3    3    0  503 -0.55166380651E+02 -0.95726437081E+00 -0.14981015080E+03  0.15971667788E+03  0.47000000000E+01 0.  1.
         13    1    4    4    0    0  0.42898050414E+02 -0.76809069252E+01 -0.85513485815E+01  0.44411311882E+02  0.00000000000E+00 0. -1.
        -14    1    4    4    0    0 -0.13703920162E+01 -0.50652214071E+02 -0.76652961695E+02  0.91886894067E+02  0.00000000000E+00 0.  1.
</event>
<event>
12    1  0.1061634E+000  0.2961691E+03  0.7818608E-02  0.1087262E+00
         21   -1    0    0  501  502  0.00000000000E+00  0.00000000000E+00  0.14235568274E+03  0.14235568274E+03  0.00000000000E+00 0.  1.
         21   -1    0    0  502  503 -0.00000000000E+00 -0.00000000000E+00 -0.65501744383E+03  0.65501744383E+03  0.00000000000E+00 0.  1.
         -6    2    1    2    0  503  0.23899170424E+03 -0.21214925276E+02 -0.15712808522E+03  0.33464176010E+03  0.17242031403E+03 0.  0.
        -24    2    3    3    0    0  0.19055214948E+03  0.18233104372E+02 -0.17287305703E+03  0.27004662371E+03  0.79984481992E+02 0.  0.
          6    2    1    2  501    0 -0.23899170424E+03  0.21214925276E+02 -0.35553367587E+03  0.46273136647E+03  0.17363471740E+03 0.  0.
         24    2    5    5    0    0 -0.25348412257E+03  0.28572470732E+02 -0.35684509514E+03  0.44576158496E+03  0.79337142747E+02 0.  0.
          5    1    5    5  501    0  0.14492418329E+02 -0.73575454566E+01  0.13114192659E+01  0.16969781515E+02  0.47000000000E+01 0. -1.
        -11    1    6    6    0    0 -0.88581083078E+02  0.31577782883E+02 -0.79784402174E+02  0.12332605354E+03  0.00000000000E+00 0.  1.
         12    1    6    6    0    0 -0.16490303950E+03 -0.30053121507E+01 -0.27706069296E+03  0.32243553142E+03  0.00000000000E+00 0. -1.
         -5    1    3    3    0  503  0.48439554762E+02 -0.39448029648E+02  0.15744971819E+02  0.64595136397E+02  0.47000000000E+01 0.  1.
         11    1    4    4    0    0  0.12851970517E+03 -0.23203788899E+02 -0.90357117383E+02  0.15880849819E+03  0.00000000000E+00 0. -1.
        -12    1    4    4    0    0  0.62032444311E+02  0.41436893271E+02 -0.82515939651E+02  0.11123812551E+03  0.00000000000E+00 0.  1.
</event>
<event>
12    1  0.1061634E+000  0.1905125E+03  0.7818608E-02  0.1158053E+00
         21   -1    0    0  501  502  0.00000000000E+00  0.00000000000E+00  0.14295040645E+03  0.14295040645E+03  0.00000000000E+00 0. -1.
         21   -1    0    0  502  503 -0.00000000000E+00 -0.00000000000E+00 -0.25358379124E+03  0.25358379124E+03  0.00000000000E+00 0. -1.
         -6    2    1    2    0  503 -0.20386451418E+02  0.78905247095E+02 -0.55212702182E+02  0.19835180328E+03  0.17220148072E+03 0.  0.
        -24    2    3    3    0    0 -0.24854590713E+02 -0.64217664340E+01  0.19371659335E+02  0.84837132472E+02  0.78505338016E+02 0.  0.
          6    2    1    2  501    0  0.20386451418E+02 -0.78905247095E+02 -0.55420682616E+02  0.19818239441E+03  0.17193941948E+03 0.  0.
         24    2    5    5    0    0  0.28489812749E+02  0.10021508039E+02 -0.63629424533E+02  0.10838759674E+03  0.82383659835E+02 0.  0.
          5    1    5    5  501    0 -0.81033613305E+01 -0.88926755133E+02  0.82087419172E+01  0.89794797663E+02  0.47000000000E+01 0. -1.
        -11    1    6    6    0    0 -0.26274530221E+02  0.13277673098E+02 -0.37350353151E+02  0.47557296199E+02  0.00000000000E+00 0.  1.
         12    1    6    6    0    0  0.54764342969E+02 -0.32561650591E+01 -0.26279071382E+02  0.60830300545E+02  0.00000000000E+00 0. -1.
         -5    1    3    3    0  503  0.44681392949E+01  0.85327013529E+02 -0.74584361517E+02  0.11351467081E+03  0.47000000000E+01 0.  1.
         11    1    4    4    0    0 -0.43319773032E+02 -0.28953183584E+02  0.19699101311E+02  0.55704076760E+02  0.00000000000E+00 0. -1.
        -12    1    4    4    0    0  0.18465182319E+02  0.22531417150E+02 -0.32744197635E+00  0.29133055712E+02  0.00000000000E+00 0.  1.
</event>
<event>
12    1  0.1061634E+000  0.2999835E+03  0.7818608E-02  0.1085400E+00
         21   -1    0    0  501  502  0.00000000000E+00  0.00000000000E+00  0.51033427851E+02  0.51033427851E+02  0.00000000000E+00 0.  1.
         21   -1    0    0  502  503 -0.00000000000E+00 -0.00000000000E+00 -0.18470243246E+04  0.18470243246E+04  0.00000000000E+00 0.  1.
         -6    2    1    2    0  503 -0.76119158990E+02 -0.23345774800E+03 -0.11100675620E+04  0.11498869977E+04  0.17231792913E+03 0.  0.
        -24    2    3    3    0    0 -0.69269113615E+01 -0.37351963418E+02 -0.23615171559E+03  0.25155741310E+03  0.77912438266E+02 0.  0.
          6    2    1    2  501    0  0.76119158990E+02  0.23345774800E+03 -0.68592333468E+03  0.74817075473E+03  0.17021166442E+03 0.  0.
         24    2    5    5    0    0  0.61087992866E+02  0.86332570239E+02 -0.43939181957E+03  0.46064400496E+03  0.89121673286E+02 0.  0.
          5    1    5    5  501    0  0.15031166124E+02  0.14712517776E+03 -0.24653151511E+03  0.28752674977E+03  0.47000000000E+01 0. -1.
        -13    1    6    6    0    0  0.18527682001E+02  0.51394357540E+02 -0.35942057939E+03  0.36354890713E+03  0.00000000000E+00 0.  1.
         14    1    6    6    0    0  0.42560310865E+02  0.34938212699E+02 -0.79971240178E+02  0.97095097833E+02  0.00000000000E+00 0. -1.
         -5    1    3    3    0  503 -0.69192247628E+02 -0.19610578458E+03 -0.87391584645E+03  0.89832958459E+03  0.47000000000E+01 0.  1.
         11    1    4    4    0    0  0.64226866837E+01  0.73817198556E+01 -0.17168177921E+03  0.17196038499E+03  0.00000000000E+00 0. -1.
        -12    1    4    4    0    0 -0.13349598045E+02 -0.44733683274E+02 -0.64469936377E+02  0.79597028108E+02  0.00000000000E+00 0.  1.
</event>
<event>
12    1  0.1061634E+000  0.1793493E+03  0.7818608E-02  0.1168468E+00
         21   -1    0    0  503  502  0.00000000000E+00  0.00000000000E+00  0.19317513743E+03  0.19317513743E+03  0.00000000000E+00 0. -1.
         21   -1    0    0  501  503 -0.00000000000E+00 -0.00000000000E+00 -0.17282838683E+03  0.17282838683E+03  0.00000000000E+00 0. -1.
          6    2    1    2  501    0 -0.44913027072E+02 -0.25516742607E+02 -0.25154769981E+02  0.18110476824E+03  0.17174949920E+03 0.  0.
         24    2    3    3    0    0  0.47905023975E+00 -0.21538441544E+02  0.46535987697E+02  0.96028788682E+02  0.81189877150E+02 0.  0.
         -6    2    1    2    0  502  0.44913027072E+02  0.25516742607E+02  0.45501520574E+02  0.18489875602E+03  0.17160675234E+03 0.  0.
        -24    2    5    5    0    0  0.37471400254E+02 -0.44376992426E+02 -0.37947476253E+01  0.98917804261E+02  0.79980676395E+02 0.  0.
          5    1    3    3  501    0 -0.45392077311E+02 -0.39783010631E+01 -0.71690757678E+02  0.85075979562E+02  0.47000000000E+01 0. -1.
        -11    1    4    4    0    0  0.12244289072E+01 -0.49961968116E+02  0.12192731992E+02  0.51442785671E+02  0.00000000000E+00 0.  1.
         12    1    4    4    0    0 -0.74537866746E+00  0.28423526572E+02  0.34343255705E+02  0.44586003012E+02  0.00000000000E+00 0. -1.
         -5    1    5    5    0  502  0.74416268180E+01  0.69893735033E+02  0.49296268199E+02  0.85980951756E+02  0.47000000000E+01 0.  1.
         11    1    6    6    0    0 -0.24566954765E+02 -0.15315717939E+02 -0.87155073276E+01  0.30233533542E+02  0.00000000000E+00 0. -1.
        -12    1    6    6    0    0  0.62038355019E+02 -0.29061274487E+02  0.49207597023E+01  0.68684270720E+02  0.00000000000E+00 0.  1.
</event>
<event>
12    1  0.1061634E+000  0.2311268E+03  0.7818608E-02  0.1125945E+00
         21   -1    0    0  503  502  0.00000000000E+00  0.00000000000E+00  0.32727732038E+03  0.32727732038E+03  0.00000000000E+00 0.  1.
         21   -1    0    0  501  503 -0.00000000000E+00 -0.00000000000E+00 -0.17093088799E+03  0.17093088799E+03  0.00000000000E+00 0.  1.
          6    2    1    2  501    0  0.58449603297E+02 -0.14272922843E+03  0.24060452347E+02  0.23237582192E+03  0.17213839918E+03 0.  0.
         24    2    3    3    0    0 -0.19109585548E+02 -0.88794983024E+02 -0.28042504209E+02  0.12438906957E+03  0.80228008301E+02 0.  0.
         -6    2    1    2    0  502 -0.58449603297E+02  0.14272922843E+03  0.13228598004E+03  0.26583238645E+03  0.17140387509E+03 0.  0.
        -24    2    5    5    0    0 -0.47054099486E+02  0.10831018040E+03  0.16425675027E+03  0.21726543757E+03  0.79238922858E+02 0.  0.
          5    1    3    3  501    0  0.77559188844E+02 -0.53934245408E+02  0.52102956556E+02  0.10798675235E+03  0.47000000000E+01 0. -1.
        -11    1    4    4    0    0 -0.29355802774E+02 -0.53479308315E+02  0.19716807984E+02  0.64113587416E+02  0.00000000000E+00 0.  1.
         12    1    4    4    0    0  0.10246217226E+02 -0.35315674709E+02 -0.47759312193E+02  0.60275482153E+02  0.00000000000E+00 0. -1.
         -5    1    5    5    0  502 -0.11395503811E+02  0.34419048035E+02 -0.31970770227E+02  0.48566948881E+02  0.47000000000E+01 0.  1.
         11    1    6    6    0    0 -0.23582434700E+01  0.83520819044E+02  0.65873203395E+02  0.10639815530E+03  0.00000000000E+00 0. -1.
        -12    1    6    6    0    0 -0.44695856016E+02  0.24789361354E+02  0.98383546873E+02  0.11086728226E+03  0.00000000000E+00 0.  1.
</event>
<event>
12    1  0.1061634E+000  0.1946945E+03  0.7818608E-02  0.1154919E+00
         21   -1    0    0  501  502  0.00000000000E+00  0.00000000000E+00  0.52463431151E+02  0.52463431151E+02  0.00000000000E+00 0.  1.
         21   -1    0    0  502  503 -0.00000000000E+00 -0.00000000000E+00 -0.73959596411E+03  0.73959596411E+03  0.00000000000E+00 0.  1.
         -6    2    1    2    0  503 -0.86866040723E+02 -0.67229849950E+01 -0.26467810768E+03  0.32689955083E+03  0.17093246645E+03 0.  0.
        -24    2    3    3    0    0 -0.64942305277E+02 -0.63046101357E+02 -0.22189648225E+03  0.25270183464E+03  0.80173901517E+02 0.  0.
          6    2    1    2  501    0  0.86866040723E+02  0.67229849950E+01 -0.42245442528E+03  0.46515984444E+03  0.17411212445E+03 0.  0.
         24    2    5    5    0    0 -0.17014533273E+01  0.11686298460E+02 -0.31974536208E+03  0.32936559881E+03  0.78135373486E+02 0.  0.
          5    1    5    5  501    0  0.88567494051E+02 -0.49633134652E+01 -0.10270906320E+03  0.13579424563E+03  0.47000000000E+01 0. -1.
        -13    1    6    6    0    0  0.28025766107E+02 -0.23731406379E+01 -0.25691467848E+03  0.25844966121E+03  0.00000000000E+00 0.  1.
         14    1    6    6    0    0 -0.29727219435E+02  0.14059439098E+02 -0.62830683602E+02  0.70915937595E+02  0.00000000000E+00 0. -1.
         -5    1    3    3    0  503 -0.21923735446E+02  0.56323116362E+02 -0.42781625429E+02  0.74197716185E+02  0.47000000000E+01 0.  1.
         13    1    4    4    0    0 -0.37352637784E+02 -0.12070485993E+02 -0.17136942593E+03  0.17580783920E+03  0.00000000000E+00 0. -1.
        -14    1    4    4    0    0 -0.27589667493E+02 -0.50975615364E+02 -0.50527056323E+02  0.76893995440E+02  0.00000000000E+00 0.  1.
</event>
<event>
12    1  0.1061634E+000  0.2361203E+03  0.7818608E-02  0.1122530E+00
         21   -1    0    0  503  502  0.00000000000E+00  0.00000000000E+00  0.60257408624E+03  0.60257408624E+03  0.00000000000E+00 0.  1.
         21   -1    0    0  501  503 -0.00000000000E+00 -0.00000000000E+00 -0.93276271241E+02  0.93276271241E+02  0.00000000000E+00 0.  1.
          6    2    1    2  501    0 -0.15706123772E+03 -0.37581790756E+02  0.29177796269E+03  0.37534943019E+03  0.17225618083E+03 0.  0.
         24    2    3    3    0    0 -0.44729462501E+02 -0.69365723108E+02  0.18059056879E+03  0.21406281374E+03  0.79985038189E+02 0.  0.
         -6    2    1    2    0  502  0.15706123772E+03  0.37581790756E+02  0.21751985231E+03  0.32050092729E+03  0.17124641560E+03 0.  0.
        -24    2    5    5    0    0  0.43981426084E+02  0.63519490093E+02  0.64379891145E+02  0.12831938356E+03  0.79699450131E+02 0.  0.
          5    1    3    3  501    0 -0.11233177522E+03  0.31783932352E+02  0.11118739390E+03  0.16128661644E+03  0.47000000000E+01 0. -1.
        -13    1    4    4    0    0  0.95989492973E+01 -0.55146570483E+02  0.66672648857E+02  0.87054730884E+02  0.00000000000E+00 0.  1.
         14    1    4    4    0    0 -0.54328411798E+02 -0.14219152625E+02  0.11391791993E+03  0.12700808286E+03  0.00000000000E+00 0. -1.
         -5    1    5    5    0  502  0.11307981164E+03 -0.25937699337E+02  0.15313996116E+03  0.19218154373E+03  0.47000000000E+01 0.  1.
         13    1    6    6    0    0  0.49492097238E+02  0.27003360894E+01  0.34046049898E+02  0.60132295962E+02  0.00000000000E+00 0. -1.
        -14    1    6    6    0    0 -0.55106711534E+01  0.60819154004E+02  0.30333841247E+02  0.68187087598E+02  0.00000000000E+00 0.  1.
</event>
<event>
12    1  0.1061634E+000  0.4177467E+03  0.7818608E-02  0.1038005E+00
         21   -1    0    0  503  502  0.00000000000E+00  0.00000000000E+00  0.24776583505E+03  0.24776583505E+03  0.00000000000E+00 0. -1.
         21   -1    0    0  501  503 -0.00000000000E+00 -0.00000000000E+00 -0.70056666394E+03  0.70056666394E+03  0.00000000000E+00 0. -1.
          6    2    1    2  501    0  0.31065512669E+03  0.21560145729E+03 -0.23681618905E+03  0.47805419355E+03  0.17164879390E+03 0.  0.
         24    2    3    3    0    0  0.15414165195E+03  0.10698005294E+03 -0.20235305672E+03  0.28439244010E+03  0.68759870789E+02 0.  0.
         -6    2    1    2    0  502 -0.31065512669E+03 -0.21560145729E+03 -0.21598463984E+03  0.47027830544E+03  0.17754358281E+03 0.  0.
        -24    2    5    5    0    0 -0.21298043829E+03 -0.20700685248E+03 -0.11104938636E+03  0.32658519702E+03  0.78188366341E+02 0.  0.
          5    1    3    3  501    0  0.15651347474E+03  0.10862140435E+03 -0.34463132338E+02  0.19366175345E+03  0.47000000000E+01 0. -1.
        -13    1    4    4    0    0  0.36243519466E+02  0.37141537694E+02 -0.18507059350E+02  0.55096259141E+02  0.00000000000E+00 0.  1.
         14    1    4    4    0    0  0.11789813248E+03  0.69838515248E+02 -0.18384599737E+03  0.22929618096E+03  0.00000000000E+00 0. -1.
         -5    1    5    5    0  502 -0.97674688402E+02 -0.85946048105E+01 -0.10493525348E+03  0.14369310842E+03  0.47000000000E+01 0.  1.
         11    1    6    6    0    0 -0.26509536244E+02 -0.75906841468E+01  0.80433347930E+01  0.28724018387E+02  0.00000000000E+00 0. -1.
        -12    1    6    6    0    0 -0.18647090204E+03 -0.19941616834E+03 -0.11909272115E+03  0.29786117863E+03  0.00000000000E+00 0.  1.
</event>
<event>
12    1  0.1061634E+000  0.3494593E+03  0.7818608E-02  0.1062936E+00
         21   -1    0    0  501  502  0.00000000000E+00  0.00000000000E+00  0.13225337183E+04  0.13225337183E+04  0.00000000000E+00 0. -1.
         21   -1    0    0  502  503 -0.00000000000E+00 -0.00000000000E+00 -0.92258110316E+02  0.92258110316E+02  0.00000000000E+00 0. -1.
         -6    2    1    2    0  503  0.20948506010E+03 -0.21866759535E+03  0.58533522832E+03  0.68171779069E+03  0.17441992138E+03 0.  0.
        -24    2    3    3    0    0  0.14271180103E+03 -0.22826540035E+03  0.42906669667E+03  0.51144527391E+03  0.70755118986E+02 0.  0.
          6    2    1    2  501    0 -0.20948506010E+03  0.21866759535E+03  0.64494037970E+03  0.73307403796E+03  0.17248172106E+03 0.  0.
         24    2    5    5    0    0 -0.12687152634E+03  0.20010288150E+03  0.55830620310E+03  0.61184196664E+03  0.80667393319E+02 0.  0.
          5    1    5    5  501    0 -0.82613533759E+02  0.18564713850E+02  0.86634176601E+02  0.12123207132E+03  0.47000000000E+01 0. -1.
        -13    1    6    6    0    0 -0.94219442175E+02  0.77911620948E+02  0.30847244528E+03  0.33181737968E+03  0.00000000000E+00 0.  1.
         14    1    6    6    0    0 -0.32652084165E+02  0.12219126055E+03  0.24983375781E+03  0.28002458695E+03  0.00000000000E+00 0. -1.
         -5    1    3    3    0  503  0.66773259064E+02  0.95978050036E+01  0.15626853164E+03  0.17027251678E+03  0.47000000000E+01 0.  1.
         13    1    4    4    0    0 -0.69350260309E+01 -0.15879517485E+02  0.16761578997E+02  0.24108176872E+02  0.00000000000E+00 0. -1.
        -14    1    4    4    0    0  0.14964682707E+03 -0.21238588287E+03  0.41230511768E+03  0.48733709704E+03  0.00000000000E+00 0.  1.
</event>
<event>
12    1  0.1061634E+000  0.3034594E+03  0.7818608E-02  0.1083611E+00
         21   -1    0    0  503  502  0.00000000000E+00  0.00000000000E+00  0.23768158426E+04  0.23768158426E+04  0.00000000000E+00 0.  1.
         21   -1    0    0  501  503 -0.00000000000E+00 -0.00000000000E+00 -0.47748639638E+02  0.47748639638E+02  0.00000000000E+00 0.  1.
          6    2    1    2  501    0 -0.19300049277E+03 -0.15832608582E+03  0.63436146227E+03  0.70290389728E+03  0.17129823216E+03 0.  0.
         24    2    3    3    0    0 -0.19359733704E+03 -0.78497110858E+02  0.46879616589E+03  0.51903715523E+03  0.77382155812E+02 0.  0.
         -6    2    1    2    0  502  0.19300049277E+03  0.15832608582E+03  0.16947057407E+04  0.17216605849E+04  0.17254356724E+03 0.  0.
        -24    2    5    5    0    0  0.23283948165E+02  0.67416851531E+02  0.74088934289E+03  0.74859532244E+03  0.79942255810E+02 0.  0.
          5    1    3    3  501    0  0.59684426862E+00 -0.79828974963E+02  0.16556529638E+03  0.18386674205E+03  0.47000000000E+01 0. -1.
        -11    1    4    4    0    0 -0.35675902488E+02  0.15524756715E+02  0.76779430100E+02  0.86074787109E+02  0.00000000000E+00 0.  1.
         12    1    4    4    0    0 -0.15792143455E+03 -0.94021867573E+02  0.39201673579E+03  0.43296236812E+03  0.00000000000E+00 0. -1.
         -5    1    5    5    0  502  0.16971654460E+03  0.90909234291E+02  0.95381639779E+03  0.97306526250E+03  0.47000000000E+01 0.  1.
         13    1    6    6    0    0  0.19987288894E+02  0.69203448229E+01  0.41430296554E+02  0.46517226512E+02  0.00000000000E+00 0. -1.
        -14    1    6    6    0    0  0.32966592714E+01  0.60496506708E+02  0.69945904633E+03  0.70207809593E+03  0.00000000000E+00 0.  1.
</event>
<event>
12    1  0.1061634E+000  0.1737133E+03  0.7818608E-02  0.1174053E+00
         21   -1    0    0  501  502  0.00000000000E+00  0.00000000000E+00  0.45330761278E+02  0.45330761278E+02  0.00000000000E+00 0.  1.
         21   -1    0    0  502  503 -0.00000000000E+00 -0.00000000000E+00 -0.66592515641E+03  0.66592515641E+03  0.00000000000E+00 0.  1.
         -6    2    1    2    0  503  0.19192752176E+02  0.99037112768E+01 -0.32078743793E+03  0.36475841573E+03  0.17227209955E+03 0.  0.
        -24    2    3    3    0    0 -0.35101376730E+02 -0.40937824650E+02 -0.21486614343E+03  0.23524345584E+03  0.79145510210E+02 0.  0.
          6    2    1    2  501    0 -0.19192752176E+02 -0.99037112768E+01 -0.29980695720E+03  0.34649750195E+03  0.17236548970E+03 0.  0.
         24    2    5    5    0    0  0.22865503866E+02 -0.63711432461E+02 -0.19645758174E+03  0.22253238118E+03  0.79643589545E+02 0.  0.
          5    1    5    5  501    0 -0.42058256042E+02  0.53807721184E+02 -0.10334937546E+03  0.12396512077E+03  0.47000000000E+01 0. -1.
        -13    1    6    6    0    0  0.11447558082E+02 -0.77016083963E+02 -0.18710967261E+03  0.20266364587E+03  0.00000000000E+00 0.  1.
         14    1    6    6    0    0  0.11417945784E+02  0.13304651502E+02 -0.93479091377E+01  0.19868735309E+02  0.00000000000E+00 0. -1.
         -5    1    3    3    0  503  0.54294128906E+02  0.50841535927E+02 -0.10592129450E+03  0.12951495990E+03  0.47000000000E+01 0.  1.
         11    1    4    4    0    0 -0.35434754536E+02  0.24224779346E+01 -0.16666911975E+03  0.17041151870E+03  0.00000000000E+00 0. -1.
        -12    1    4    4    0    0  0.33337780649E+00 -0.43360302585E+02 -0.48197023679E+02  0.64831937134E+02  0.00000000000E+00 0.  1.
</event>
<event>
12    1  0.1061634E+000  0.2011080E+03  0.7818608E-02  0.1149931E+00
         21   -1    0    0  503  502  0.00000000000E+00  0.00000000000E+00  0.10297559275E+04  0.10297559275E+04  0.00000000000E+00 0.  1.
         21   -1    0    0  501  503 -0.00000000000E+00 -0.00000000000E+00 -0.38718340391E+02  0.38718340391E+02  0.00000000000E+00 0.  1.
          6    2    1    2  501    0  0.10152227369E+03 -0.15668289051E+02  0.56080718123E+03  0.59577607674E+03  0.17289352724E+03 0.  0.
         24    2    3    3    0    0  0.11991580750E+03 -0.39789227987E+02  0.53494036025E+03  0.55563477371E+03  0.81276252295E+02 0.  0.
         -6    2    1    2    0  502 -0.10152227369E+03  0.15668289051E+02  0.43023040584E+03  0.47269819112E+03  0.16671265829E+03 0.  0.
        -24    2    5    5    0    0 -0.11318108909E+03 -0.25446757101E+02  0.38577854408E+03  0.41085619074E+03  0.80747928893E+02 0.  0.
          5    1    3    3  501    0 -0.18393533805E+02  0.24120938936E+02  0.25866820983E+02  0.40141303028E+02  0.47000000000E+01 0. -1.
        -11    1    4    4    0    0 -0.36695105916E+01  0.34239611390E+00 -0.12755086493E+01  0.38999314603E+01  0.00000000000E+00 0.  1.
         12    1    4    4    0    0  0.12358531809E+03 -0.40131624101E+02  0.53621586890E+03  0.55173484225E+03  0.00000000000E+00 0. -1.
         -5    1    5    5    0  502  0.11658815397E+02  0.41115046152E+02  0.44451861766E+02  0.61842000379E+02  0.47000000000E+01 0.  1.
         11    1    6    6    0    0 -0.53374700589E+02  0.10004871965E+01  0.29006559002E+03  0.29493712237E+03  0.00000000000E+00 0. -1.
        -12    1    6    6    0    0 -0.59806388500E+02 -0.26447244297E+02  0.95712954054E+02  0.11591906836E+03  0.00000000000E+00 0.  1.
</event>
<event>
12    1  0.1061634E+000  0.1855262E+03  0.7818608E-02  0.1164141E+00
         21   -1    0    0  503  502  0.00000000000E+00  0.00000000000E+00  0.72328479698E+03  0.72328479698E+03  0.00000000000E+00 0. -1.
         21   -1    0    0  501  503 -0.00000000000E+00 -0.00000000000E+00 -0.77228533335E+02  0.77228533335E+02  0.00000000000E+00 0. -1.
          6    2    1    2  501    0 -0.31060703440E+02  0.40119811158E+02  0.71610709825E+02  0.19886694963E+03  0.17845336463E+03 0.  0.
         24    2    3    3    0    0 -0.61038976175E+02  0.38126978539E+02  0.10688843327E+03  0.15229146263E+03  0.81167292170E+02 0.  0.
         -6    2    1    2    0  502  0.31060703440E+02 -0.40119811158E+02  0.57444555382E+03  0.60164638069E+03  0.17151182624E+03 0.  0.
        -24    2    5    5    0    0  0.47636555019E+02  0.29908061827E+02  0.23613854194E+03  0.25573832044E+03  0.80479463330E+02 0.  0.
          5    1    3    3  501    0  0.29978272735E+02  0.19928326184E+01 -0.35277723445E+02  0.46575487002E+02  0.47000000000E+01 0. -1.
        -11    1    4    4    0    0 -0.12234403126E+02  0.45408500409E+02  0.17482364410E+02  0.50172159557E+02  0.00000000000E+00 0.  1.
         12    1    4    4    0    0 -0.48804573050E+02 -0.72815218695E+01  0.89406068860E+02  0.10211930307E+03  0.00000000000E+00 0. -1.
         -5    1    5    5    0  502 -0.16575851578E+02 -0.70027872985E+02  0.33830701189E+03  0.34590806025E+03  0.47000000000E+01 0.  1.
         11    1    6    6    0    0  0.12997611418E+02  0.81884133140E+01  0.20169298677E+03  0.20227715868E+03  0.00000000000E+00 0. -1.
        -12    1    6    6    0    0  0.34638943600E+02  0.21719648513E+02  0.34445555170E+02  0.53461161756E+02  0.00000000000E+00 0.  1.
</event>
<event>
12    1  0.1061634E+000  0.1815511E+03  0.7818608E-02  0.1166314E+00
         21   -1    0    0  501  502  0.00000000000E+00  0.00000000000E+00  0.36664158960E+03  0.36664158960E+03  0.00000000000E+00 0. -1.
         21   -1    0    0  502  503 -0.00000000000E+00 -0.00000000000E+00 -0.91573293429E+02  0.91573293429E+02  0.00000000000E+00 0. -1.
         -6    2    1    2    0  503  0.57187128465E+02  0.96099185055E+01  0.10647151969E+03  0.21045352549E+03  0.17202262552E+03 0.  0.
        -24    2    3    3    0    0  0.56762267952E+02 -0.53777734427E+02  0.41346291476E+02  0.11945044642E+03  0.80280094340E+02 0.  0.
          6    2    1    2  501    0 -0.57187128465E+02 -0.96099185055E+01  0.16859677649E+03  0.24776135754E+03  0.17204098074E+03 0.  0.
         24    2    5    5    0    0 -0.25655693363E+02 -0.24155799264E+02  0.16677843368E+02  0.91853479979E+02  0.83169670463E+02 0.  0.
          5    1    5    5  501    0 -0.31531435103E+02  0.14545880759E+02  0.15191893312E+03  0.15590787756E+03  0.47000000000E+01 0. -1.
        -11    1    6    6    0    0 -0.52005286460E+02 -0.32883743267E+02  0.17864891072E+02  0.64070622941E+02  0.00000000000E+00 0.  1.
         12    1    6    6    0    0  0.26349593098E+02  0.87279440028E+01 -0.11870477048E+01  0.27782857038E+02  0.00000000000E+00 0. -1.
         -5    1    3    3    0  503  0.42486051346E+00  0.63387652933E+02  0.65125228209E+02  0.91003079069E+02  0.47000000000E+01 0.  1.
         13    1    4    4    0    0 -0.16496901382E+02 -0.18712930492E+02 -0.57008656803E+01  0.25589478156E+02  0.00000000000E+00 0. -1.
        -14    1    4    4    0    0  0.73259169334E+02 -0.35064803935E+02  0.47047157156E+02  0.93860968261E+02  0.00000000000E+00 0.  1.
</event>
<event>
12    1  0.1061634E+000  0.2543857E+03  0.7818608E-02  0.1110600E+00
         21   -1    0    0  501  502  0.00000000000E+00  0.00000000000E+00  0.12840039752E+04  0.12840039752E+04  0.00000000000E+00 0.  1.
         21   -1    0    0  502  503 -0.00000000000E+00 -0.00000000000E+00 -0.59005125584E+02  0.59005125584E+02  0.00000000000E+00 0. -1.
         -6    2    1    2    0  503 -0.47412932151E+02 -0.18060147512E+03  0.86939862242E+03  0.90578647479E+03  0.17242474962E+03 0.  0.
        -24    2    3    3    0    0  0.32274240206E+02 -0.52427010819E+02  0.37548413138E+03  0.38930573633E+03  0.82343216925E+02 0.  0.
          6    2    1    2  501    0  0.47412932151E+02  0.18060147512E+03  0.35560022720E+03  0.43722262601E+03  0.17276349196E+03 0.  0.
         24    2    5    5    0    0 -0.11825972405E+02  0.17291555423E+03  0.23648887872E+03  0.30388874235E+03  0.79885765017E+02 0.  0.
          5    1    5    5  501    0  0.59238904556E+02  0.76859208899E+01  0.11911134848E+03  0.13333388365E+03  0.47000000000E+01 0. -1.
        -11    1    6    6    0    0 -0.43132919932E+02  0.13295995952E+03  0.18087939188E+03  0.22859604989E+03  0.00000000000E+00 0.  1.
         12    1    6    6    0    0  0.31306947526E+02  0.39955594714E+02  0.55609486842E+02  0.75292692469E+02  0.00000000000E+00 0. -1.
         -5    1    3    3    0  503 -0.79687172357E+02 -0.12817446430E+03  0.49391449104E+03  0.51648073846E+03  0.47000000000E+01 0.  1.
         13    1    4    4    0    0 -0.93976557329E+01 -0.18725179247E+01  0.15880625634E+01  0.97130942216E+01  0.00000000000E+00 0. -1.
        -14    1    4    4    0    0  0.41671895939E+02 -0.50554492895E+02  0.37389606882E+03  0.37959264210E+03  0.00000000000E+00 0.  1.
</event>
<event>
12    1  0.1061634E+000  0.2796957E+03  0.7818608E-02  0.1095973E+00
         21   -1    0    0  503  502  0.00000000000E+00  0.00000000000E+00  0.92845697800E+02  0.92845697800E+02  0.00000000000E+00 0. -1.
         21   -1    0    0  501  503 -0.00000000000E+00 -0.00000000000E+00 -0.84749650772E+03  0.84749650772E+03  0.00000000000E+00 0. -1.
          6    2    1    2  501    0 -0.15032927584E+03 -0.16017618557E+03 -0.33249623751E+03  0.43393904523E+03  0.17173830504E+03 0.  0.
         24    2    3    3    0    0 -0.15795057944E+03 -0.12655678780E+03 -0.19448420535E+03  0.29160929010E+03  0.79037116948E+02 0.  0.
         -6    2    1    2    0  502  0.15032927584E+03  0.16017618557E+03 -0.42215457241E+03  0.50640316029E+03  0.17313109528E+03 0.  0.
        -24    2    5    5    0    0  0.56797383377E+02  0.14407132755E+03 -0.20695194989E+03  0.27115469569E+03  0.81934542478E+02 0.  0.
          5    1    3    3  501    0  0.76213036049E+01 -0.33619397771E+02 -0.13801203216E+03  0.14232975513E+03  0.47000000000E+01 0. -1.
        -13    1    4    4    0    0 -0.51132389222E+02 -0.49652714227E+02 -0.21901082106E+02  0.74562528491E+02  0.00000000000E+00 0.  1.
         14    1    4    4    0    0 -0.10681819022E+03 -0.76904073569E+02 -0.17258312325E+03  0.21704676161E+03  0.00000000000E+00 0. -1.
         -5    1    5    5    0  502  0.93531892461E+02  0.16104858018E+02 -0.21520262251E+03  0.23524846460E+03  0.47000000000E+01 0.  1.
         11    1    6    6    0    0 -0.79229160729E-01  0.10075364422E+03 -0.14491097457E+03  0.17649502444E+03  0.00000000000E+00 0. -1.
        -12    1    6    6    0    0  0.56876612538E+02  0.43317683329E+02 -0.62040975324E+02  0.94659671254E+02  0.00000000000E+00 0.  1.
</event>
<event>
12    1  0.1061634E+000  0.1726513E+03  0.7818608E-02  0.1175507E+00
         21   -1    0    0  503  502  0.00000000000E+00  0.00000000000E+00  0.18116886620E+03  0.18116886620E+03  0.00000000000E+00 0. -1.
         21   -1    0    0  501  503 -0.00000000000E+00 -0.00000000000E+00 -0.17195815863E+03  0.17195815863E+03  0.00000000000E+00 0. -1.
          6    2    1    2  501    0  0.16695800764E+01 -0.17797901919E+02  0.44736414897E+02  0.17685863968E+03  0.17017073427E+03 0.  0.
         24    2    3    3    0    0 -0.15771358458E+02  0.75024069655E+01  0.89847058376E+02  0.12207404219E+03  0.80774723895E+02 0.  0.
         -6    2    1    2    0  502 -0.16695800764E+01  0.17797901919E+02 -0.35525707323E+02  0.17626838516E+03  0.17172336741E+03 0.  0.
        -24    2    5    5    0    0 -0.28002916604E+02 -0.38633569217E+02  0.17705601980E+02  0.94209760761E+02  0.79279724220E+02 0.  0.
          5    1    3    3  501    0  0.17440938534E+02 -0.25300308885E+02 -0.45110643479E+02  0.54784597486E+02  0.47000000000E+01 0. -1.
        -11    1    4    4    0    0 -0.21322380200E+02 -0.17655447901E+02 -0.94319561457E+00  0.27699248292E+02  0.00000000000E+00 0.  1.
         12    1    4    4    0    0  0.55510217429E+01  0.25157854867E+02  0.90790253991E+02  0.94374793900E+02  0.00000000000E+00 0. -1.
         -5    1    5    5    0  502  0.26333336528E+02  0.56431471136E+02 -0.53231309303E+02  0.82058624394E+02  0.47000000000E+01 0.  1.
         13    1    6    6    0    0  0.12186103458E+02 -0.43657793199E+02  0.26858385517E+02  0.52686591245E+02  0.00000000000E+00 0. -1.
        -14    1    6    6    0    0 -0.40189020062E+02  0.50242239814E+01 -0.91527835374E+01  0.41523169516E+02  0.00000000000E+00 0.  1.
</event>
<event>
12    1  0.1061634E+000  0.3336805E+03  0.7818608E-02  0.1069628E+00
         21   -1    0    0  503  502  0.00000000000E+00  0.00000000000E+00  0.31058825281E+03  0.31058825281E+03  0.00000000000E+00 0.  1.
         21   -1    0    0  501  503 -0.00000000000E+00 -0.00000000000E+00 -0.12981431461E+04  0.12981431461E+04  0.00000000000E+00 0.  1.
          6    2    1    2  501    0 -0.46873623055E+00 -0.28506461266E+03 -0.11783091553E+04  0.12243749756E+04  0.17152131695E+03 0.  0.
         24    2    3    3    0    0  0.10354335489E+02 -0.25057663899E+03 -0.75843012187E+03  0.80291673097E+03  0.81013349699E+02 0.  0.
         -6    2    1    2    0  502  0.46873623055E+00  0.28506461266E+03  0.19075426204E+03  0.38435642333E+03  0.17343765038E+03 0.  0.
        -24    2    5    5    0    0  0.21533828803E+02  0.10508256237E+03  0.19678371859E+02  0.13510489024E+03  0.79749873668E+02 0.  0.
          5    1    3    3  501    0 -0.10823071719E+02 -0.34487973667E+02 -0.41987903346E+03  0.42145824461E+03  0.47000000000E+01 0. -1.
        -13    1    4    4    0    0 -0.12605751261E+02 -0.25404915136E+02 -0.17201506714E+03  0.17433731099E+03  0.00000000000E+00 0.  1.
         14    1    4    4    0    0  0.22960086750E+02 -0.22517172385E+03 -0.58641505473E+03  0.62857941998E+03  0.00000000000E+00 0. -1.
         -5    1    5    5    0  502 -0.21065092573E+02  0.17998205028E+03  0.17107589018E+03  0.24925153309E+03  0.47000000000E+01 0.  1.
         11    1    6    6    0    0 -0.16507158238E+02  0.65074412122E+02 -0.16457648726E+02  0.69123220322E+02  0.00000000000E+00 0. -1.
        -12    1    6    6    0    0  0.38040987041E+02  0.40008150252E+02  0.36136020585E+02  0.65981669919E+02  0.00000000000E+00 0.  1.
</event>
<event>
12    1  0.1061634E+000  0.4205958E+03  0.7818608E-02  0.1036876E+00
         21   -1    0    0  501  502  0.00000000000E+00  0.00000000000E+00  0.15956049143E+04  0.15956049143E+04  0.00000000000E+00 0.  1.
         21   -1    0    0  502  503 -0.00000000000E+00 -0.00000000000E+00 -0.11105343760E+03  0.11105343760E+03  0.00000000000E+00 0. -1.
         -6    2    1    2    0  503  0.35414659984E+03 -0.14863546982E+03  0.77810209417E+03  0.88448345481E+03  0.17133533150E+03 0.  0.
        -24    2    3    3    0    0  0.32954871251E+03 -0.81249369662E+02  0.65039060449E+03  0.73792883308E+03  0.79543763373E+02 0.  0.
          6    2    1    2  501    0 -0.35414659984E+03  0.14863546982E+03  0.70644938250E+03  0.82217489705E+03  0.17143078556E+03 0.  0.
         24    2    5    5    0    0 -0.31882237759E+03  0.99738967116E+02  0.66662012453E+03  0.74973783165E+03  0.78287008827E+02 0.  0.
          5    1    5    5  501    0 -0.35324222253E+02  0.48896502708E+02  0.39829257967E+02  0.72437065409E+02  0.47000000000E+01 0. -1.
        -13    1    6    6    0    0 -0.28309348273E+03  0.10400096139E+03  0.54471884199E+03  0.62263692209E+03  0.00000000000E+00 0.  1.
         14    1    6    6    0    0 -0.35728894867E+02 -0.42619942760E+01  0.12190128254E+03  0.12710090955E+03  0.00000000000E+00 0. -1.
         -5    1    3    3    0  503  0.24597887331E+02 -0.67386100162E+02  0.12771148968E+03  0.14655462173E+03  0.47000000000E+01 0.  1.
         13    1    4    4    0    0  0.94614795535E+02 -0.21798752437E+02  0.11680699984E+03  0.15189147558E+03  0.00000000000E+00 0. -1.
        -14    1    4    4    0    0  0.23493391698E+03 -0.59450617225E+02  0.53358360465E+03  0.58603735750E+03  0.00000000000E+00 0.  1.
</event>
<event>
12    1  0.1061634E+000  0.3760642E+03  0.7818608E-02  0.1052401E+00
         21   -1    0    0  503  502  0.00000000000E+00  0.00000000000E+00  0.44172977241E+03  0.44172977241E+03  0.00000000000E+00 0. -1.
         21   -1    0    0  501  503 -0.00000000000E+00 -0.00000000000E+00 -0.77341043631E+03  0.77341043631E+03  0.00000000000E+00 0.  1.
          6    2    1    2  501    0 -0.27692121300E+03 -0.18932597875E+03 -0.63096670814E+03  0.73451934460E+03  0.16991173109E+03 0.  0.
         24    2    3    3    0    0 -0.21176225999E+03 -0.20658328202E+03 -0.48521934121E+03  0.57387100616E+03  0.79813629550E+02 0.  0.
         -6    2    1    2    0  502  0.27692121300E+03  0.18932597875E+03  0.29928604425E+03  0.48062086412E+03  0.16998410015E+03 0.  0.
        -24    2    5    5    0    0  0.11370805369E+03  0.15590775043E+03  0.18996609884E+03  0.28130138735E+03  0.76201074126E+02 0.  0.
          5    1    3    3  501    0 -0.65158953007E+02  0.17257303270E+02 -0.14574736694E+03  0.16064833844E+03  0.47000000000E+01 0. -1.
        -13    1    4    4    0    0 -0.20562281898E+03 -0.17020296875E+03 -0.39858877659E+03  0.47971117048E+03  0.00000000000E+00 0.  1.
         14    1    4    4    0    0 -0.61394410064E+01 -0.36380313272E+02 -0.86630564616E+02  0.94159835680E+02  0.00000000000E+00 0. -1.
         -5    1    5    5    0  502  0.16321315931E+03  0.33418228325E+02  0.10931994541E+03  0.19931947677E+03  0.47000000000E+01 0.  1.
         13    1    6    6    0    0  0.31911266442E+02  0.30170948515E+02  0.92555886377E+02  0.10244611834E+03  0.00000000000E+00 0. -1.
        -14    1    6    6    0    0  0.81796787249E+02  0.12573680191E+03  0.97410212468E+02  0.17885526901E+03  0.00000000000E+00 0.  1.
</event>
<event>
12    1  0.1061634E+000  0.1739121E+03  0.7818608E-02  0.1174188E+00
         21   -1    0    0  501  502  0.00000000000E+00  0.00000000000E+00  0.40063841694E+02  0.40063841694E+02  0.00000000000E+00 0.  1.
         21   -1    0    0  502  503 -0.00000000000E+00 -0.00000000000E+00 -0.75101449757E+03  0.75101449757E+03  0.00000000000E+00 0.  1.
         -6    2    1    2    0  503  0.10684246198E+02 -0.12026536713E+02 -0.33254343219E+03  0.37462012559E+03  0.17174490822E+03 0.  0.
        -24    2    3    3    0    0 -0.58639455229E+02 -0.97923110728E+01 -0.22423971696E+03  0.24592454650E+03  0.81614685217E+02 0.  0.
          6    2    1    2  501    0 -0.10684246198E+02  0.12026536713E+02 -0.37840722369E+03  0.41645821368E+03  0.17316646933E+03 0.  0.
         24    2    5    5    0    0  0.58656355827E+01 -0.25282798758E+02 -0.81321548503E+02  0.11654510376E+03  0.79346968224E+02 0.  0.
          5    1    5    5  501    0 -0.16549881781E+02  0.37309335470E+02 -0.29708567518E+03  0.29991310992E+03  0.47000000000E+01 0. -1.
        -13    1    6    6    0    0  0.22642404021E+02 -0.50716501485E+00 -0.83526496947E+02  0.86542540802E+02  0.00000000000E+00 0.  1.
         14    1    6    6    0    0 -0.16776768439E+02 -0.24775633743E+02  0.22049484440E+01  0.30002562961E+02  0.00000000000E+00 0. -1.
         -5    1    3    3    0  503  0.69323701427E+02 -0.22342256397E+01 -0.10830371524E+03  0.12869557909E+03  0.47000000000E+01 0.  1.
         13    1    4    4    0    0 -0.37115901223E+02  0.31239883984E+02 -0.15655555142E+03  0.16389985099E+03  0.00000000000E+00 0. -1.
        -14    1    4    4    0    0 -0.21523554006E+02 -0.41032195057E+02 -0.67684165540E+02  0.82024695507E+02  0.00000000000E+00 0.  1.
</event>
<event>
12    1  0.1061634E+000  0.1850827E+03  0.7818608E-02  0.1164712E+00
         21   -1    0    0  501  502  0.00000000000E+00  0.00000000000E+00  0.53981156778E+03  0.53981156778E+03  0.00000000000E+00 0.  1.
         21   -1    0    0  502  503 -0.00000000000E+00 -0.00000000000E+00 -0.61206566929E+02  0.61206566929E+02  0.00000000000E+00 0.  1.
         -6    2    1    2    0  503 -0.19670510885E+02  0.47956198502E+02  0.22589113498E+03  0.29203154433E+03  0.17767636885E+03 0.  0.
        -24    2    3    3    0    0 -0.55384911626E+01 -0.20636610865E+02  0.19980074156E+03  0.21714839464E+03  0.82319769039E+02 0.  0.
          6    2    1    2  501    0  0.19670510885E+02 -0.47956198502E+02  0.25271386587E+03  0.30898659038E+03  0.17006377938E+03 0.  0.
         24    2    5    5    0    0  0.35495261052E+02 -0.91429190380E+02  0.18556152707E+03  0.22730519503E+03  0.87266035470E+02 0.  0.
          5    1    5    5  501    0 -0.15824750167E+02  0.43472991878E+02  0.67152338797E+02  0.81681395352E+02  0.47000000000E+01 0. -1.
        -11    1    6    6    0    0  0.14313234146E+02 -0.57687745051E+01  0.11016455862E+03  0.11124017892E+03  0.00000000000E+00 0.  1.
         12    1    6    6    0    0  0.21182026906E+02 -0.85660415875E+02  0.75396968455E+02  0.11606501611E+03  0.00000000000E+00 0. -1.
         -5    1    3    3    0  503 -0.14132019722E+02  0.68592809367E+02  0.26090393419E+02  0.74883149687E+02  0.47000000000E+01 0.  1.
         11    1    4    4    0    0 -0.39618019479E+02 -0.20968869054E+02  0.15179444186E+03  0.15827455107E+03  0.00000000000E+00 0. -1.
        -12    1    4    4    0    0  0.34079528317E+02  0.33225818837E+00  0.48006299698E+02  0.58873843568E+02  0.00000000000E+00 0.  1.
</event>
<event>
12    1  0.1061634E+000  0.3038496E+03  0.7818608E-02  0.1083493E+00
         21   -1    0    0  503  502  0.00000000000E+00  0.00000000000E+00  0.24380417065E+03  0.24380417065E+03  0.00000000000E+00 0. -1.
         21   -1    0    0  501  503 -0.00000000000E+00 -0.00000000000E+00 -0.57247114823E+03  0.57247114823E+03  0.00000000000E+00 0.  1.
          6    2    1    2  501    0  0.16236735196E+03  0.18935087204E+03 -0.40255536375E+03  0.50357083592E+03  0.17121873782E+03 0.  0.
         24    2    3    3    0    0  0.10566377894E+03  0.20379932312E+03 -0.31021102005E+03  0.39414679494E+03  0.80136263401E+02 0.  0.
         -6    2    1    2    0  502 -0.16236735196E+03 -0.18935087204E+03  0.73888386169E+02  0.31270448297E+03  0.17351567748E+03 0.  0.
        -24    2    5    5    0    0 -0.10984159450E+02 -0.78238677543E+02  0.51477505918E+02  0.12352962128E+03  0.79797815104E+02 0.  0.
          5    1    3    3  501    0  0.56703573021E+02 -0.14448451084E+02 -0.92344343699E+02  0.10942404098E+03  0.47000000000E+01 0. -1.
        -13    1    4    4    0    0 -0.41525041896E+01  0.46379565826E+02 -0.33415959703E+02  0.57314341836E+02  0.00000000000E+00 0.  1.
         14    1    4    4    0    0  0.10981628313E+03  0.15741975730E+03 -0.27679506035E+03  0.33683245310E+03  0.00000000000E+00 0. -1.
         -5    1    5    5    0  502 -0.15138319251E+03 -0.11111219449E+03  0.22410880251E+02  0.18917486169E+03  0.47000000000E+01 0.  1.
         11    1    6    6    0    0 -0.45676576853E+02 -0.48110829011E+02  0.29885505615E+02  0.72760875386E+02  0.00000000000E+00 0. -1.
        -12    1    6    6    0    0  0.34692417403E+02 -0.30127848532E+02  0.21592000303E+02  0.50768745893E+02  0.00000000000E+00 0.  1.
</event>
<event>
12    1  0.1061634E+000  0.2244869E+03  0.7818608E-02  0.1131117E+00
         21   -1    0    0  501  502  0.00000000000E+00  0.00000000000E+00  0.98546808059E+03  0.98546808059E+03  0.00000000000E+00 0. -1.
         21   -1    0    0  502  503 -0.00000000000E+00 -0.00000000000E+00 -0.89050818699E+02  0.89050818699E+02  0.00000000000E+00 0. -1.
         -6    2    1    2    0  503 -0.70037618581E+02  0.12299968752E+03  0.96261693355E+02  0.24425537497E+03  0.17424173853E+03 0.  0.
        -24    2    3    3    0    0 -0.75762274275E+02  0.21811078965E+02  0.14915198378E+02  0.11421211898E+03  0.81279146216E+02 0.  0.
          6    2    1    2  501    0  0.70037618581E+02 -0.12299968752E+03  0.80015556854E+03  0.83026352432E+03  0.17045349751E+03 0.  0.
         24    2    5    5    0    0  0.85984324637E+02 -0.80070016468E+02  0.74372345810E+03  0.75743545845E+03  0.82336990260E+02 0.  0.
          5    1    5    5  501    0 -0.15946706056E+02 -0.42929671051E+02  0.56432110435E+02  0.72828065872E+02  0.47000000000E+01 0. -1.
        -11    1    6    6    0    0  0.31960552136E+02 -0.74704898414E+02  0.31596212809E+03  0.32624280088E+03  0.00000000000E+00 0.  1.
         12    1    6    6    0    0  0.54023772502E+02 -0.53651180540E+01  0.42776133001E+03  0.43119265757E+03  0.00000000000E+00 0. -1.
         -5    1    3    3    0  503  0.57246556940E+01  0.10118860855E+03  0.81346494977E+02  0.13004325599E+03  0.47000000000E+01 0.  1.
         13    1    4    4    0    0 -0.82762080328E+02 -0.34342091245E+01  0.24396758316E+02  0.86351361013E+02  0.00000000000E+00 0. -1.
        -14    1    4    4    0    0  0.69998060526E+01  0.25245288089E+02 -0.94815599382E+01  0.27860757964E+02  0.00000000000E+00 0.  1.
</event>
<event>
12    1  0.1061634E+000  0.1898493E+03  0.7818608E-02  0.1158921E+00
         21   -1    0    0  501  502  0.00000000000E+00  0.00000000000E+00  0.24044400005E+03  0.24044400005E+03  0.00000000000E+00 0. -1.
         21   -1    0    0  502  503 -0.00000000000E+00 -0.00000000000E+00 -0.19335034358E+03  0.19335034358E+03  0.00000000000E+00 0. -1.
         -6    2    1    2    0  503 -0.71303480794E+02 -0.33238448794E+02  0.12775529046E+03  0.22883216665E+03  0.17278242215E+03 0.  0.
        -24    2    3    3    0    0 -0.68736729055E+02  0.25198081261E+02  0.13040605497E+03  0.17009093061E+03  0.81027799447E+02 0.  0.
          6    2    1    2  501    0  0.71303480794E+02  0.33238448794E+02 -0.80661633993E+02  0.20496217697E+03  0.17121394201E+03 0.  0.
         24    2    5    5    0    0 -0.15079768586E+02  0.89613989456E+01 -0.46233933215E+02  0.10873953149E+03  0.96845253038E+02 0.  0.
          5    1    5    5  501    0  0.86383249381E+02  0.24277049849E+02 -0.34427700778E+02  0.96222645483E+02  0.47000000000E+01 0. -1.
        -11    1    6    6    0    0  0.18010391070E+01  0.79213721047E+01  0.29779327641E+02  0.30867462361E+02  0.00000000000E+00 0.  1.
         12    1    6    6    0    0 -0.16880807693E+02  0.10400268409E+01 -0.76013260855E+02  0.77872069126E+02  0.00000000000E+00 0. -1.
         -5    1    3    3    0  503 -0.25667517391E+01 -0.58436530055E+02 -0.26507645096E+01  0.58741236043E+02  0.47000000000E+01 0.  1.
         11    1    4    4    0    0 -0.43983347270E+02  0.16565637918E+02  0.13546959829E+03  0.14339095947E+03  0.00000000000E+00 0. -1.
        -12    1    4    4    0    0 -0.24753381784E+02  0.86324433432E+01 -0.50635433239E+01  0.26699971139E+02  0.00000000000E+00 0.  1.
</event>
<event>
12    1  0.1061634E+000  0.2081931E+03  0.7818608E-02  0.1144183E+00
         21   -1    0    0  503  502  0.00000000000E+00  0.00000000000E+00  0.59848250209E+03  0.59848250209E+03  0.00000000000E+00 0. -1.
         21   -1    0    0  501  503 -0.00000000000E+00 -0.00000000000E+00 -0.91756887276E+02  0.91756887276E+02  0.00000000000E+00 0. -1.
          6    2    1    2  501    0  0.10674083741E+03  0.93531457920E+01  0.84208706015E+02  0.21921401249E+03  0.17170494866E+03 0.  0.
         24    2    3    3    0    0  0.12186726694E+03 -0.39473769668E+02  0.61493276756E+02  0.16308062429E+03  0.80025356551E+02 0.  0.
         -6    2    1    2    0  502 -0.10674083741E+03 -0.93531457920E+01  0.42251690880E+03  0.47102537688E+03  0.17850288439E+03 0.  0.
        -24    2    5    5    0    0 -0.30535338040E+01  0.15415363072E+02  0.14229756241E+03  0.17117623473E+03  0.93838955550E+02 0.  0.
          5    1    3    3  501    0 -0.15126429532E+02  0.48826915460E+02  0.22715429259E+02  0.56133388194E+02  0.47000000000E+01 0. -1.
        -13    1    4    4    0    0  0.19617620131E+02  0.16312927562E+01  0.48217695487E+02  0.52081266245E+02  0.00000000000E+00 0.  1.
         14    1    4    4    0    0  0.10224964681E+03 -0.41105062424E+02  0.13275581269E+02  0.11099935805E+03  0.00000000000E+00 0. -1.
         -5    1    5    5    0  502 -0.10368730360E+03 -0.24768508864E+02  0.28021934639E+03  0.29984914216E+03  0.47000000000E+01 0.  1.
         11    1    6    6    0    0  0.31816706999E+02 -0.25938910311E+02  0.60866117191E+02  0.73415353532E+02  0.00000000000E+00 0. -1.
        -12    1    6    6    0    0 -0.34870240803E+02  0.41354273383E+02  0.81431445223E+02  0.97760881194E+02  0.00000000000E+00 0.  1.
</event>
<event>
12    1  0.1061634E+000  0.2655325E+03  0.7818608E-02  0.1104045E+00
         21   -1    0    0  501  502  0.00000000000E+00  0.00000000000E+00  0.12166197118E+03  0.12166197118E+03  0.00000000000E+00 0.  1.
         21   -1    0    0  502  503 -0.00000000000E+00 -0.00000000000E+00 -0.79250840102E+03  0.79250840102E+03  0.00000000000E+00 0.  1.
         -6    2    1    2    0  503  0.40091572560E+01 -0.20263537060E+03 -0.57443846676E+03  0.63284047807E+03  0.17155276690E+03 0.  0.
        -24    2    3    3    0    0  0.24655914375E+01 -0.16508711546E+03 -0.27236203063E+03  0.32839915807E+03  0.80031846534E+02 0.  0.
          6    2    1    2  501    0 -0.40091572560E+01  0.20263537060E+03 -0.96407963084E+02  0.28132989413E+03  0.16963150423E+03 0.  0.
         24    2    5    5    0    0  0.55869815242E+02  0.15812994742E+03 -0.49614611053E+02  0.19313731035E+03  0.81938357895E+02 0.  0.
          5    1    5    5  501    0 -0.59878972498E+02  0.44505423184E+02 -0.46793352031E+02  0.88192583784E+02  0.47000000000E+01 0. -1.
        -13    1    6    6    0    0  0.41031936553E+02  0.78180351850E+02  0.14640558956E+02  0.89499347479E+02  0.00000000000E+00 0.  1.
         14    1    6    6    0    0  0.14837878689E+02  0.79949595567E+02 -0.64255170009E+02  0.10363796287E+03  0.00000000000E+00 0. -1.
         -5    1    3    3    0  503  0.15435658185E+01 -0.37548255137E+02 -0.30207643612E+03  0.30444131999E+03  0.47000000000E+01 0.  1.
         13    1    4    4    0    0  0.98422007271E+01 -0.12200746914E+03 -0.25205726990E+03  0.28020627892E+03  0.00000000000E+00 0. -1.
        -14    1    4    4    0    0 -0.73766092896E+01 -0.43079646326E+02 -0.20304760736E+02  0.48192879150E+02  0.00000000000E+00 0.  1.
</event>
<event>
12    1  0.1061634E+000  0.3088773E+03  0.7818608E-02  0.1080917E+00
         21   -1    0    0  501  502  0.00000000000E+00  0.00000000000E+00  0.14499218382E+04  0.14499218382E+04  0.00000000000E+00 0.  1.
         21   -1    0    0  502  503 -0.00000000000E+00 -0.00000000000E+00 -0.25036479462E+03  0.25036479462E+03  0.00000000000E+00 0.  1.
         -6    2    1    2    0  503  0.22909210317E+03 -0.11437625970E+03  0.13297494350E+04  0.13650922774E+04  0.17227375162E+03 0.  0.
        -24    2    3    3    0    0  0.17163873942E+03 -0.19476930898E+02  0.63305802284E+03  0.65960819867E+03  0.66942570576E+02 0.  0.
          6    2    1    2  501    0 -0.22909210317E+03  0.11437625970E+03 -0.13019239145E+03  0.33519435537E+03  0.17274280465E+03 0.  0.
         24    2    5    5    0    0 -0.22116140392E+03  0.10832411845E+03 -0.15935083004E+03  0.30402018424E+03  0.79931872032E+02 0.  0.
          5    1    5    5  501    0 -0.79306992521E+01  0.60521412508E+01  0.29158438595E+02  0.31174171130E+02  0.47000000000E+01 0. -1.
        -11    1    6    6    0    0 -0.61729728242E+02  0.70922884130E+02 -0.71958413538E+02  0.11840028767E+03  0.00000000000E+00 0.  1.
         12    1    6    6    0    0 -0.15943167568E+03  0.37401234322E+02 -0.87392416504E+02  0.18561989656E+03  0.00000000000E+00 0. -1.
         -5    1    3    3    0  503  0.57453363747E+02 -0.94899328805E+02  0.69669141217E+03  0.70548407878E+03  0.47000000000E+01 0.  1.
         13    1    4    4    0    0  0.14703472674E+03  0.91083562908E+01  0.49044306279E+03  0.51209039325E+03  0.00000000000E+00 0. -1.
        -14    1    4    4    0    0  0.24604012684E+02 -0.28585287189E+02  0.14261496005E+03  0.14751780541E+03  0.00000000000E+00 0.  1.
</event>
<event>
12    1  0.1061634E+000  0.3199385E+03  0.7818608E-02  0.1075716E+00
         21   -1    0    0  501  502  0.00000000000E+00  0.00000000000E+00  0.19847670491E+03  0.19847670491E+03  0.00000000000E+00 0. -1.
         21   -1    0    0  502  503 -0.00000000000E+00 -0.00000000000E+00 -0.56876519839E+03  0.56876519839E+03  0.00000000000E+00 0. -1.
         -6    2    1    2    0  503  0.14648625345E+02  0.26939839061E+03 -0.67318163284E+02  0.32661546964E+03  0.17133550366E+03 0.  0.
        -24    2    3    3    0    0  0.67707590559E+02  0.13113782052E+03 -0.12185845393E+02  0.16852403564E+03  0.80438858572E+02 0.  0.
          6    2    1    2  501    0 -0.14648625345E+02 -0.26939839061E+03 -0.30297033019E+03  0.44062643366E+03  0.17196091991E+03 0.  0.
         24    2    5    5    0    0 -0.29394472375E+02 -0.27780388945E+03 -0.24797062361E+03  0.38287567488E+03  0.84055435519E+02 0.  0.
          5    1    5    5  501    0  0.14745847030E+02  0.84054988442E+01 -0.54999706581E+02  0.57750758778E+02  0.47000000000E+01 0. -1.
        -13    1    6    6    0    0 -0.48910611659E+02 -0.18478460621E+03 -0.19909419955E+03  0.27600017920E+03  0.00000000000E+00 0.  1.
         14    1    6    6    0    0  0.19516139283E+02 -0.93019283247E+02 -0.48876424061E+02  0.10687549568E+03  0.00000000000E+00 0. -1.
         -5    1    3    3    0  503 -0.53058965214E+02  0.13826057009E+03 -0.55132317891E+02  0.15809143401E+03  0.47000000000E+01 0.  1.
         13    1    4    4    0    0  0.45341227591E+02  0.12102212377E+02 -0.18468715761E+01  0.46964895385E+02  0.00000000000E+00 0. -1.
        -14    1    4    4    0    0  0.22366362968E+02  0.11903560815E+03 -0.10338973817E+02  0.12155914025E+03  0.00000000000E+00 0.  1.
</event>
<event>
12    1  0.1061634E+000  0.1984324E+03  0.7818608E-02  0.1151737E+00
         21   -1    0    0  503  502  0.00000000000E+00  0.00000000000E+00  0.25323352946E+03  0.25323352946E+03  0.00000000000E+00 0. -1.
         21   -1    0    0  501  503 -0.00000000000E+00 -0.00000000000E+00 -0.15362922332E+03  0.15362922332E+03  0.00000000000E+00 0. -1.
          6    2    1    2  501    0  0.59044777585E+02 -0.80146212235E+02  0.62559294113E+02  0.20806028495E+03  0.17165580619E+03 0.  0.
         24    2    3    3    0    0  0.33310904393E+02 -0.11941718976E+03  0.30092818284E+02  0.15078372816E+03  0.80374581831E+02 0.  0.
         -6    2    1    2    0  502 -0.59044777585E+02  0.80146212235E+02  0.37045012023E+02  0.19880246782E+03  0.16804876435E+03 0.  0.
        -24    2    5    5    0    0 -0.52178819630E+02  0.96219021049E+02  0.74181539116E+02  0.15749038477E+03  0.85554610156E+02 0.  0.
          5    1    3    3  501    0  0.25733873193E+02  0.39270977523E+02  0.32466475829E+02  0.57276556791E+02  0.47000000000E+01 0. -1.
        -13    1    4    4    0    0  0.39539278221E+02 -0.75506941414E+02  0.53503451584E+02  0.10063434829E+03  0.00000000000E+00 0.  1.
         14    1    4    4    0    0 -0.62283738279E+01 -0.43910248343E+02 -0.23410633299E+02  0.50149379873E+02  0.00000000000E+00 0. -1.
         -5    1    5    5    0  502 -0.68659579557E+01 -0.16072808815E+02 -0.37136527093E+02  0.41312083055E+02  0.47000000000E+01 0.  1.
         13    1    6    6    0    0 -0.14399860895E+02 -0.13870059177E+02  0.10289574049E+01  0.20019822395E+02  0.00000000000E+00 0. -1.
        -14    1    6    6    0    0 -0.37778958734E+02  0.11008908023E+03  0.73152581712E+02  0.13747056237E+03  0.00000000000E+00 0.  1.
</event>
<event>
12    1  0.1061634E+000  0.1858348E+03  0.7818608E-02  0.1162365E+00
         21   -1    0    0  503  502  0.00000000000E+00  0.00000000000E+00  0.12443488325E+03  0.12443488325E+03  0.00000000000E+00 0.  1.
         21   -1    0    0  501  503 -0.00000000000E+00 -0.00000000000E+00 -0.36876637583E+03  0.36876637583E+03  0.00000000000E+00 0.  1.
          6    2    1    2  501    0  0.67574252162E+02  0.28780383103E+02  0.79404747723E+00  0.18583651978E+03  0.17070439820E+03 0.  0.
         24    2    3    3    0    0 -0.17481644385E+02  0.48422115377E+02 -0.11592703315E+02  0.97542551813E+02  0.82035659905E+02 0.  0.
         -6    2    1    2    0  502 -0.67574252162E+02 -0.28780383103E+02 -0.24512554006E+03  0.30736473930E+03  0.17027026330E+03 0.  0.
        -24    2    5    5    0    0 -0.90463028519E+02 -0.66002017035E+02 -0.20792587636E+03  0.24978652210E+03  0.81365292250E+02 0.  0.
          5    1    3    3  501    0  0.85055896547E+02 -0.19641732274E+02  0.12386750792E+02  0.88293967967E+02  0.47000000000E+01 0. -1.
        -11    1    4    4    0    0 -0.56953745496E+01  0.21741411578E+02 -0.46743457770E+02  0.51865953312E+02  0.00000000000E+00 0.  1.
         12    1    4    4    0    0 -0.11786269835E+02  0.26680703799E+02  0.35150754455E+02  0.45676598501E+02  0.00000000000E+00 0. -1.
         -5    1    5    5    0  502  0.22888776357E+02  0.37221633933E+02 -0.37199663709E+02  0.57578217199E+02  0.47000000000E+01 0.  1.
         11    1    6    6    0    0 -0.34189211773E+02 -0.23943801540E+02 -0.14811116937E+02  0.44289694273E+02  0.00000000000E+00 0. -1.
        -12    1    6    6    0    0 -0.56273816746E+02 -0.42058215495E+02 -0.19311475942E+03  0.20549682783E+03  0.00000000000E+00 0.  1.
</event>
<event>
12    1  0.1061634E+000  0.2008271E+03  0.7818608E-02  0.1149111E+00
         21   -1    0    0  501  502  0.00000000000E+00  0.00000000000E+00  0.39671177271E+02  0.39671177271E+02  0.00000000000E+00 0.  1.
         21   -1    0    0  502  503 -0.00000000000E+00 -0.00000000000E+00 -0.10372066433E+04  0.10372066433E+04  0.00000000000E+00 0.  1.
         -6    2    1    2    0  503  0.46078433431E+01 -0.10401827109E+03 -0.57795486755E+03  0.61185238344E+03  0.17172791636E+03 0.  0.
        -24    2    3    3    0    0 -0.66363307250E+02 -0.60898083098E+02 -0.32296402271E+03  0.34363852142E+03  0.75292817474E+02 0.  0.
          6    2    1    2  501    0 -0.46078433431E+01  0.10401827109E+03 -0.41958059843E+03  0.46502543708E+03  0.17134685761E+03 0.  0.
         24    2    5    5    0    0  0.35870378904E+02  0.19511574021E+02 -0.30026518374E+03  0.31324228088E+03  0.79335744515E+02 0.  0.
          5    1    5    5  501    0 -0.40478222247E+02  0.84506697067E+02 -0.11931541469E+03  0.15178315620E+03  0.47000000000E+01 0. -1.
        -13    1    6    6    0    0  0.62314292145E+01  0.47823167583E+02 -0.16488107308E+03  0.17178956408E+03  0.00000000000E+00 0.  1.
         14    1    6    6    0    0  0.29638949689E+02 -0.28311593562E+02 -0.13538411067E+03  0.14145271680E+03  0.00000000000E+00 0. -1.
         -5    1    3    3    0  503  0.70971150594E+02 -0.43120187991E+02 -0.25499084483E+03  0.26821386202E+03  0.47000000000E+01 0.  1.
         13    1    4    4    0    0  0.88448087909E+01 -0.32081526897E+02 -0.13698314622E+03  0.14096750462E+03  0.00000000000E+00 0. -1.
        -14    1    4    4    0    0 -0.75208116041E+02 -0.28816556201E+02 -0.18598087649E+03  0.20267101680E+03  0.00000000000E+00 0.  1.
</event>
<event>
12    1  0.1061634E+000  0.2800062E+03  0.7818608E-02  0.1095937E+00
         21   -1    0    0  503  502  0.00000000000E+00  0.00000000000E+00  0.52237345375E+02  0.52237345375E+02  0.00000000000E+00 0.  1.
         21   -1    0    0  501  503 -0.00000000000E+00 -0.00000000000E+00 -0.14915560966E+04  0.14915560966E+04  0.00000000000E+00 0.  1.
          6    2    1    2  501    0 -0.62753166574E+02  0.20956700270E+03 -0.73546838851E+03  0.78696711304E+03  0.17477756712E+03 0.  0.
         24    2    3    3    0    0 -0.58416115906E+02  0.14872361983E+03 -0.68458528709E+03  0.70739383072E+03  0.78853400424E+02 0.  0.
         -6    2    1    2    0  502  0.62753166574E+02 -0.20956700270E+03 -0.70385036271E+03  0.75682632893E+03  0.17182686211E+03 0.  0.
        -24    2    5    5    0    0  0.85477807352E+02 -0.68911484594E+02 -0.36460910675E+03  0.38884928641E+03  0.78795422225E+02 0.  0.
          5    1    3    3  501    0 -0.43370506673E+01  0.60843382871E+02 -0.50883101423E+02  0.79573282313E+02  0.47000000000E+01 0. -1.
        -13    1    4    4    0    0 -0.65554175711E+02  0.95875171143E+02 -0.55928485100E+03  0.57121707166E+03  0.00000000000E+00 0.  1.
         14    1    4    4    0    0  0.71380598045E+01  0.52848448687E+02 -0.12530043608E+03  0.13617675906E+03  0.00000000000E+00 0. -1.
         -5    1    5    5    0  502 -0.22724640778E+02 -0.14065551811E+03 -0.33924125596E+03  0.36797704251E+03  0.47000000000E+01 0.  1.
         11    1    6    6    0    0  0.54950533721E+02 -0.64521446015E+02 -0.33687473067E+03  0.34737179263E+03  0.00000000000E+00 0. -1.
        -12    1    6    6    0    0  0.30527273631E+02 -0.43900385792E+01 -0.27734376075E+02  0.41477493781E+02  0.00000000000E+00 0.  1.
</event>
<event>
12    1  0.1061634E+000  0.1970639E+03  0.7818608E-02  0.1152282E+00
         21   -1    0    0  501  502  0.00000000000E+00  0.00000000000E+00  0.83322107771E+03  0.83322107771E+03  0.00000000000E+00 0.  1.
         21   -1    0    0  502  503 -0.00000000000E+00 -0.00000000000E+00 -0.50410516952E+02  0.50410516952E+02  0.00000000000E+00 0.  1.
         -6    2    1    2    0  503 -0.74628520539E+02  0.59933989489E+02  0.26949230230E+03  0.33385665446E+03  0.17225755587E+03 0.  0.
        -24    2    3    3    0    0 -0.75650588948E+02  0.81650504741E+02  0.27828748247E+03  0.30993810825E+03  0.78916991312E+02 0.  0.
          6    2    1    2  501    0  0.74628520539E+02 -0.59933989489E+02  0.51331825846E+03  0.54977494020E+03  0.17203299460E+03 0.  0.
         24    2    5    5    0    0  0.44533582869E+01 -0.27504019904E+02  0.42093125185E+03  0.42921912195E+03  0.79181010051E+02 0.  0.
          5    1    5    5  501    0  0.70175162252E+02 -0.32429969584E+02  0.92387006614E+02  0.12055581826E+03  0.47000000000E+01 0. -1.
        -13    1    6    6    0    0  0.25596444808E+02 -0.29842648287E+02  0.38818048338E+03  0.39016643798E+03  0.00000000000E+00 0.  1.
         14    1    6    6    0    0 -0.21143086522E+02  0.23386283824E+01  0.32750768465E+02  0.39052683972E+02  0.00000000000E+00 0. -1.
         -5    1    3    3    0  503  0.10220684096E+01 -0.21716515252E+02 -0.87951801670E+01  0.23918546208E+02  0.47000000000E+01 0.  1.
         13    1    4    4    0    0 -0.41379347153E+02  0.90589705968E+02  0.18411017933E+03  0.20932105324E+03  0.00000000000E+00 0. -1.
        -14    1    4    4    0    0 -0.34271241795E+02 -0.89392012273E+01  0.94177303141E+02  0.10061705501E+03  0.00000000000E+00 0.  1.
</event>
<event>
12    1  0.1061634E+000  0.2526130E+03  0.7818608E-02  0.1111864E+00
         21   -1    0    0  503  502  0.00000000000E+00  0.00000000000E+00  0.19522544851E+03  0.19522544851E+03  0.00000000000E+00 0. -1.
         21   -1    0    0  501  503 -0.00000000000E+00 -0.00000000000E+00 -0.33510703452E+03  0.33510703452E+03  0.00000000000E+00 0. -1.
          6    2    1    2  501    0 -0.16574165005E+03  0.80261177229E+02 -0.24225112526E+02  0.25250206529E+03  0.17105053570E+03 0.  0.
         24    2    3    3    0    0 -0.99300526516E+02  0.11775110276E+03 -0.18079944830E+01  0.17284947842E+03  0.78407630882E+02 0.  0.
         -6    2    1    2    0  502  0.16574165005E+03 -0.80261177229E+02 -0.11565647348E+03  0.27783041775E+03  0.17291954787E+03 0.  0.
        -24    2    5    5    0    0  0.58508862832E+02  0.25109757670E+02 -0.50093238831E+02  0.11374954648E+03  0.79848855899E+02 0.  0.
          5    1    3    3  501    0 -0.66441123535E+02 -0.37489925527E+02 -0.22417118043E+02  0.79652586863E+02  0.47000000000E+01 0. -1.
        -11    1    4    4    0    0 -0.84345686469E+01  0.68626810077E+02 -0.65008004099E+01  0.69448120317E+02  0.00000000000E+00 0.  1.
         12    1    4    4    0    0 -0.90865957869E+02  0.49124292679E+02  0.46928059270E+01  0.10340135811E+03  0.00000000000E+00 0. -1.
         -5    1    5    5    0  502  0.10723278722E+03 -0.10537093490E+03 -0.65563234653E+02  0.16408087126E+03  0.47000000000E+01 0.  1.
         11    1    6    6    0    0  0.42350002920E+02  0.38587803227E+02 -0.65980070218E+02  0.87383699688E+02  0.00000000000E+00 0. -1.
        -12    1    6    6    0    0  0.16158859913E+02 -0.13478045557E+02  0.15886831387E+02  0.26365846795E+02  0.00000000000E+00 0.  1.
</event>
<event>
12    1  0.1061634E+000  0.2140989E+03  0.7818608E-02  0.1138526E+00
         21   -1    0    0  503  502  0.00000000000E+00  0.00000000000E+00  0.16571892844E+02  0.16571892844E+02  0.00000000000E+00 0.  1.
         21   -1    0    0  501  503 -0.00000000000E+00 -0.00000000000E+00 -0.28671915709E+04  0.28671915709E+04  0.00000000000E+00 0.  1.
          6    2    1    2  501    0 -0.97923575030E+02  0.79913866686E+02 -0.11428145683E+04  0.11626966346E+04  0.17280935682E+03 0.  0.
         24    2    3    3    0    0 -0.88769613877E+02  0.88074759752E+02 -0.11386234930E+04  0.11489107616E+04  0.88855341284E+02 0.  0.
         -6    2    1    2    0  502  0.97923575030E+02 -0.79913866686E+02 -0.17078051098E+04  0.17210668292E+04  0.17174831896E+03 0.  0.
        -24    2    5    5    0    0  0.69604355155E+02 -0.31511129769E+02 -0.52276764315E+03  0.53469391549E+03  0.82303444517E+02 0.  0.
          5    1    3    3  501    0 -0.91539611531E+01 -0.81608930657E+01 -0.41910753142E+01  0.13785872940E+02  0.47000000000E+01 0. -1.
        -13    1    4    4    0    0 -0.75662442970E+01  0.23548892150E+02 -0.54654348867E+02  0.59990801164E+02  0.00000000000E+00 0.  1.
         14    1    4    4    0    0 -0.81203369580E+02  0.64525867602E+02 -0.10839691442E+04  0.10889199605E+04  0.00000000000E+00 0. -1.
         -5    1    5    5    0  502  0.28319219875E+02 -0.48402736917E+02 -0.11850374666E+04  0.11863729137E+04  0.47000000000E+01 0.  1.
         11    1    6    6    0    0  0.88417376495E+02 -0.28144612009E+02 -0.44928512010E+03  0.45876668449E+03  0.00000000000E+00 0. -1.
        -12    1    6    6    0    0 -0.18813021340E+02 -0.33665177605E+01 -0.73482523046E+02  0.75927230997E+02  0.00000000000E+00 0.  1.
</event>
<event>
12    1  0.1061634E+000  0.2113099E+03  0.7818608E-02  0.1140655E+00
         21   -1    0    0  503  502  0.00000000000E+00  0.00000000000E+00  0.35435630892E+02  0.35435630892E+02  0.00000000000E+00 0.  1.
         21   -1    0    0  501  503 -0.00000000000E+00 -0.00000000000E+00 -0.12972651372E+04  0.12972651372E+04  0.00000000000E+00 0.  1.
          6    2    1    2  501    0 -0.11617953110E+03 -0.36606878009E+02 -0.75008930397E+03  0.77928546832E+03  0.17266768729E+03 0.  0.
         24    2    3    3    0    0 -0.48441658467E+02  0.29477105349E+01 -0.62348589026E+03  0.63027708188E+03  0.78480961553E+02 0.  0.
         -6    2    1    2    0  502  0.11617953110E+03  0.36606878009E+02 -0.51174020231E+03  0.55341529975E+03  0.17190902353E+03 0.  0.
        -24    2    5    5    0    0 -0.36220974193E+01  0.27538646389E+02 -0.29802244878E+03  0.30819696602E+03  0.73460828027E+02 0.  0.
          5    1    3    3  501    0 -0.67737872632E+02 -0.39554588544E+02 -0.12660341371E+03  0.14900838643E+03  0.47000000000E+01 0. -1.
        -11    1    4    4    0    0  0.29143674887E+00  0.34067561983E+02 -0.25956988796E+03  0.26179612383E+03  0.00000000000E+00 0.  1.
         12    1    4    4    0    0 -0.48733095216E+02 -0.31119851448E+02 -0.36391600229E+03  0.36848095805E+03  0.00000000000E+00 0. -1.
         -5    1    5    5    0  502  0.11980162852E+03  0.90682316198E+01 -0.21371775353E+03  0.24521833372E+03  0.47000000000E+01 0.  1.
         11    1    6    6    0    0  0.10126463338E+02 -0.19794506945E+02 -0.16201651547E+03  0.16353506979E+03  0.00000000000E+00 0. -1.
        -12    1    6    6    0    0 -0.13748560757E+02  0.47333153334E+02 -0.13600593331E+03  0.14466189624E+03  0.00000000000E+00 0.  1.
</event>
<event>
12    1  0.1061634E+000  0.4977590E+03  0.7818608E-02  0.1014371E+00
         21   -1    0    0  503  502  0.00000000000E+00  0.00000000000E+00  0.15291549162E+03  0.15291549162E+03  0.00000000000E+00 0.  1.
         21   -1    0    0  501  503 -0.00000000000E+00 -0.00000000000E+00 -0.17634010441E+04  0.17634010441E+04  0.00000000000E+00 0.  1.
          6    2    1    2  501    0  0.32905726468E+03  0.33120857646E+03 -0.53195232987E+03  0.72846218419E+03  0.17235448349E+03 0.  0.
         24    2    3    3    0    0  0.16627888503E+03  0.14036063457E+03 -0.34350847961E+03  0.41469011325E+03  0.81363622789E+02 0.  0.
         -6    2    1    2    0  502 -0.32905726468E+03 -0.33120857646E+03 -0.10785332226E+04  0.11878543515E+04  0.17258691610E+03 0.  0.
        -24    2    5    5    0    0 -0.12328471575E+03 -0.21514508317E+03 -0.52823211860E+03  0.58896665634E+03  0.79787362483E+02 0.  0.
          5    1    3    3  501    0  0.16277837965E+03  0.19084794189E+03 -0.18844385026E+03  0.31377207094E+03  0.47000000000E+01 0. -1.
        -11    1    4    4    0    0  0.21995707046E+02 -0.36269145257E+01 -0.11457343895E+02  0.25064643755E+02  0.00000000000E+00 0.  1.
         12    1    4    4    0    0  0.14428317799E+03  0.14398754910E+03 -0.33205113572E+03  0.38962546949E+03  0.00000000000E+00 0. -1.
         -5    1    5    5    0  502 -0.20577254894E+03 -0.11606349329E+03 -0.55030110400E+03  0.59888769517E+03  0.47000000000E+01 0.  1.
         13    1    6    6    0    0 -0.13116041315E+03 -0.19155822658E+03 -0.50047363014E+03  0.55169870637E+03  0.00000000000E+00 0. -1.
        -14    1    6    6    0    0  0.78756973990E+01 -0.23586856590E+02 -0.27758488460E+02  0.37267949969E+02  0.00000000000E+00 0.  1.
</event>
<event>
12    1  0.1061634E+000  0.1755121E+03  0.7818608E-02  0.1172398E+00
         21   -1    0    0  503  502  0.00000000000E+00  0.00000000000E+00  0.13005779442E+03  0.13005779442E+03  0.00000000000E+00 0. -1.
         21   -1    0    0  501  503 -0.00000000000E+00 -0.00000000000E+00 -0.26799519718E+03  0.26799519718E+03  0.00000000000E+00 0. -1.
          6    2    1    2  501    0 -0.35248832714E+02 -0.27134064912E+01  0.44689436223E-01  0.17479629109E+03  0.17118381524E+03 0.  0.
         24    2    3    3    0    0 -0.18577256034E+02 -0.56229659007E+02  0.36957109034E+02  0.10751666956E+03  0.81774796436E+02 0.  0.
         -6    2    1    2    0  502  0.35248832714E+02  0.27134064912E+01 -0.13798209219E+03  0.22325670051E+03  0.17191467003E+03 0.  0.
        -24    2    5    5    0    0 -0.48663589140E+02 -0.14729514117E+02 -0.38359597079E+02  0.91756580533E+02  0.66050797792E+02 0.  0.
          5    1    3    3  501    0 -0.16671576680E+02  0.53516252516E+02 -0.36912419598E+02  0.67279621528E+02  0.47000000000E+01 0. -1.
        -13    1    4    4    0    0 -0.14227106275E+01  0.15266132591E+02  0.29965215630E+02  0.33659962234E+02  0.00000000000E+00 0.  1.
         14    1    4    4    0    0 -0.17154545406E+02 -0.71495791598E+02  0.69918934039E+01  0.73856707330E+02  0.00000000000E+00 0. -1.
         -5    1    5    5    0  502  0.83912421854E+02  0.17442920608E+02 -0.99622495113E+02  0.13150011997E+03  0.47000000000E+01 0.  1.
         13    1    6    6    0    0 -0.54167730675E+02  0.12142275625E+02 -0.21320811019E+02  0.59465577323E+02  0.00000000000E+00 0. -1.
        -14    1    6    6    0    0  0.55041415349E+01 -0.26871789741E+02 -0.17038786060E+02  0.32291003210E+02  0.00000000000E+00 0.  1.
</event>
<event>
12    1  0.1061634E+000  0.2236562E+03  0.7818608E-02  0.1131297E+00
         21   -1    0    0  503  502  0.00000000000E+00  0.00000000000E+00  0.15580742540E+03  0.15580742540E+03  0.00000000000E+00 0. -1.
         21   -1    0    0  501  503 -0.00000000000E+00 -0.00000000000E+00 -0.32018289182E+03  0.32018289182E+03  0.00000000000E+00 0. -1.
          6    2    1    2  501    0  0.13379717159E+03  0.50828322049E+02 -0.82255618818E+02  0.23773467206E+03  0.17107479658E+03 0.  0.
         24    2    3    3    0    0  0.12470403595E+03 -0.18281494595E+02 -0.34588081614E+02  0.15315845806E+03  0.79849034170E+02 0.  0.
         -6    2    1    2    0  502 -0.13379717159E+03 -0.50828322049E+02 -0.82119847594E+02  0.23825564516E+03  0.17186297342E+03 0.  0.
        -24    2    5    5    0    0 -0.50669970992E+02 -0.46190877799E+02 -0.10499966744E+03  0.15178476263E+03  0.85513980447E+02 0.  0.
          5    1    3    3  501    0  0.90931356428E+01  0.69109816644E+02 -0.47667537204E+02  0.84576214006E+02  0.47000000000E+01 0. -1.
        -13    1    4    4    0    0  0.12536888282E+03  0.46883315063E+01 -0.34743364625E+02  0.13017848753E+03  0.00000000000E+00 0.  1.
         14    1    4    4    0    0 -0.66484686585E+00 -0.22969826101E+02  0.15528301141E+00  0.22979970524E+02  0.00000000000E+00 0. -1.
         -5    1    5    5    0  502 -0.83127200601E+02 -0.46374442500E+01  0.22879819845E+02  0.86470882527E+02  0.47000000000E+01 0.  1.
         13    1    6    6    0    0 -0.52623290274E+02 -0.33880020666E+00 -0.22196951082E+02  0.57114184772E+02  0.00000000000E+00 0. -1.
        -14    1    6    6    0    0  0.19533192817E+01 -0.45852077592E+02 -0.82802716357E+02  0.94670577858E+02  0.00000000000E+00 0.  1.
</event>
<event>
12    1  0.1061634E+000  0.2151669E+03  0.7818608E-02  0.1137620E+00
         21   -1    0    0  503  502  0.00000000000E+00  0.00000000000E+00  0.34436309862E+03  0.34436309862E+03  0.00000000000E+00 0.  1.
         21   -1    0    0  501  503 -0.00000000000E+00 -0.00000000000E+00 -0.14781361424E+03  0.14781361424E+03  0.00000000000E+00 0.  1.
          6    2    1    2  501    0 -0.45966989229E+02  0.12087983225E+03  0.17310704575E+03  0.27615731319E+03  0.17196486384E+03 0.  0.
         24    2    3    3    0    0 -0.73342639430E+02  0.25505194198E+02  0.12131342566E+03  0.16412867002E+03  0.78686818390E+02 0.  0.
         -6    2    1    2    0  502  0.45966989229E+02 -0.12087983225E+03  0.23442438628E+02  0.21601939968E+03  0.17143492983E+03 0.  0.
        -24    2    5    5    0    0  0.36485909604E+02 -0.66675412488E+02  0.80764033156E+02  0.13642125151E+03  0.79442410471E+02 0.  0.
          5    1    3    3  501    0  0.27375650201E+02  0.95374638053E+02  0.51793620087E+02  0.11202864316E+03  0.47000000000E+01 0. -1.
        -13    1    4    4    0    0 -0.30562848952E+02  0.14055553087E+02  0.11447856258E+03  0.11931884846E+03  0.00000000000E+00 0.  1.
         14    1    4    4    0    0 -0.42779790478E+02  0.11449641111E+02  0.68348630838E+01  0.44809821560E+02  0.00000000000E+00 0. -1.
         -5    1    5    5    0  502  0.94810796255E+01 -0.54204419763E+02 -0.57321594528E+02  0.79598148169E+02  0.47000000000E+01 0.  1.
         11    1    6    6    0    0  0.23698666207E+02 -0.83905361203E+02  0.72624433829E+02  0.11347266106E+03  0.00000000000E+00 0. -1.
        -12    1    6    6    0    0  0.12787243397E+02  0.17229948716E+02  0.81395993267E+01  0.22948590450E+02  0.00000000000E+00 0.  1.
</event>
<event>
12    1  0.1061634E+000  0.1962155E+03  0.7818608E-02  0.1153261E+00
         21   -1    0    0  501  502  0.00000000000E+00  0.00000000000E+00  0.87419805242E+03  0.87419805242E+03  0.00000000000E+00 0.  1.
         21   -1    0    0  502  503 -0.00000000000E+00 -0.00000000000E+00 -0.50578187098E+02  0.50578187098E+02  0.00000000000E+00 0.  1.
         -6    2    1    2    0  503 -0.71146019903E+01  0.94165991479E+02  0.24061348108E+03  0.30963643572E+03  0.17047587375E+03 0.  0.
        -24    2    3    3    0    0 -0.35117916302E+02  0.59488260590E+01  0.58595868114E+02  0.10538425013E+03  0.80023170632E+02 0.  0.
          6    2    1    2  501    0  0.71146019903E+01 -0.94165991479E+02  0.58300638424E+03  0.61513980380E+03  0.17199617043E+03 0.  0.
         24    2    5    5    0    0 -0.21207987426E+02  0.85767244178E+01  0.25346377523E+03  0.26876045122E+03  0.86399976007E+02 0.  0.
          5    1    5    5  501    0  0.28322589417E+02 -0.10274271590E+03  0.32954260901E+03  0.34637935258E+03  0.47000000000E+01 0. -1.
        -11    1    6    6    0    0 -0.19566733815E+02 -0.28955590429E+02  0.45194151885E+02  0.57129630262E+02  0.00000000000E+00 0.  1.
         12    1    6    6    0    0 -0.16412536116E+01  0.37532314847E+02  0.20826962335E+03  0.21163082096E+03  0.00000000000E+00 0. -1.
         -5    1    3    3    0  503  0.28003314312E+02  0.88217165420E+02  0.18201761297E+03  0.20425218559E+03  0.47000000000E+01 0.  1.
         13    1    4    4    0    0  0.19399217593E+02 -0.17583587885E+02  0.80132768718E+01  0.27381103198E+02  0.00000000000E+00 0. -1.
        -14    1    4    4    0    0 -0.54517133894E+02  0.23532413944E+02  0.50582591242E+02  0.78003146929E+02  0.00000000000E+00 0.  1.
</event>
<event>
12    1  0.1061634E+000  0.2303871E+03  0.7818608E-02  0.1126770E+00
         21   -1    0    0  503  502  0.00000000000E+00  0.00000000000E+00  0.34829360476E+03  0.34829360476E+03  0.00000000000E+00 0. -1.
         21   -1    0    0  501  503 -0.00000000000E+00 -0.00000000000E+00 -0.43960641149E+03  0.43960641149E+03  0.00000000000E+00 0.  1.
          6    2    1    2  501    0  0.14204903541E+03 -0.52217007633E+02  0.27352390692E+03  0.35762206107E+03  0.17370568949E+03 0.  0.
         24    2    3    3    0    0  0.14152400078E+02 -0.54482132976E+02  0.15765274010E+03  0.18496373541E+03  0.78667678950E+02 0.  0.
         -6    2    1    2    0  502 -0.14204903541E+03  0.52217007633E+02 -0.36483671365E+03  0.43027795517E+03  0.17067145848E+03 0.  0.
        -24    2    5    5    0    0 -0.27679760398E+02 -0.19019207631E+02 -0.19117430287E+03  0.21042424848E+03  0.81257928077E+02 0.  0.
          5    1    3    3  501    0  0.12789663533E+03  0.22651253432E+01  0.11587116682E+03  0.17265832566E+03  0.47000000000E+01 0. -1.
        -13    1    4    4    0    0  0.11044733371E+02 -0.67483646109E+02  0.76045946511E+02  0.10226932389E+03  0.00000000000E+00 0.  1.
         14    1    4    4    0    0  0.31076667070E+01  0.13001513133E+02  0.81606793592E+02  0.82694411519E+02  0.00000000000E+00 0. -1.
         -5    1    5    5    0  502 -0.11436927501E+03  0.71236215264E+02 -0.17366241078E+03  0.21985370670E+03  0.47000000000E+01 0.  1.
         13    1    6    6    0    0 -0.51408155456E+01  0.26094393135E+02 -0.12172266999E+03  0.12459435673E+03  0.00000000000E+00 0. -1.
        -14    1    6    6    0    0 -0.22538944852E+02 -0.45113600766E+02 -0.69451632878E+02  0.85829891754E+02  0.00000000000E+00 0.  1.
</event>
<event>
12    1  0.1061634E+000  0.2195632E+03  0.7818608E-02  0.1134361E+00
         21   -1    0    0  501  502  0.00000000000E+00  0.00000000000E+00  0.12631025188E+03  0.12631025188E+03  0.00000000000E+00 0. -1.
         21   -1    0    0  502  503 -0.00000000000E+00 -0.00000000000E+00 -0.49571793861E+03  0.49571793861E+03  0.00000000000E+00 0. -1.
         -6    2    1    2    0  503  0.10713349660E+03 -0.83825992371E+02 -0.33454143101E+03  0.39971383122E+03  0.17131489928E+03 0.  0.
        -24    2    3    3    0    0  0.60999696872E+02 -0.10950418741E+02 -0.27563762792E+03  0.29516276844E+03  0.85463929582E+02 0.  0.
          6    2    1    2  501    0 -0.10713349660E+03  0.83825992371E+02 -0.34866255714E+02  0.22231435927E+03  0.17234742661E+03 0.  0.
         24    2    5    5    0    0 -0.11048613382E+03  0.11115343516E+03 -0.59337347906E+02  0.18518009398E+03  0.78793873075E+02 0.  0.
          5    1    5    5  501    0  0.33526372216E+01 -0.27327442787E+02  0.24471092191E+02  0.37134265290E+02  0.47000000000E+01 0. -1.
        -11    1    6    6    0    0 -0.31487824906E+02  0.72166330273E+02  0.40588435574E+00  0.78737710688E+02  0.00000000000E+00 0.  1.
         12    1    6    6    0    0 -0.78998308917E+02  0.38987104886E+02 -0.59743232261E+02  0.10644238329E+03  0.00000000000E+00 0. -1.
         -5    1    3    3    0  503  0.46133799728E+02 -0.72875573630E+02 -0.58903803089E+02  0.10455106278E+03  0.47000000000E+01 0.  1.
         11    1    4    4    0    0  0.42974119265E+02 -0.47828087129E+02 -0.17747741359E+03  0.18876581571E+03  0.00000000000E+00 0. -1.
        -12    1    4    4    0    0  0.18025577607E+02  0.36877668388E+02 -0.98160214333E+02  0.10639695274E+03  0.00000000000E+00 0.  1.
</event>
<event>
12    1  0.1061634E+000  0.2603189E+03  0.7818608E-02  0.1107076E+00
         21   -1    0    0  501  502  0.00000000000E+00  0.00000000000E+00  0.81004535929E+03  0.81004535929E+03  0.00000000000E+00 0.  1.
         21   -1    0    0  502  503 -0.00000000000E+00 -0.00000000000E+00 -0.91908097127E+02  0.91908097127E+02  0.00000000000E+00 0.  1.
         -6    2    1    2    0  503  0.18234971739E+03 -0.70918195563E+02  0.22231206631E+03  0.34232815855E+03  0.17171226926E+03 0.  0.
        -24    2    3    3    0    0  0.38495416240E+02 -0.63738210683E+02  0.13555665833E+03  0.17411935095E+03  0.79984274601E+02 0.  0.
          6    2    1    2  501    0 -0.18234971739E+03  0.70918195563E+02  0.49582519585E+03  0.55962529786E+03  0.17046125448E+03 0.  0.
         24    2    5    5    0    0 -0.81926161671E+02  0.77317217851E+02  0.38771866969E+03  0.41185876232E+03  0.81314359928E+02 0.  0.
          5    1    5    5  501    0 -0.10042355572E+03 -0.63990222877E+01  0.10810652615E+03  0.14776653554E+03  0.47000000000E+01 0. -1.
        -11    1    6    6    0    0  0.52433893619E+01  0.11744510500E+02  0.48352841930E+01  0.13740692563E+02  0.00000000000E+00 0.  1.
         12    1    6    6    0    0 -0.87169551033E+02  0.65572707351E+02  0.38288338550E+03  0.39811806976E+03  0.00000000000E+00 0. -1.
         -5    1    3    3    0  503  0.14385430115E+03 -0.71799848802E+01  0.86755407982E+02  0.16820880760E+03  0.47000000000E+01 0.  1.
         11    1    4    4    0    0  0.44823885757E+02 -0.66835685638E+02  0.14286272585E+03  0.16396935094E+03  0.00000000000E+00 0. -1.
        -12    1    4    4    0    0 -0.63284695172E+01  0.30974749555E+01 -0.73060675214E+01  0.10150000008E+02  0.00000000000E+00 0.  1.
</event>
<event>
12    1  0.1061634E+000  0.2017184E+03  0.7818608E-02  0.1149162E+00
         21   -1    0    0  503  502  0.00000000000E+00  0.00000000000E+00  0.35264091065E+03  0.35264091065E+03  0.00000000000E+00 0. -1.
         21   -1    0    0  501  503 -0.00000000000E+00 -0.00000000000E+00 -0.15339948663E+03  0.15339948663E+03  0.00000000000E+00 0. -1.
          6    2    1    2  501    0 -0.87408085956E+02 -0.52122234603E+02  0.23013063263E+03  0.30602356977E+03  0.17416491136E+03 0.  0.
         24    2    3    3    0    0 -0.10598706428E+03 -0.63646539467E+02  0.11698338260E+03  0.19068763336E+03  0.85979776289E+02 0.  0.
         -6    2    1    2    0  502  0.87408085956E+02  0.52122234603E+02 -0.30889208609E+02  0.20001682750E+03  0.16939801429E+03 0.  0.
        -24    2    5    5    0    0  0.49787572076E+02  0.40167389207E+02 -0.84006456798E+02  0.13367111590E+03  0.81967438370E+02 0.  0.
          5    1    3    3  501    0  0.18578978328E+02  0.11524304864E+02  0.11314725003E+03  0.11533593641E+03  0.47000000000E+01 0. -1.
        -13    1    4    4    0    0 -0.59133493117E+02  0.11934046951E+02  0.59927147152E+02  0.85032078950E+02  0.00000000000E+00 0.  1.
         14    1    4    4    0    0 -0.46853571166E+02 -0.75580586418E+02  0.57056235450E+02  0.10565555441E+03  0.00000000000E+00 0. -1.
         -5    1    5    5    0  502  0.37620513880E+02  0.11954845396E+02  0.53117248190E+02  0.66345711604E+02  0.47000000000E+01 0.  1.
         13    1    6    6    0    0 -0.23855632815E+01 -0.16846175295E+02  0.30230782261E+01  0.17280727306E+02  0.00000000000E+00 0. -1.
        -14    1    6    6    0    0  0.52173135357E+02  0.57013564502E+02 -0.87029535025E+02  0.11639038859E+03  0.00000000000E+00 0.  1.
</event>
<event>
12    1  0.1061634E+000  0.2650101E+03  0.7818608E-02  0.1104182E+00
         21   -1    0    0  501  502  0.00000000000E+00  0.00000000000E+00  0.13487113691E+03  0.13487113691E+03  0.00000000000E+00 0.  1.
         21   -1    0    0  502  503 -0.00000000000E+00 -0.00000000000E+00 -0.10151641064E+04  0.10151641064E+04  0.00000000000E+00 0.  1.
         -6    2    1    2    0  503  0.17175697134E+03 -0.10429319926E+03 -0.38814809248E+02  0.26783757078E+03  0.17277976238E+03 0.  0.
        -24    2    3    3    0    0  0.14537618603E+03 -0.11724934059E+03  0.18094663136E+02  0.20361463501E+03  0.79056052420E+02 0.  0.
          6    2    1    2  501    0 -0.17175697134E+03  0.10429319926E+03 -0.84147816020E+03  0.88219767249E+03  0.17265488884E+03 0.  0.
         24    2    5    5    0    0 -0.15058457089E+03  0.14589953836E+02 -0.62029407055E+03  0.64253241783E+03  0.72073533647E+02 0.  0.
          5    1    5    5  501    0 -0.21172400452E+02  0.89703245427E+02 -0.22118408965E+03  0.23966525466E+03  0.47000000000E+01 0. -1.
        -11    1    6    6    0    0 -0.13641704283E+03  0.13312522456E+02 -0.42140786963E+03  0.44313815612E+03  0.00000000000E+00 0.  1.
         12    1    6    6    0    0 -0.14167528066E+02  0.12774313800E+01 -0.19888620093E+03  0.19939426170E+03  0.00000000000E+00 0. -1.
         -5    1    3    3    0  503  0.26380785318E+02  0.12956141328E+02 -0.56909472384E+02  0.64222935772E+02  0.47000000000E+01 0.  1.
         11    1    4    4    0    0  0.13185633122E+03 -0.62676484135E+02  0.60716003339E+01  0.14612083383E+03  0.00000000000E+00 0. -1.
        -12    1    4    4    0    0  0.13519854802E+02 -0.54572856456E+02  0.12023062802E+02  0.57493801185E+02  0.00000000000E+00 0.  1.
</event>
<event>
12    1  0.1061634E+000  0.2048865E+03  0.7818608E-02  0.1146033E+00
         21   -1    0    0  501  502  0.00000000000E+00  0.00000000000E+00  0.91340357774E+02  0.91340357774E+02  0.00000000000E+00 0.  1.
         21   -1    0    0  502  503 -0.00000000000E+00 -0.00000000000E+00 -0.85985113023E+03  0.85985113023E+03  0.00000000000E+00 0.  1.
         -6    2    1    2    0  503 -0.49349102840E+01  0.10879336136E+03 -0.70944119186E+03  0.73795995314E+03  0.17151600191E+03 0.  0.
        -24    2    3    3    0    0 -0.30308949912E+02  0.93743677028E+01 -0.35532246595E+03  0.36924578169E+03  0.95298904879E+02 0.  0.
          6    2    1    2  501    0  0.49349102840E+01 -0.10879336136E+03 -0.59069580597E+02  0.21323153487E+03  0.17354573834E+03 0.  0.
         24    2    5    5    0    0 -0.61758391660E+02 -0.57730063178E+02 -0.13143757376E+02  0.11738411349E+03  0.80370470995E+02 0.  0.
          5    1    5    5  501    0  0.66693301944E+02 -0.51063298183E+02 -0.45925823221E+02  0.95847421374E+02  0.47000000000E+01 0. -1.
        -11    1    6    6    0    0 -0.81691506315E+01 -0.39635717115E+02 -0.38081439192E+02  0.55569066073E+02  0.00000000000E+00 0.  1.
         12    1    6    6    0    0 -0.53589241029E+02 -0.18094346063E+02  0.24937681815E+02  0.61815047422E+02  0.00000000000E+00 0. -1.
         -5    1    3    3    0  503  0.25374039628E+02  0.99418993658E+02 -0.35411872591E+03  0.36871417145E+03  0.47000000000E+01 0.  1.
         11    1    4    4    0    0 -0.49918401345E+01  0.74165293042E+01 -0.33887240086E+03  0.33899030582E+03  0.00000000000E+00 0. -1.
        -12    1    4    4    0    0 -0.25317109778E+02  0.19578383987E+01 -0.16450065095E+02  0.30255475873E+02  0.00000000000E+00 0.  1.
</event>
<event>
12    1  0.1061634E+000  0.1849532E+03  0.7818608E-02  0.1163168E+00
         21   -1    0    0  503  502  0.00000000000E+00  0.00000000000E+00  0.10995205253E+03  0.10995205253E+03  0.00000000000E+00 0.  1.
         21   -1    0    0  501  503 -0.00000000000E+00 -0.00000000000E+00 -0.31903948412E+03  0.31903948412E+03  0.00000000000E+00 0.  1.
          6    2    1    2  501    0 -0.21774832597E+02 -0.64392607649E+02 -0.69698523774E+02  0.19765008403E+03  0.17200907025E+03 0.  0.
         24    2    3    3    0    0 -0.26518879940E+02 -0.41036427213E+02  0.27735955781E+02  0.97233028930E+02  0.79358297110E+02 0.  0.
         -6    2    1    2    0  502  0.21774832597E+02  0.64392607649E+02 -0.13938890782E+03  0.23134145261E+03  0.17166551436E+03 0.  0.
        -24    2    5    5    0    0 -0.45650603533E+02  0.38318576452E+02 -0.35179823226E+02  0.10442546524E+03  0.78196975156E+02 0.  0.
          5    1    3    3  501    0  0.47440473432E+01 -0.23356180436E+02 -0.97434479554E+02  0.10041705510E+03  0.47000000000E+01 0. -1.
        -11    1    4    4    0    0 -0.45807530350E+02 -0.53341314968E+02  0.20589496681E+02  0.73263586405E+02  0.00000000000E+00 0.  1.
         12    1    4    4    0    0  0.19288650410E+02  0.12304887755E+02  0.71464590995E+01  0.23969442525E+02  0.00000000000E+00 0. -1.
         -5    1    5    5    0  502  0.67425436129E+02  0.26074031198E+02 -0.10420908459E+03  0.12691598738E+03  0.47000000000E+01 0.  1.
         11    1    6    6    0    0 -0.20980381293E+02  0.58642303134E+02 -0.86378885981E+01  0.62878527619E+02  0.00000000000E+00 0. -1.
        -12    1    6    6    0    0 -0.24670222240E+02 -0.20323726682E+02 -0.26541934628E+02  0.41546937618E+02  0.00000000000E+00 0.  1.
</event>
<event>
12    1  0.1061634E+000  0.1934899E+03  0.7818608E-02  0.1155522E+00
         21   -1    0    0  503  502  0.00000000000E+00  0.00000000000E+00  0.79874919510E+02  0.79874919510E+02  0.00000000000E+00 0.  1.
         21   -1    0    0  501  503 -0.00000000000E+00 -0.00000000000E+00 -0.46701585501E+03  0.46701585501E+03  0.00000000000E+00 0.  1.
          6    2    1    2  501    0 -0.47485514394E+02  0.74072098792E+02 -0.18855260593E+03  0.27016743831E+03  0.17232762293E+03 0.  0.
         24    2    3    3    0    0  0.20895039646E+02  0.89721643877E+02 -0.10306932586E+03  0.15948641192E+03  0.79536492199E+02 0.  0.
         -6    2    1    2    0  502  0.47485514394E+02 -0.74072098792E+02 -0.19858832957E+03  0.27672333621E+03  0.17145533023E+03 0.  0.
        -24    2    5    5    0    0  0.26179383293E+02 -0.39546224632E+02 -0.22257737430E+02  0.95724565678E+02  0.80115676410E+02 0.  0.
          5    1    3    3  501    0 -0.68380554040E+02 -0.15649545085E+02 -0.85483280070E+02  0.11068102639E+03  0.47000000000E+01 0. -1.
        -11    1    4    4    0    0  0.15448196134E+02  0.31197810399E+02  0.62482729266E+01  0.35369351875E+02  0.00000000000E+00 0.  1.
         12    1    4    4    0    0  0.54468435128E+01  0.58523833478E+02 -0.10931759879E+03  0.12411706004E+03  0.00000000000E+00 0. -1.
         -5    1    5    5    0  502  0.21306131101E+02 -0.34525874160E+02 -0.17633059214E+03  0.18099877053E+03  0.47000000000E+01 0.  1.
         11    1    6    6    0    0 -0.11904783598E+02 -0.30376191588E+02 -0.40919412863E+02  0.52333882303E+02  0.00000000000E+00 0. -1.
        -12    1    6    6    0    0  0.38084166891E+02 -0.91700330441E+01  0.18661675433E+02  0.43390683375E+02  0.00000000000E+00 0.  1.
</event>
<event>
12    1  0.1061634E+000  0.3146346E+03  0.7818608E-02  0.1078319E+00
         21   -1    0    0  501  502  0.00000000000E+00  0.00000000000E+00  0.12561720310E+03  0.12561720310E+03  0.00000000000E+00 0.  1.
         21   -1    0    0  502  503 -0.00000000000E+00 -0.00000000000E+00 -0.89808027059E+03  0.89808027059E+03  0.00000000000E+00 0.  1.
         -6    2    1    2    0  503  0.62855243855E+01  0.26253181474E+03 -0.20331503662E+03  0.37337109826E+03  0.17060630508E+03 0.  0.
        -24    2    3    3    0    0 -0.32359381451E+02  0.58775533596E+02 -0.72254600831E+02  0.12799591883E+03  0.81612100683E+02 0.  0.
          6    2    1    2  501    0 -0.62855243855E+01 -0.26253181474E+03 -0.56914803086E+03  0.65032637543E+03  0.17329873625E+03 0.  0.
         24    2    5    5    0    0  0.34043876684E+02 -0.25710099185E+03 -0.46527214732E+03  0.53866508577E+03  0.80137369611E+02 0.  0.
          5    1    5    5  501    0 -0.40329401069E+02 -0.54308228922E+01 -0.10387588354E+03  0.11166128966E+03  0.47000000000E+01 0. -1.
        -11    1    6    6    0    0  0.20974712443E+02 -0.62222502175E+02 -0.19087281015E+03  0.20185145031E+03  0.00000000000E+00 0.  1.
         12    1    6    6    0    0  0.13069164241E+02 -0.19487848967E+03 -0.27439933717E+03  0.33681363545E+03  0.00000000000E+00 0. -1.
         -5    1    3    3    0  503  0.38644905836E+02  0.20375628114E+03 -0.13106043579E+03  0.24537517943E+03  0.47000000000E+01 0.  1.
         11    1    4    4    0    0  0.29848160353E+01  0.24167336379E+02 -0.74600048575E+02  0.78473795128E+02  0.00000000000E+00 0. -1.
        -12    1    4    4    0    0 -0.35344197486E+02  0.34608197218E+02  0.23454477439E+01  0.49522123700E+02  0.00000000000E+00 0.  1.
</event>
<event>
12    1  0.1061634E+000  0.2429291E+03  0.7818608E-02  0.1118387E+00
         21   -1    0    0  503  502  0.00000000000E+00  0.00000000000E+00  0.51462895138E+02  0.51462895138E+02  0.00000000000E+00 0. -1.
         21   -1    0    0  501  503 -0.00000000000E+00 -0.00000000000E+00 -0.13614462764E+04  0.13614462764E+04  0.00000000000E+00 0. -1.
          6    2    1    2  501    0 -0.16515123345E+03 -0.49873825859E+02 -0.36837274164E+03  0.44126299651E+03  0.17103282404E+03 0.  0.
         24    2    3    3    0    0 -0.17526915996E+03 -0.80971460702E+02 -0.27126880989E+03  0.33869253834E+03  0.62050079992E+02 0.  0.
         -6    2    1    2    0  502  0.16515123345E+03  0.49873825859E+02 -0.94161063965E+03  0.97164617504E+03  0.16644327672E+03 0.  0.
        -24    2    5    5    0    0  0.78441604406E+02 -0.30337678047E+02 -0.35910281513E+03  0.37726422650E+03  0.79372569281E+02 0.  0.
          5    1    3    3  501    0  0.10117926509E+02  0.31097634843E+02 -0.97103931750E+02  0.10257045818E+03  0.47000000000E+01 0. -1.
        -13    1    4    4    0    0 -0.65885429734E+02 -0.41701059411E+01 -0.63178171038E+02  0.91377026273E+02  0.00000000000E+00 0.  1.
         14    1    4    4    0    0 -0.10938373022E+03 -0.76801354761E+02 -0.20809063885E+03  0.24731551206E+03  0.00000000000E+00 0. -1.
         -5    1    5    5    0  502  0.86709629043E+02  0.80211503905E+02 -0.58250782452E+03  0.59438194854E+03  0.47000000000E+01 0.  1.
         13    1    6    6    0    0 -0.46619903909E+01 -0.25388327537E+02 -0.41007811984E+02  0.48455567000E+02  0.00000000000E+00 0. -1.
        -14    1    6    6    0    0  0.83103594797E+02 -0.49493505097E+01 -0.31809500315E+03  0.32880865950E+03  0.00000000000E+00 0.  1.
</event>
<event>
12    1  0.1061634E+000  0.2041129E+03  0.7818608E-02  0.1146980E+00
         21   -1    0    0  501  502  0.00000000000E+00  0.00000000000E+00  0.23322288549E+03  0.23322288549E+03  0.00000000000E+00 0. -1.
         21   -1    0    0  502  503 -0.00000000000E+00 -0.00000000000E+00 -0.18824706829E+03  0.18824706829E+03  0.00000000000E+00 0. -1.
         -6    2    1    2    0  503 -0.96943202764E+02  0.47369620469E+02 -0.31785144477E+02  0.20340041611E+03  0.16946848781E+03 0.  0.
        -24    2    3    3    0    0 -0.72608769908E+01  0.47084952038E+02  0.42203114960E+02  0.87041690069E+02  0.59375414564E+02 0.  0.
          6    2    1    2  501    0  0.96943202764E+02 -0.47369620469E+02  0.76760961678E+02  0.21806953766E+03  0.17326341943E+03 0.  0.
         24    2    5    5    0    0  0.11607586596E+03 -0.79834147882E+02  0.78581761658E+02  0.18005099411E+03  0.79976055100E+02 0.  0.
          5    1    5    5  501    0 -0.19132663195E+02  0.32464527413E+02 -0.18207999803E+01  0.38018543550E+02  0.47000000000E+01 0. -1.
        -13    1    6    6    0    0  0.61321943221E+02  0.32055396354E+01  0.19826324453E+02  0.64527043525E+02  0.00000000000E+00 0.  1.
         14    1    6    6    0    0  0.54753922738E+02 -0.83039687517E+02  0.58755437205E+02  0.11552395059E+03  0.00000000000E+00 0. -1.
         -5    1    3    3    0  503 -0.89682325773E+02  0.28466843064E+00 -0.73988259437E+02  0.11635872604E+03  0.47000000000E+01 0.  1.
         11    1    4    4    0    0  0.16841680453E+02  0.22466291000E+02  0.44384028134E+02  0.52519695212E+02  0.00000000000E+00 0. -1.
        -12    1    4    4    0    0 -0.24102557444E+02  0.24618661038E+02 -0.21809131737E+01  0.34521994857E+02  0.00000000000E+00 0.  1.
</event>
<event>
12    1  0.1061634E+000  0.3593170E+03  0.7818608E-02  0.1058911E+00
         21   -1    0    0  503  502  0.00000000000E+00  0.00000000000E+00  0.83380043497E+02  0.83380043497E+02  0.00000000000E+00 0.  1.
         21   -1    0    0  501  503 -0.00000000000E+00 -0.00000000000E+00 -0.15982501017E+04  0.15982501017E+04  0.00000000000E+00 0.  1.
          6    2    1    2  501    0 -0.29382478148E+02 -0.31315121053E+03 -0.60595261786E+03  0.70447660651E+03  0.17372882131E+03 0.  0.
         24    2    3    3    0    0  0.35362137455E+02 -0.24990233953E+03 -0.40229892085E+03  0.48156585478E+03  0.79747041979E+02 0.  0.
         -6    2    1    2    0  502  0.29382478148E+02  0.31315121053E+03 -0.90891744032E+03  0.97715353866E+03  0.17254307903E+03 0.  0.
        -24    2    5    5    0    0 -0.32046303250E+02  0.21065630925E+03 -0.47529714590E+03  0.52734541323E+03  0.82357524087E+02 0.  0.
          5    1    3    3  501    0 -0.64744615603E+02 -0.63248870995E+02 -0.20365369700E+03  0.22291075173E+03  0.47000000000E+01 0. -1.
        -13    1    4    4    0    0  0.19556942592E+02 -0.75255982196E+02 -0.19568268902E+03  0.21056507697E+03  0.00000000000E+00 0.  1.
         14    1    4    4    0    0  0.15805194863E+02 -0.17464635734E+03 -0.20661623184E+03  0.27100077781E+03  0.00000000000E+00 0. -1.
         -5    1    5    5    0  502  0.61428781398E+02  0.10249490128E+03 -0.43362029442E+03  0.44980812543E+03  0.47000000000E+01 0.  1.
         13    1    6    6    0    0 -0.16049265760E+02  0.22925988611E+02 -0.19406897560E+02  0.34055947471E+02  0.00000000000E+00 0. -1.
        -14    1    6    6    0    0 -0.15997037490E+02  0.18773032064E+03 -0.45589024835E+03  0.49328946576E+03  0.00000000000E+00 0.  1.
</event>
<event>
12    1  0.1061634E+000  0.1979920E+03  0.7818608E-02  0.1151709E+00
         21   -1    0    0  503  502  0.00000000000E+00  0.00000000000E+00  0.38135998633E+03  0.38135998633E+03  0.00000000000E+00 0.  1.
         21   -1    0    0  501  503 -0.00000000000E+00 -0.00000000000E+00 -0.22874254994E+03  0.22874254994E+03  0.00000000000E+00 0.  1.
          6    2    1    2  501    0  0.70836298110E+02 -0.65317300115E+02  0.30313591578E+03  0.36139260616E+03  0.17154912279E+03 0.  0.
         24    2    3    3    0    0  0.88872642313E+02 -0.96067743268E+01  0.13578921662E+03  0.18403426800E+03  0.86251166853E+02 0.  0.
         -6    2    1    2    0  502 -0.70836298110E+02  0.65317300115E+02 -0.15051847938E+03  0.24870993012E+03  0.17296440639E+03 0.  0.
        -24    2    5    5    0    0 -0.10677892324E+03  0.11521496960E+02 -0.10499274598E+03  0.16946005226E+03  0.78477699154E+02 0.  0.
          5    1    3    3  501    0 -0.18036344203E+02 -0.55710525788E+02  0.16734669916E+03  0.17735833816E+03  0.47000000000E+01 0. -1.
        -11    1    4    4    0    0  0.41926693494E+01  0.13539097285E+02 -0.74670171683E+01  0.16020049219E+02  0.00000000000E+00 0.  1.
         12    1    4    4    0    0  0.84679972963E+02 -0.23145871612E+02  0.14325623378E+03  0.16801421878E+03  0.00000000000E+00 0. -1.
         -5    1    5    5    0  502  0.35942625128E+02  0.53795803155E+02 -0.45525733405E+02  0.79249877857E+02  0.47000000000E+01 0.  1.
         13    1    6    6    0    0 -0.15043388875E+02  0.32252530874E+02 -0.12965303337E+02  0.37876488581E+02  0.00000000000E+00 0. -1.
        -14    1    6    6    0    0 -0.91735534363E+02 -0.20731033913E+02 -0.92027442641E+02  0.13158356368E+03  0.00000000000E+00 0.  1.
</event>
<event>
12    1  0.1061634E+000  0.1807045E+03  0.7818608E-02  0.1168110E+00
         21   -1    0    0  501  502  0.00000000000E+00  0.00000000000E+00  0.57617004309E+02  0.57617004309E+02  0.00000000000E+00 0.  1.
         21   -1    0    0  502  503 -0.00000000000E+00 -0.00000000000E+00 -0.55947033037E+03  0.55947033037E+03  0.00000000000E+00 0.  1.
         -6    2    1    2    0  503  0.54015157955E+02  0.18592769959E+02 -0.21791784941E+03  0.28052606744E+03  0.16716266640E+03 0.  0.
        -24    2    3    3    0    0 -0.28591018665E+02  0.33334713806E+02 -0.13929596691E+03  0.16544090014E+03  0.77708915508E+02 0.  0.
          6    2    1    2  501    0 -0.54015157955E+02 -0.18592769959E+02 -0.28393547665E+03  0.33656126724E+03  0.17143746184E+03 0.  0.
         24    2    5    5    0    0 -0.90991265240E+01  0.18465118558E+02 -0.26118437985E+03  0.27386805081E+03  0.79766373041E+02 0.  0.
          5    1    5    5  501    0 -0.44916031431E+02 -0.37057888517E+02 -0.22751096798E+02  0.62693216431E+02  0.47000000000E+01 0. -1.
        -11    1    6    6    0    0  0.10858844436E+02 -0.19856131890E+02 -0.18422114856E+03  0.18560606686E+03  0.00000000000E+00 0.  1.
         12    1    6    6    0    0 -0.19957970960E+02  0.38321250448E+02 -0.76963231291E+02  0.88261983954E+02  0.00000000000E+00 0. -1.
         -5    1    3    3    0  503  0.82606176620E+02 -0.14741943847E+02 -0.78621882501E+02  0.11508516730E+03  0.47000000000E+01 0.  1.
         11    1    4    4    0    0  0.19785791718E+02 -0.10029043828E+02 -0.21360079466E+02  0.30794679229E+02  0.00000000000E+00 0. -1.
        -12    1    4    4    0    0 -0.48376810383E+02  0.43363757634E+02 -0.11793588745E+03  0.13464622091E+03  0.00000000000E+00 0.  1.
</event>
<event>
12    1  0.1061634E+000  0.2085948E+03  0.7818608E-02  0.1143301E+00
         21   -1    0    0  501  502  0.00000000000E+00  0.00000000000E+00  0.97380273952E+02  0.97380273952E+02  0.00000000000E+00 0. -1.
         21   -1    0    0  502  503 -0.00000000000E+00 -0.00000000000E+00 -0.79282137534E+03  0.79282137534E+03  0.00000000000E+00 0. -1.
         -6    2    1    2    0  503  0.16618208160E+02  0.10941697784E+03 -0.52345702065E+02  0.21506248046E+03  0.17681503923E+03 0.  0.
        -24    2    3    3    0    0 -0.53605672174E+02  0.38498413547E+02 -0.21714295303E+01  0.10325736540E+03  0.79383074194E+02 0.  0.
          6    2    1    2  501    0 -0.16618208160E+02 -0.10941697784E+03 -0.64309539932E+03  0.67513916883E+03  0.17318477061E+03 0.  0.
         24    2    5    5    0    0 -0.49929068289E+02 -0.13383287856E+03 -0.49823459292E+03  0.52443252384E+03  0.79922532726E+02 0.  0.
          5    1    5    5  501    0  0.33310860129E+02  0.24415900726E+02 -0.14486080640E+03  0.15070664498E+03  0.47000000000E+01 0. -1.
        -11    1    6    6    0    0  0.16870521043E+02 -0.51408308442E+02 -0.22268756215E+03  0.22916626932E+03  0.00000000000E+00 0.  1.
         12    1    6    6    0    0 -0.66799589332E+02 -0.82424570120E+02 -0.27554703077E+03  0.29526625452E+03  0.00000000000E+00 0. -1.
         -5    1    3    3    0  503  0.70223880334E+02  0.70918564288E+02 -0.50174272535E+02  0.11180511506E+03  0.47000000000E+01 0.  1.
         11    1    4    4    0    0  0.69639661359E+01 -0.14606307016E+02 -0.14547211695E+02  0.21759191095E+02  0.00000000000E+00 0. -1.
        -12    1    4    4    0    0 -0.60569638310E+02  0.53104720563E+02  0.12375782165E+02  0.81498174307E+02  0.00000000000E+00 0.  1.
</event>
<event>
12    1  0.1061634E+000  0.2094633E+03  0.7818608E-02  0.1142184E+00
         21   -1    0    0  501  502  0.00000000000E+00  0.00000000000E+00  0.10446762421E+04  0.10446762421E+04  0.00000000000E+00 0.  1.
         21   -1    0    0  502  503 -0.00000000000E+00 -0.00000000000E+00 -0.43211917692E+02  0.43211917692E+02  0.00000000000E+00 0.  1.
         -6    2    1    2    0  503  0.52919739161E+02  0.10830480203E+03  0.59998263854E+03  0.63549512176E+03  0.17130223084E+03 0.  0.
        -24    2    3    3    0    0  0.84225148165E+02  0.32944883125E+02  0.35676523138E+03  0.37890996405E+03  0.90067139546E+02 0.  0.
          6    2    1    2  501    0 -0.52919739161E+02 -0.10830480203E+03  0.40148168587E+03  0.45239303804E+03  0.17012197930E+03 0.  0.
         24    2    5    5    0    0 -0.25715462133E+02 -0.29727328889E+02  0.33248991259E+03  0.34424292590E+03  0.80054050406E+02 0.  0.
          5    1    5    5  501    0 -0.27204277028E+02 -0.78577473142E+02  0.68991773279E+02  0.10815011213E+03  0.47000000000E+01 0. -1.
        -11    1    6    6    0    0 -0.25270938604E+02 -0.46586785769E+02  0.12120614301E+03  0.13228710462E+03  0.00000000000E+00 0.  1.
         12    1    6    6    0    0 -0.44452352901E+00  0.16859456880E+02  0.21128376958E+03  0.21195582128E+03  0.00000000000E+00 0. -1.
         -5    1    3    3    0  503 -0.31305409004E+02  0.75359918906E+02  0.24321740716E+03  0.25658515771E+03  0.47000000000E+01 0.  1.
         11    1    4    4    0    0 -0.12947260835E+02 -0.65937571312E+01  0.13010560517E+02  0.19503432550E+02  0.00000000000E+00 0. -1.
        -12    1    4    4    0    0  0.97172409000E+02  0.39538640256E+02  0.34375467087E+03  0.35940653150E+03  0.00000000000E+00 0.  1.
</event>
<event>
12    1  0.1061634E+000  0.2032428E+03  0.7818608E-02  0.1147041E+00
         21   -1    0    0  501  502  0.00000000000E+00  0.00000000000E+00  0.75762809198E+03  0.75762809198E+03  0.00000000000E+00 0.  1.
         21   -1    0    0  502  503 -0.00000000000E+00 -0.00000000000E+00 -0.54562136047E+02  0.54562136047E+02  0.00000000000E+00 0.  1.
         -6    2    1    2    0  503  0.89839141620E+02  0.61221606179E+02  0.36410850600E+03  0.41699235544E+03  0.17172205426E+03 0.  0.
        -24    2    3    3    0    0  0.44809073884E+02  0.91101984671E+02  0.15719594868E+03  0.20308714186E+03  0.78907516703E+02 0.  0.
          6    2    1    2  501    0 -0.89839141620E+02 -0.61221606179E+02  0.33895744993E+03  0.39519787259E+03  0.17166842810E+03 0.  0.
         24    2    5    5    0    0 -0.39988069764E+00 -0.77196737774E+02  0.22328254644E+03  0.24803347635E+03  0.75538160006E+02 0.  0.
          5    1    5    5  501    0 -0.89439260922E+02  0.15975131595E+02  0.11567490349E+03  0.14716439624E+03  0.47000000000E+01 0. -1.
        -11    1    6    6    0    0  0.22536041076E+02 -0.60652167734E+01  0.17710682336E+02  0.29297239984E+02  0.00000000000E+00 0.  1.
         12    1    6    6    0    0 -0.22935921773E+02 -0.71131521000E+02  0.20557186411E+03  0.21873623637E+03  0.00000000000E+00 0. -1.
         -5    1    3    3    0  503  0.45030067735E+02 -0.29880378493E+02  0.20691255732E+03  0.21390521358E+03  0.47000000000E+01 0.  1.
         11    1    4    4    0    0  0.82833389252E+01  0.91581513512E+02  0.10884471442E+03  0.14248845279E+03  0.00000000000E+00 0. -1.
        -12    1    4    4    0    0  0.36525734959E+02 -0.47952884035E+00  0.48351234262E+02  0.60598689069E+02  0.00000000000E+00 0.  1.
</event>
<event>
12    1  0.1061634E+000  0.2087440E+03  0.7818608E-02  0.1143217E+00
         21   -1    0    0  503  502  0.00000000000E+00  0.00000000000E+00  0.46224473103E+03  0.46224473103E+03  0.00000000000E+00 0.  1.
         21   -1    0    0  501  503 -0.00000000000E+00 -0.00000000000E+00 -0.94180023350E+02  0.94180023350E+02  0.00000000000E+00 0.  1.
          6    2    1    2  501    0 -0.70828971207E+02  0.94092169118E+02  0.21618887599E+03  0.29827690947E+03  0.16840844746E+03 0.  0.
         24    2    3    3    0    0 -0.49949405480E+02 -0.70728178856E+01  0.13436934594E+03  0.16641775599E+03  0.84230520122E+02 0.  0.
         -6    2    1    2    0  502  0.70828971207E+02 -0.94092169118E+02  0.15187583169E+03  0.25814784490E+03  0.17234837430E+03 0.  0.
        -24    2    5    5    0    0  0.95620590215E+02 -0.76848026022E+02  0.16848817483E+03  0.22336214686E+03  0.80333475050E+02 0.  0.
          5    1    3    3  501    0 -0.20879565727E+02  0.10116498700E+03  0.81819530042E+02  0.13185915348E+03  0.47000000000E+01 0. -1.
        -13    1    4    4    0    0 -0.64467048604E+02  0.19345723285E+02  0.10180199303E+03  0.12204057993E+03  0.00000000000E+00 0.  1.
         14    1    4    4    0    0  0.14517643124E+02 -0.26418541171E+02  0.32567352912E+02  0.44377176061E+02  0.00000000000E+00 0. -1.
         -5    1    5    5    0  502 -0.24791619008E+02 -0.17244143096E+02 -0.16612343138E+02  0.34785698048E+02  0.47000000000E+01 0.  1.
         11    1    6    6    0    0  0.63585910188E+02 -0.72387880957E+02  0.68351784845E+02  0.11813187451E+03  0.00000000000E+00 0. -1.
        -12    1    6    6    0    0  0.32034680027E+02 -0.44601450650E+01  0.10013638999E+03  0.10523027235E+03  0.00000000000E+00 0.  1.
</event>
<event>
12    1  0.1061634E+000  0.8833004E+03  0.7818608E-02  0.9446705E-01
         21   -1    0    0  501  502  0.00000000000E+00  0.00000000000E+00  0.19761733484E+04  0.19761733484E+04  0.00000000000E+00 0. -1.
         21   -1    0    0  502  503 -0.00000000000E+00 -0.00000000000E+00 -0.41842515142E+03  0.41842515142E+03  0.00000000000E+00 0.  1.
         -6    2    1    2    0  503  0.65473295384E+03  0.56724557421E+03  0.10633233476E+04  0.13823359463E+04  0.17249157801E+03 0.  0.
        -24    2    3    3    0    0  0.61927254491E+03  0.57192866100E+03  0.10106138351E+04  0.13184629895E+04  0.80021576702E+02 0.  0.
          6    2    1    2  501    0 -0.65473295384E+03 -0.56724557421E+03  0.49442484939E+03  0.10122625536E+04  0.17255944876E+03 0.  0.
         24    2    5    5    0    0 -0.47379451173E+03 -0.33839171674E+03  0.37186034802E+03  0.69578671735E+03  0.82757744707E+02 0.  0.
          5    1    5    5  501    0 -0.18093844210E+03 -0.22885385747E+03  0.12256450137E+03  0.31647583621E+03  0.47000000000E+01 0. -1.
        -13    1    6    6    0    0 -0.26864468788E+03 -0.22101380758E+03  0.18193581932E+03  0.39257829005E+03  0.00000000000E+00 0.  1.
         14    1    6    6    0    0 -0.20514982385E+03 -0.11737790916E+03  0.18992452870E+03  0.30320842730E+03  0.00000000000E+00 0. -1.
         -5    1    3    3    0  503  0.35460408922E+02 -0.46830867862E+01  0.52709512464E+02  0.63872956774E+02  0.47000000000E+01 0.  1.
         11    1    4    4    0    0  0.13982329030E+02  0.22751040095E+02  0.16006534077E+02  0.31133976355E+02  0.00000000000E+00 0. -1.
        -12    1    4    4    0    0  0.60529021588E+03  0.54917762091E+03  0.99460730107E+03  0.12873290131E+04  0.00000000000E+00 0.  1.
</event>
<event>
12    1  0.1061634E+000  0.2159411E+03  0.7818608E-02  0.1138275E+00
         21   -1    0    0  503  502  0.00000000000E+00  0.00000000000E+00  0.11524934118E+03  0.11524934118E+03  0.00000000000E+00 0. -1.
         21   -1    0    0  501  503 -0.00000000000E+00 -0.00000000000E+00 -0.71388682495E+03  0.71388682495E+03  0.00000000000E+00 0. -1.
          6    2    1    2  501    0  0.12396987258E+03  0.14228462122E+02 -0.58036976429E+03  0.61924116425E+03  0.17623727689E+03 0.  0.
         24    2    3    3    0    0  0.31405588730E+02 -0.41207871416E+02 -0.17345781128E+03  0.19824144784E+03  0.80793933416E+02 0.  0.
         -6    2    1    2    0  502 -0.12396987258E+03 -0.14228462122E+02 -0.18267719481E+02  0.20989500188E+03  0.16778326435E+03 0.  0.
        -24    2    5    5    0    0 -0.54149946468E+02 -0.68777948739E+02 -0.20546265636E+02  0.12113831004E+03  0.81177079238E+02 0.  0.
          5    1    3    3  501    0  0.92564283852E+02  0.55436333538E+02 -0.40691195301E+03  0.42099971642E+03  0.47000000000E+01 0. -1.
        -11    1    4    4    0    0  0.41202547793E+02 -0.55289741141E+02 -0.16558154308E+03  0.17936513828E+03  0.00000000000E+00 0.  1.
         12    1    4    4    0    0 -0.97969590630E+01  0.14081869725E+02 -0.78762681949E+01  0.18876309557E+02  0.00000000000E+00 0. -1.
         -5    1    5    5    0  502 -0.69819926113E+02  0.54549486616E+02  0.22785461553E+01  0.88756691833E+02  0.47000000000E+01 0.  1.
         11    1    6    6    0    0 -0.50364594799E+02 -0.40526096694E+02 -0.48805847064E+02  0.80999800186E+02  0.00000000000E+00 0. -1.
        -12    1    6    6    0    0 -0.37853516698E+01 -0.28251852045E+02  0.28259581428E+02  0.40138509859E+02  0.00000000000E+00 0.  1.
</event>
<event>
12    1  0.1061634E+000  0.2658758E+03  0.7818608E-02  0.1103757E+00
         21   -1    0    0  503  502  0.00000000000E+00  0.00000000000E+00  0.10761024428E+04  0.10761024428E+04  0.00000000000E+00 0. -1.
         21   -1    0    0  501  503 -0.00000000000E+00 -0.00000000000E+00 -0.65563111326E+02  0.65563111326E+02  0.00000000000E+00 0. -1.
          6    2    1    2  501    0  0.16987842648E+03 -0.10981428494E+03  0.51813084309E+03  0.58236544447E+03  0.17254588777E+03 0.  0.
         24    2    3    3    0    0  0.19483969139E+03 -0.11396565566E+03  0.47854918089E+03  0.53515213482E+03  0.80173641955E+02 0.  0.
         -6    2    1    2    0  502 -0.16987842648E+03  0.10981428494E+03  0.49240848835E+03  0.55930010963E+03  0.17155942490E+03 0.  0.
        -24    2    5    5    0    0 -0.35225942938E+02  0.63802760164E+02  0.12256452955E+03  0.16299846240E+03  0.78960595114E+02 0.  0.
          5    1    3    3  501    0 -0.24961264910E+02  0.41513707242E+01  0.39581662201E+02  0.47213309643E+02  0.47000000000E+01 0. -1.
        -11    1    4    4    0    0  0.47504822950E+02  0.28573254630E+01  0.62241190917E+02  0.78350739365E+02  0.00000000000E+00 0.  1.
         12    1    4    4    0    0  0.14733486844E+03 -0.11682298113E+03  0.41630798998E+03  0.45680139546E+03  0.00000000000E+00 0. -1.
         -5    1    5    5    0  502 -0.13465248354E+03  0.46011524775E+02  0.36984395880E+03  0.39630164722E+03  0.47000000000E+01 0.  1.
         13    1    6    6    0    0  0.25827945129E+01 -0.49243555954E+01  0.66137121077E+02  0.66370467001E+02  0.00000000000E+00 0. -1.
        -14    1    6    6    0    0 -0.37808737451E+02  0.68727115759E+02  0.56427408477E+02  0.96627995403E+02  0.00000000000E+00 0.  1.
</event>
<event>
12    1  0.1061634E+000  0.2241209E+03  0.7818608E-02  0.1130864E+00
         21   -1    0    0  501  502  0.00000000000E+00  0.00000000000E+00  0.12191812368E+03  0.12191812368E+03  0.00000000000E+00 0.  1.
         21   -1    0    0  502  503 -0.00000000000E+00 -0.00000000000E+00 -0.13177569405E+04  0.13177569405E+04  0.00000000000E+00 0.  1.
         -6    2    1    2    0  503 -0.13689603425E+03  0.39526528606E+02 -0.10371369030E+01  0.22403481100E+03  0.17288045068E+03 0.  0.
        -24    2    3    3    0    0 -0.16559958843E+03  0.49035851476E+02 -0.12155239623E+02  0.19147680964E+03  0.81779461740E+02 0.  0.
          6    2    1    2  501    0  0.13689603425E+03 -0.39526528606E+02 -0.11948016799E+04  0.12156402532E+04  0.17299508718E+03 0.  0.
         24    2    5    5    0    0  0.97033104039E+02 -0.90070095420E+02 -0.92213029125E+03  0.93543411202E+03  0.84762365028E+02 0.  0.
          5    1    5    5  501    0  0.39862930214E+02  0.50543566814E+02 -0.27267138863E+03  0.28020614113E+03  0.47000000000E+01 0. -1.
        -13    1    6    6    0    0  0.23178100867E+01 -0.37426345664E+02 -0.11251085314E+03  0.11859509125E+03  0.00000000000E+00 0.  1.
         14    1    6    6    0    0  0.94715293952E+02 -0.52643749756E+02 -0.80961943810E+03  0.81683902077E+03  0.00000000000E+00 0. -1.
         -5    1    3    3    0  503  0.28703554179E+02 -0.95093228703E+01  0.11118102720E+02  0.32558001352E+02  0.47000000000E+01 0.  1.
         11    1    4    4    0    0 -0.36364383414E+02 -0.27076333483E+01 -0.34838026170E+02  0.50432010934E+02  0.00000000000E+00 0. -1.
        -12    1    4    4    0    0 -0.12923520502E+03  0.51743484825E+02  0.22682786546E+02  0.14104479871E+03  0.00000000000E+00 0.  1.
</event>
<event>
12    1  0.1061634E+000  0.2948388E+03  0.7818608E-02  0.1087895E+00
         21   -1    0    0  501  502  0.00000000000E+00  0.00000000000E+00  0.39517772752E+03  0.39517772752E+03  0.00000000000E+00 0. -1.
         21   -1    0    0  502  503 -0.00000000000E+00 -0.00000000000E+00 -0.26687169857E+03  0.26687169857E+03  0.00000000000E+00 0. -1.
         -6    2    1    2    0  503  0.13978901045E+03  0.19403359913E+03 -0.74971698107E+02  0.30422144328E+03  0.17245267756E+03 0.  0.
        -24    2    3    3    0    0  0.10485532809E+03  0.40667294793E+02 -0.37496599250E+02  0.14245600041E+03  0.78988913166E+02 0.  0.
          6    2    1    2  501    0 -0.13978901045E+03 -0.19403359913E+03  0.20327772706E+03  0.35782798282E+03  0.17184011737E+03 0.  0.
         24    2    5    5    0    0 -0.15387222515E+03 -0.13407306567E+03  0.10826639152E+03  0.24450169995E+03  0.80045119356E+02 0.  0.
          5    1    5    5  501    0  0.14083214702E+02 -0.59960533461E+02  0.95011335536E+02  0.11332628287E+03  0.47000000000E+01 0. -1.
        -13    1    6    6    0    0 -0.59807959682E+02 -0.38909805330E+02 -0.16008698546E+01  0.71368955271E+02  0.00000000000E+00 0.  1.
         14    1    6    6    0    0 -0.94064265467E+02 -0.95163260343E+02  0.10986726138E+03  0.17313274468E+03  0.00000000000E+00 0. -1.
         -5    1    3    3    0  503  0.34933682352E+02  0.15336630434E+03 -0.37475098857E+02  0.16176544286E+03  0.47000000000E+01 0.  1.
         11    1    4    4    0    0  0.15684747000E+02  0.79076254540E+01  0.23665492033E+02  0.29471975535E+02  0.00000000000E+00 0. -1.
        -12    1    4    4    0    0  0.89170581095E+02  0.32759669339E+02 -0.61162091283E+02  0.11298402488E+03  0.00000000000E+00 0.  1.
</event>
<event>
12    1  0.1061634E+000  0.1843955E+03  0.7818608E-02  0.1163959E+00
         21   -1    0    0  503  502  0.00000000000E+00  0.00000000000E+00  0.51201394343E+02  0.51201394343E+02  0.00000000000E+00 0.  1.
         21   -1    0    0  501  503 -0.00000000000E+00 -0.00000000000E+00 -0.66208617087E+03  0.66208617087E+03  0.00000000000E+00 0.  1.
          6    2    1    2  501    0 -0.38303076120E+02  0.54202888285E+02 -0.33165033761E+03  0.37946494568E+03  0.17203668161E+03 0.  0.
         24    2    3    3    0    0 -0.88970511785E+02  0.28890687231E+02 -0.17137487162E+03  0.20941139071E+03  0.75718955077E+02 0.  0.
         -6    2    1    2    0  502  0.38303076120E+02 -0.54202888285E+02 -0.27923443892E+03  0.33382261954E+03  0.17047167126E+03 0.  0.
        -24    2    5    5    0    0 -0.35477939713E+02 -0.61988450175E+02 -0.18350530660E+03  0.21261861777E+03  0.80194930704E+02 0.  0.
          5    1    3    3  501    0  0.50667435664E+02  0.25312201054E+02 -0.16027546599E+03  0.17005355497E+03  0.47000000000E+01 0. -1.
        -13    1    4    4    0    0 -0.16062112903E+02 -0.21492659177E+02 -0.18119469281E+02  0.32376550719E+02  0.00000000000E+00 0.  1.
         14    1    4    4    0    0 -0.72908398882E+02  0.50383346408E+02 -0.15325540234E+03  0.17703483999E+03  0.00000000000E+00 0. -1.
         -5    1    5    5    0  502  0.73781015833E+02  0.77855618897E+01 -0.95729132318E+02  0.12120400177E+03  0.47000000000E+01 0.  1.
         11    1    6    6    0    0 -0.16523968854E+01  0.11209366979E+01 -0.10994617651E+03  0.10996430623E+03  0.00000000000E+00 0. -1.
        -12    1    6    6    0    0 -0.33825542827E+02 -0.63109386873E+02 -0.73559130091E+02  0.10265431154E+03  0.00000000000E+00 0.  1.
</event>
<event>
12    1  0.1061634E+000  0.2952894E+03  0.7818608E-02  0.1087739E+00
         21   -1    0    0  503  502  0.00000000000E+00  0.00000000000E+00  0.22831136748E+03  0.22831136748E+03  0.00000000000E+00 0. -1.
         21   -1    0    0  501  503 -0.00000000000E+00 -0.00000000000E+00 -0.47020083935E+03  0.47020083935E+03  0.00000000000E+00 0. -1.
          6    2    1    2  501    0 -0.30880557522E+02 -0.23717141823E+03  0.31270914661E+02  0.29694060125E+03  0.17318187003E+03 0.  0.
         24    2    3    3    0    0 -0.47702497338E+02 -0.73077229330E+02  0.54724205920E+02  0.13026118632E+03  0.79733482612E+02 0.  0.
         -6    2    1    2    0  502  0.30880557522E+02  0.23717141823E+03 -0.27316038653E+03  0.40157160558E+03  0.17157874922E+03 0.  0.
        -24    2    5    5    0    0  0.84199155880E+02  0.15834613964E+03 -0.21050339363E+03  0.28753526824E+03  0.78751850531E+02 0.  0.
          5    1    3    3  501    0  0.16821939816E+02 -0.16409418890E+03 -0.23453291259E+02  0.16667941493E+03  0.47000000000E+01 0. -1.
        -11    1    4    4    0    0 -0.74941448500E+01 -0.66046959187E+02  0.60625369799E+01  0.66746665681E+02  0.00000000000E+00 0.  1.
         12    1    4    4    0    0 -0.40208352488E+02 -0.70302701424E+01  0.48661668940E+02  0.63514520640E+02  0.00000000000E+00 0. -1.
         -5    1    5    5    0  502 -0.53318598358E+02  0.78825278582E+02 -0.62656992903E+02  0.11403633734E+03  0.47000000000E+01 0.  1.
         13    1    6    6    0    0  0.30200037250E+02  0.50886774548E+02 -0.20412479401E+02  0.62595330410E+02  0.00000000000E+00 0. -1.
        -14    1    6    6    0    0  0.53999118630E+02  0.10745936510E+03 -0.19009091423E+03  0.22493993783E+03  0.00000000000E+00 0.  1.
</event>
<event>
12    1  0.1061634E+000  0.2790583E+03  0.7818608E-02  0.1096293E+00
         21   -1    0    0  501  502  0.00000000000E+00  0.00000000000E+00  0.52621652040E+03  0.52621652040E+03  0.00000000000E+00 0. -1.
         21   -1    0    0  502  503 -0.00000000000E+00 -0.00000000000E+00 -0.16518256413E+03  0.16518256413E+03  0.00000000000E+00 0. -1.
         -6    2    1    2    0  503  0.16704892229E+03 -0.14325485970E+03  0.29333792914E+03  0.40487120554E+03  0.17159911171E+03 0.  0.
        -24    2    3    3    0    0  0.10339293951E+03 -0.13580125005E+03  0.14085842494E+03  0.23940299216E+03  0.91326980255E+02 0.  0.
          6    2    1    2  501    0 -0.16704892229E+03  0.14325485970E+03  0.67696027138E+02  0.28652787899E+03  0.17055256104E+03 0.  0.
         24    2    5    5    0    0 -0.71848664113E+02  0.71511658467E+01  0.32926965700E+02  0.11676839539E+03  0.85658060818E+02 0.  0.
          5    1    5    5  501    0 -0.95200258179E+02  0.13610369385E+03  0.34769061439E+02  0.16975948360E+03  0.47000000000E+01 0. -1.
        -11    1    6    6    0    0 -0.50161334172E+02  0.16971578710E+02 -0.21661973405E+02  0.57213940798E+02  0.00000000000E+00 0.  1.
         12    1    6    6    0    0 -0.21687329941E+02 -0.98204128635E+01  0.54588939105E+02  0.59554454589E+02  0.00000000000E+00 0. -1.
         -5    1    3    3    0  503  0.63655982782E+02 -0.74536096507E+01  0.15247950419E+03  0.16546821338E+03  0.47000000000E+01 0.  1.
         11    1    4    4    0    0  0.97084024337E+01 -0.29578947973E+02 -0.97859718250E+01  0.32633303320E+02  0.00000000000E+00 0. -1.
        -12    1    4    4    0    0  0.93684537076E+02 -0.10622230208E+03  0.15064439677E+03  0.20676968884E+03  0.00000000000E+00 0.  1.
</event>
<event>
12    1  0.1061634E+000  0.2572761E+03  0.7818608E-02  0.1108800E+00
         21   -1    0    0  501  502  0.00000000000E+00  0.00000000000E+00  0.43433823656E+03  0.43433823656E+03  0.00000000000E+00 0.  1.
         21   -1    0    0  502  503 -0.00000000000E+00 -0.00000000000E+00 -0.16587098798E+03  0.16587098798E+03  0.00000000000E+00 0.  1.
         -6    2    1    2    0  503 -0.19112733050E+03  0.10157863317E+02  0.48594256951E+02  0.26182507371E+03  0.17192477647E+03 0.  0.
        -24    2    3    3    0    0 -0.85276353956E+02 -0.25386658547E+02 -0.48002509218E+02  0.11410619373E+03  0.52909768283E+02 0.  0.
          6    2    1    2  501    0  0.19112733050E+03 -0.10157863317E+02  0.21987299162E+03  0.33838415082E+03  0.17183382214E+03 0.  0.
         24    2    5    5    0    0  0.12284388649E+03  0.60764669825E+01  0.51088919668E+02  0.15552810047E+03  0.80320411003E+02 0.  0.
          5    1    5    5  501    0  0.68283444012E+02 -0.16234330299E+02  0.16878407196E+03  0.18285605036E+03  0.47000000000E+01 0. -1.
        -11    1    6    6    0    0  0.25408988901E+02 -0.28618633606E+02  0.32993368601E+02  0.50529251707E+02  0.00000000000E+00 0.  1.
         12    1    6    6    0    0  0.97434897585E+02  0.34695100588E+02  0.18095551067E+02  0.10499884876E+03  0.00000000000E+00 0. -1.
         -5    1    3    3    0  503 -0.10585097654E+03  0.35544521864E+02  0.96596766169E+02  0.14771887998E+03  0.47000000000E+01 0.  1.
         11    1    4    4    0    0 -0.52075212696E+02  0.85426608457E+01 -0.39411152343E+02  0.65863827406E+02  0.00000000000E+00 0. -1.
        -12    1    4    4    0    0 -0.33201141260E+02 -0.33929319392E+02 -0.85913568756E+01  0.48242366322E+02  0.00000000000E+00 0.  1.
</event>
<event>
12    1  0.1061634E+000  0.3198906E+03  0.7818608E-02  0.1075710E+00
         21   -1    0    0  501  502  0.00000000000E+00  0.00000000000E+00  0.72058923326E+03  0.72058923326E+03  0.00000000000E+00 0.  1.
         21   -1    0    0  502  503 -0.00000000000E+00 -0.00000000000E+00 -0.14587583330E+03  0.14587583330E+03  0.00000000000E+00 0.  1.
         -6    2    1    2    0  503 -0.15752974540E+03 -0.21917128441E+03  0.35821520160E+03  0.48019901405E+03  0.17152635319E+03 0.  0.
        -24    2    3    3    0    0 -0.15958970169E+03 -0.15668605123E+03  0.33984043728E+03  0.41486625236E+03  0.81259417910E+02 0.  0.
          6    2    1    2  501    0  0.15752974540E+03  0.21917128441E+03  0.21649819836E+03  0.38626605251E+03  0.17169251827E+03 0.  0.
         24    2    5    5    0    0  0.13575838376E+03  0.96134686682E+02  0.77170450717E+02  0.19905946119E+03  0.77441422268E+02 0.  0.
          5    1    5    5  501    0  0.21771361647E+02  0.12303659773E+03  0.13932774764E+03  0.18720659132E+03  0.47000000000E+01 0. -1.
        -13    1    6    6    0    0 -0.51134722455E+01  0.15310795820E+02 -0.51938538324E+01  0.16957127843E+02  0.00000000000E+00 0.  1.
         14    1    6    6    0    0  0.14087185600E+03  0.80823890862E+02  0.82364304549E+02  0.18210233335E+03  0.00000000000E+00 0. -1.
         -5    1    3    3    0  503  0.20599562906E+01 -0.62485233188E+02  0.18374764323E+02  0.65332761693E+02  0.47000000000E+01 0.  1.
         11    1    4    4    0    0 -0.31828295550E+02 -0.73788962405E+02  0.16117443851E+03  0.18009733757E+03  0.00000000000E+00 0. -1.
        -12    1    4    4    0    0 -0.12776140614E+03 -0.82897088821E+02  0.17866599877E+03  0.23476891479E+03  0.00000000000E+00 0.  1.
</event>
<event>
12    1  0.1061634E+000  0.1790729E+03  0.7818608E-02  0.1169262E+00
         21   -1    0    0  501  502  0.00000000000E+00  0.00000000000E+00  0.15686211779E+03  0.15686211779E+03  0.00000000000E+00 0. -1.
         21   -1    0    0  502  503 -0.00000000000E+00 -0.00000000000E+00 -0.41406373632E+03  0.41406373632E+03  0.00000000000E+00 0. -1.
         -6    2    1    2    0  503  0.20957077902E+02  0.36589123593E+02  0.75365600731E+02  0.19428610130E+03  0.17403778988E+03 0.  0.
        -24    2    3    3    0    0 -0.48999793576E+02  0.37515448692E+02  0.72212187466E+02  0.12409453514E+03  0.79852770592E+02 0.  0.
          6    2    1    2  501    0 -0.20957077902E+02 -0.36589123593E+02 -0.33256721926E+03  0.37663975281E+03  0.17169328756E+03 0.  0.
         24    2    5    5    0    0 -0.14403717909E+02 -0.24394967647E+02 -0.60543485854E+02  0.10422344364E+03  0.79965186105E+02 0.  0.
          5    1    5    5  501    0 -0.65533599922E+01 -0.12194155945E+02 -0.27202373340E+03  0.27241630917E+03  0.47000000000E+01 0. -1.
        -13    1    6    6    0    0 -0.38758757405E+02  0.69928536787E+01 -0.48971424908E+02  0.62843788362E+02  0.00000000000E+00 0.  1.
         14    1    6    6    0    0  0.24355039496E+02 -0.31387821326E+02 -0.11572060946E+02  0.41379655278E+02  0.00000000000E+00 0. -1.
         -5    1    3    3    0  503  0.69956871477E+02 -0.92632509927E+00  0.31534132643E+01  0.70191566162E+02  0.47000000000E+01 0.  1.
         13    1    4    4    0    0 -0.59113818293E+02 -0.20608526165E+01  0.34364386520E+02  0.68407614251E+02  0.00000000000E+00 0. -1.
        -14    1    4    4    0    0  0.10114024717E+02  0.39576301308E+02  0.37847800947E+02  0.55686920886E+02  0.00000000000E+00 0.  1.
</event>
<event>
12    1  0.1061634E+000  0.2165423E+03  0.7818608E-02  0.1136528E+00
         21   -1    0    0  501  502  0.00000000000E+00  0.00000000000E+00  0.35107819366E+03  0.35107819366E+03  0.00000000000E+00 0. -1.
         21   -1    0    0  502  503 -0.00000000000E+00 -0.00000000000E+00 -0.13745206908E+03  0.13745206908E+03  0.00000000000E+00 0. -1.
         -6    2    1    2    0  503  0.78751962374E+02  0.10414793704E+03  0.14864370826E+03  0.26265090969E+03  0.17274803613E+03 0.  0.
        -24    2    3    3    0    0  0.84398052483E+02  0.51944857782E+02  0.16410769989E+03  0.20771217240E+03  0.79948170011E+02 0.  0.
          6    2    1    2  501    0 -0.78751962374E+02 -0.10414793704E+03  0.64982416315E+02  0.22587935305E+03  0.17248218266E+03 0.  0.
         24    2    5    5    0    0 -0.53620266617E+02 -0.68399959207E+02  0.11007335553E+03  0.16291267257E+03  0.82889733235E+02 0.  0.
          5    1    5    5  501    0 -0.25131695757E+02 -0.35747977833E+02 -0.45090939214E+02  0.62966680475E+02  0.47000000000E+01 0. -1.
        -13    1    6    6    0    0 -0.76460123997E+01 -0.43235854374E+02  0.33739713837E+01  0.44036170269E+02  0.00000000000E+00 0.  1.
         14    1    6    6    0    0 -0.45974254218E+02 -0.25164104832E+02  0.10669938415E+03  0.11887650230E+03  0.00000000000E+00 0. -1.
         -5    1    3    3    0  503 -0.56460901082E+01  0.52203079258E+02 -0.15463991630E+02  0.54938737286E+02  0.47000000000E+01 0.  1.
         11    1    4    4    0    0 -0.12498153704E+02 -0.60585059258E+01  0.12645520327E+02  0.18783464122E+02  0.00000000000E+00 0. -1.
        -12    1    4    4    0    0  0.96896206187E+02  0.58003363708E+02  0.15146217956E+03  0.18892870828E+03  0.00000000000E+00 0.  1.
</event>
<event>
12    1  0.1061634E+000  0.4720473E+03  0.7818608E-02  0.1021469E+00
         21   -1    0    0  501  502  0.00000000000E+00  0.00000000000E+00  0.19158194616E+04  0.19158194616E+04  0.00000000000E+00 0.  1.
         21   -1    0    0  502  503 -0.00000000000E+00 -0.00000000000E+00 -0.32644246766E+03  0.32644246766E+03  0.00000000000E+00 0.  1.
         -6    2    1    2    0  503 -0.21772236839E+03  0.38151698549E+03  0.16956516404E+04  0.17601315752E+04  0.17283065826E+03 0.  0.
        -24    2    3    3    0    0 -0.96640246545E+02  0.11686574220E+03  0.81076252061E+03  0.82859950105E+03  0.79021069110E+02 0.  0.
          6    2    1    2  501    0  0.21772236839E+03 -0.38151698549E+03 -0.10627464649E+03  0.48213035406E+03  0.16792003425E+03 0.  0.
         24    2    5    5    0    0  0.13554477369E+03 -0.20009925379E+03 -0.12294763303E+03  0.28221630021E+03  0.78216511013E+02 0.  0.
          5    1    5    5  501    0  0.82177594701E+02 -0.18141773170E+03  0.16672986538E+02  0.19991405384E+03  0.47000000000E+01 0. -1.
        -11    1    6    6    0    0 -0.53718063852E+01 -0.57941620471E+01  0.58377899437E+01  0.98238693546E+01  0.00000000000E+00 0.  1.
         12    1    6    6    0    0  0.14091658008E+03 -0.19430509175E+03 -0.12878542297E+03  0.27239243086E+03  0.00000000000E+00 0. -1.
         -5    1    3    3    0  503 -0.12108212185E+03  0.26465124329E+03  0.88488911978E+03  0.93153207411E+03  0.47000000000E+01 0.  1.
         11    1    4    4    0    0 -0.64871081433E+02  0.59171529240E+02  0.27187037546E+03  0.28569744159E+03  0.00000000000E+00 0. -1.
        -12    1    4    4    0    0 -0.31769165113E+02  0.57694212960E+02  0.53889214516E+03  0.54290205947E+03  0.00000000000E+00 0.  1.
</event>
<event>
12    1  0.1061634E+000  0.1960129E+03  0.7818608E-02  0.1153289E+00
         21   -1    0    0  503  502  0.00000000000E+00  0.00000000000E+00  0.31942680425E+03  0.31942680425E+03  0.00000000000E+00 0.  1.
         21   -1    0    0  501  503 -0.00000000000E+00 -0.00000000000E+00 -0.12145540453E+03  0.12145540453E+03  0.00000000000E+00 0.  1.
          6    2    1    2  501    0 -0.45764050398E+02 -0.82778310632E+02  0.73729840517E+02  0.20881104327E+03  0.17093672920E+03 0.  0.
         24    2    3    3    0    0  0.16373435497E+02  0.13153405755E+02  0.29710286310E+02  0.86239543668E+02  0.78188594478E+02 0.  0.
         -6    2    1    2    0  502  0.45764050398E+02  0.82778310632E+02  0.12424155921E+03  0.23207116551E+03  0.17168128554E+03 0.  0.
        -24    2    5    5    0    0  0.94585456692E+02  0.53384912464E+02  0.64975036344E+02  0.14971758453E+03  0.79982762342E+02 0.  0.
          5    1    3    3  501    0 -0.62137485895E+02 -0.95931716387E+02  0.44019554206E+02  0.12257149960E+03  0.47000000000E+01 0. -1.
        -11    1    4    4    0    0 -0.13745606340E+02 -0.19178440856E+02 -0.11112436603E+02  0.26081421253E+02  0.00000000000E+00 0.  1.
         12    1    4    4    0    0  0.30119041837E+02  0.32331846611E+02  0.40822722913E+02  0.60158122415E+02  0.00000000000E+00 0. -1.
         -5    1    5    5    0  502 -0.48821406294E+02  0.29393398168E+02  0.59266522862E+02  0.82353580982E+02  0.47000000000E+01 0.  1.
         11    1    6    6    0    0  0.49754597874E+02  0.71005505559E+02  0.40815612698E+02  0.95829098239E+02  0.00000000000E+00 0. -1.
        -12    1    6    6    0    0  0.44830858817E+02 -0.17620593095E+02  0.24159423646E+02  0.53888486286E+02  0.00000000000E+00 0.  1.
</event>
<event>
12    1  0.1061634E+000  0.2638773E+03  0.7818608E-02  0.1104883E+00
         21   -1    0    0  503  502  0.00000000000E+00  0.00000000000E+00  0.42813776989E+03  0.42813776989E+03  0.00000000000E+00 0.  1.
         21   -1    0    0  501  503 -0.00000000000E+00 -0.00000000000E+00 -0.24869080957E+03  0.24869080957E+03  0.00000000000E+00 0.  1.
          6    2    1    2  501    0 -0.11144717396E+03 -0.16591199735E+03  0.28898609153E+03  0.39111883407E+03  0.17179556984E+03 0.  0.
         24    2    3    3    0    0  0.14704898089E+02 -0.49287779916E+02  0.11978151749E+03  0.14993875352E+03  0.74084401862E+02 0.  0.
         -6    2    1    2    0  502  0.11144717396E+03  0.16591199735E+03 -0.10953913122E+03  0.28570974539E+03  0.17229037668E+03 0.  0.
        -24    2    5    5    0    0  0.25133582315E+02  0.13582128741E+03 -0.11304758539E+03  0.19411342353E+03  0.76296432157E+02 0.  0.
          5    1    3    3  501    0 -0.12615207205E+03 -0.11662421743E+03  0.16920457405E+03  0.24118008055E+03  0.47000000000E+01 0. -1.
        -13    1    4    4    0    0  0.14884045058E+02 -0.68025037254E+02  0.80649693815E+02  0.10655192914E+03  0.00000000000E+00 0.  1.
         14    1    4    4    0    0 -0.17914696864E+00  0.18737257338E+02  0.39131823670E+02  0.43386824381E+02  0.00000000000E+00 0. -1.
         -5    1    5    5    0  502  0.86313591650E+02  0.30090709942E+02  0.35084541653E+01  0.91596321864E+02  0.47000000000E+01 0.  1.
         11    1    6    6    0    0  0.22029948191E+02  0.31921852014E+02  0.22830440224E+01  0.38852741773E+02  0.00000000000E+00 0. -1.
        -12    1    6    6    0    0  0.31036341240E+01  0.10389943539E+03 -0.11533062941E+03  0.15526068176E+03  0.00000000000E+00 0.  1.
</event>
<event>
12    1  0.1061634E+000  0.3393360E+03  0.7818608E-02  0.1067301E+00
         21   -1    0    0  503  502  0.00000000000E+00  0.00000000000E+00  0.25752411885E+03  0.25752411885E+03  0.00000000000E+00 0. -1.
         21   -1    0    0  501  503 -0.00000000000E+00 -0.00000000000E+00 -0.45425848508E+03  0.45425848508E+03  0.00000000000E+00 0. -1.
          6    2    1    2  501    0  0.20576269921E+03  0.20577900300E+03 -0.46266761232E+02  0.34247561261E+03  0.17454410783E+03 0.  0.
         24    2    3    3    0    0  0.23105324541E+03  0.19616738910E+03 -0.40652122107E+02  0.31444689482E+03  0.73191583316E+02 0.  0.
         -6    2    1    2    0  502 -0.20576269921E+03 -0.20577900300E+03 -0.15046760501E+03  0.36930699132E+03  0.17048128114E+03 0.  0.
        -24    2    5    5    0    0 -0.59601996853E+02 -0.11525545846E+03 -0.12183883474E+03  0.19495344384E+03  0.79535683075E+02 0.  0.
          5    1    3    3  501    0 -0.25290546198E+02  0.96116139000E+01 -0.56146391252E+01  0.28028717796E+02  0.47000000000E+01 0. -1.
        -11    1    4    4    0    0  0.41214165279E+02  0.25044177932E+02 -0.33582555169E+02  0.58767391295E+02  0.00000000000E+00 0.  1.
         12    1    4    4    0    0  0.18983908013E+03  0.17112321117E+03 -0.70695669382E+01  0.25567950352E+03  0.00000000000E+00 0. -1.
         -5    1    5    5    0  502 -0.14616070236E+03 -0.90523544539E+02 -0.28628770266E+02  0.17435354747E+03  0.47000000000E+01 0.  1.
         13    1    6    6    0    0  0.12053543856E+02 -0.74469589369E+01 -0.38431452765E+02  0.40960000959E+02  0.00000000000E+00 0. -1.
        -14    1    6    6    0    0 -0.71655540709E+02 -0.10780849952E+03 -0.83407381974E+02  0.15399344288E+03  0.00000000000E+00 0.  1.
</event>
<event>
12    1  0.1061634E+000  0.2724172E+03  0.7818608E-02  0.1100890E+00
         21   -1    0    0  503  502  0.00000000000E+00  0.00000000000E+00  0.57036011775E+03  0.57036011775E+03  0.00000000000E+00 0. -1.
         21   -1    0    0  501  503 -0.00000000000E+00 -0.00000000000E+00 -0.12685516839E+03  0.12685516839E+03  0.00000000000E+00 0.  1.
          6    2    1    2  501    0 -0.19535609291E+03  0.78373760628E+02  0.22248814838E+03  0.35172728803E+03  0.17292963767E+03 0.  0.
         24    2    3    3    0    0 -0.34502361287E+02  0.69719377947E+01  0.27578822069E+02  0.89079465340E+02  0.77042448479E+02 0.  0.
         -6    2    1    2    0  502  0.19535609291E+03 -0.78373760628E+02  0.22101680098E+03  0.34548799811E+03  0.16188601275E+03 0.  0.
        -24    2    5    5    0    0  0.28096678766E+02 -0.42829356405E+02  0.77942630401E+02  0.12248256189E+03  0.79392362392E+02 0.  0.
          5    1    3    3  501    0 -0.16085373163E+03  0.71401822833E+02  0.19490932631E+03  0.26264782269E+03  0.47000000000E+01 0. -1.
        -13    1    4    4    0    0  0.10342008326E+02 -0.13504772130E+02  0.35295980670E+02  0.39180891491E+02  0.00000000000E+00 0.  1.
         14    1    4    4    0    0 -0.44844369613E+02  0.20476709925E+02 -0.77171586017E+01  0.49898573850E+02  0.00000000000E+00 0. -1.
         -5    1    5    5    0  502  0.16725941415E+03 -0.35544404222E+02  0.14307417058E+03  0.22300543621E+03  0.47000000000E+01 0.  1.
         11    1    6    6    0    0  0.48921879899E+02 -0.23950507328E+01  0.39160408495E+02  0.62710638606E+02  0.00000000000E+00 0. -1.
        -12    1    6    6    0    0 -0.20825201133E+02 -0.40434305673E+02  0.38782221906E+02  0.59771923287E+02  0.00000000000E+00 0.  1.
</event>
<event>
12    1  0.1061634E+000  0.2469143E+03  0.7818608E-02  0.1115349E+00
         21   -1    0    0  501  502  0.00000000000E+00  0.00000000000E+00  0.88525178721E+03  0.88525178721E+03  0.00000000000E+00 0. -1.
         21   -1    0    0  502  503 -0.00000000000E+00 -0.00000000000E+00 -0.77133188159E+02  0.77133188159E+02  0.00000000000E+00 0. -1.
         -6    2    1    2    0  503 -0.16106880929E+03  0.72264114556E+02  0.24490808504E+03  0.34742744597E+03  0.17193195314E+03 0.  0.
        -24    2    3    3    0    0 -0.77816374869E+02 -0.31228827525E+01  0.50308204708E+02  0.12269344625E+03  0.80359353520E+02 0.  0.
          6    2    1    2  501    0  0.16106880929E+03 -0.72264114556E+02  0.56321051401E+03  0.61495752940E+03  0.17263086717E+03 0.  0.
         24    2    5    5    0    0  0.15080074925E+03 -0.11033575219E+03  0.42115305684E+03  0.46745399119E+03  0.78920798306E+02 0.  0.
          5    1    5    5  501    0  0.10268060042E+02  0.38071637631E+02  0.14205745717E+03  0.14750353822E+03  0.47000000000E+01 0. -1.
        -13    1    6    6    0    0  0.10175357669E+03 -0.38621490075E+02  0.17155015650E+03  0.20316216690E+03  0.00000000000E+00 0.  1.
         14    1    6    6    0    0  0.49047172564E+02 -0.71714262112E+02  0.24960290034E+03  0.26429182429E+03  0.00000000000E+00 0. -1.
         -5    1    3    3    0  503 -0.83252434423E+02  0.75386997309E+02  0.19459988034E+03  0.22473399971E+03  0.47000000000E+01 0.  1.
         11    1    4    4    0    0 -0.33601760111E+02 -0.33941842385E+02  0.49509560163E+02  0.68791885384E+02  0.00000000000E+00 0. -1.
        -12    1    4    4    0    0 -0.44214614759E+02  0.30818959633E+02  0.79864454426E+00  0.53901560870E+02  0.00000000000E+00 0.  1.
</event>
<event>
12    1  0.1061634E+000  0.2585730E+03  0.7818608E-02  0.1108356E+00
         21   -1    0    0  503  502  0.00000000000E+00  0.00000000000E+00  0.74800691996E+02  0.74800691996E+02  0.00000000000E+00 0. -1.
         21   -1    0    0  501  503 -0.00000000000E+00 -0.00000000000E+00 -0.12409384742E+04  0.12409384742E+04  0.00000000000E+00 0. -1.
          6    2    1    2  501    0 -0.13242302741E+03 -0.13659593269E+03 -0.22929300824E+03  0.34386566064E+03  0.17167994038E+03 0.  0.
         24    2    3    3    0    0 -0.14975963359E+03 -0.76091673150E+02 -0.13313280899E+03  0.22884306610E+03  0.80168032883E+02 0.  0.
         -6    2    1    2    0  502  0.13242302741E+03  0.13659593269E+03 -0.93684477393E+03  0.97187350552E+03  0.17511617078E+03 0.  0.
        -24    2    5    5    0    0  0.12796016245E+03  0.62943529095E+02 -0.80012296015E+03  0.81644011759E+03  0.77730452347E+02 0.  0.
          5    1    3    3  501    0  0.17336606184E+02 -0.60504259539E+02 -0.96160199252E+02  0.11502259455E+03  0.47000000000E+01 0. -1.
        -13    1    4    4    0    0 -0.45017054414E+02 -0.62935956384E+02 -0.77498195741E+02  0.10951456587E+03  0.00000000000E+00 0.  1.
         14    1    4    4    0    0 -0.10474257918E+03 -0.13155716766E+02 -0.55634613245E+02  0.11932850023E+03  0.00000000000E+00 0. -1.
         -5    1    5    5    0  502  0.44628649598E+01  0.73652403594E+02 -0.13672181378E+03  0.15543338793E+03  0.47000000000E+01 0.  1.
         13    1    6    6    0    0  0.65984534871E+02 -0.98448343580E+01 -0.34294467198E+03  0.34937362185E+03  0.00000000000E+00 0. -1.
        -14    1    6    6    0    0  0.61975627575E+02  0.72788363453E+02 -0.45717828817E+03  0.46706649574E+03  0.00000000000E+00 0.  1.
</event>
<event>
12    1  0.1061634E+000  0.1799467E+03  0.7818608E-02  0.1168728E+00
         21   -1    0    0  503  502  0.00000000000E+00  0.00000000000E+00  0.54320699501E+03  0.54320699501E+03  0.00000000000E+00 0.  1.
         21   -1    0    0  501  503 -0.00000000000E+00 -0.00000000000E+00 -0.67201175372E+02  0.67201175372E+02  0.00000000000E+00 0.  1.
          6    2    1    2  501    0  0.26476890601E+02  0.44861839531E+02  0.12984405589E+03  0.22190154076E+03  0.17224170389E+03 0.  0.
         24    2    3    3    0    0  0.65441664366E+02  0.77042610819E+02  0.95549856627E+02  0.16064766138E+03  0.80372387603E+02 0.  0.
         -6    2    1    2    0  502 -0.26476890601E+02 -0.44861839531E+02  0.34616176374E+03  0.38850662962E+03  0.16851060560E+03 0.  0.
        -24    2    5    5    0    0 -0.26035498842E+02 -0.25559814414E+02  0.67012590397E+02  0.10865110622E+03  0.77351304435E+02 0.  0.
          5    1    3    3  501    0 -0.38964773765E+02 -0.32180771288E+02  0.34294199266E+02  0.61253879376E+02  0.47000000000E+01 0. -1.
        -11    1    4    4    0    0  0.20519188387E+01 -0.76723114818E+01 -0.89296821736E+01  0.11950479409E+02  0.00000000000E+00 0.  1.
         12    1    4    4    0    0  0.63389745528E+02  0.84714922301E+02  0.10447953880E+03  0.14869718197E+03  0.00000000000E+00 0. -1.
         -5    1    5    5    0  502 -0.44139175926E+00 -0.19302025117E+02  0.27914917335E+03  0.27985552340E+03  0.47000000000E+01 0.  1.
         11    1    6    6    0    0 -0.50012944796E+02 -0.26036418180E+02  0.28239981207E+02  0.63060972537E+02  0.00000000000E+00 0. -1.
        -12    1    6    6    0    0  0.23977445954E+02  0.47660376614E+00  0.38772609189E+02  0.45590133680E+02  0.00000000000E+00 0.  1.
</event>
<event>
12    1  0.1061634E+000  0.6361774E+03  0.7818608E-02  0.9833198E-01
         21   -1    0    0  503  502  0.00000000000E+00  0.00000000000E+00  0.94958746197E+03  0.94958746197E+03  0.00000000000E+00 0. -1.
         21   -1    0    0  501  503 -0.00000000000E+00 -0.00000000000E+00 -0.54388626760E+03  0.54388626760E+03  0.00000000000E+00 0. -1.
          6    2    1    2  501    0 -0.42346163418E+03 -0.44226190442E+03  0.55043056335E+03  0.84104110027E+03  0.17164200985E+03 0.  0.
         24    2    3    3    0    0 -0.38669494824E+03 -0.44890323299E+03  0.52525973275E+03  0.79574698196E+03  0.79173081671E+02 0.  0.
         -6    2    1    2    0  502  0.42346163418E+03  0.44226190442E+03 -0.14472936898E+03  0.65243262930E+03  0.17264529476E+03 0.  0.
        -24    2    5    5    0    0  0.81675064872E+02  0.11992760418E+03 -0.34643326855E+02  0.16987850100E+03  0.81271757322E+02 0.  0.
          5    1    3    3  501    0 -0.36766685944E+02  0.66413285704E+01  0.25170830597E+02  0.45294118309E+02  0.47000000000E+01 0. -1.
        -11    1    4    4    0    0 -0.36558222373E+03 -0.40174515472E+03  0.49983023826E+03  0.73815973795E+03  0.00000000000E+00 0.  1.
         12    1    4    4    0    0 -0.21112724506E+02 -0.47158078276E+02  0.25429494494E+02  0.57587244013E+02  0.00000000000E+00 0. -1.
         -5    1    5    5    0  502  0.34178656931E+03  0.32233430024E+03 -0.11008604212E+03  0.48255412830E+03  0.47000000000E+01 0.  1.
         13    1    6    6    0    0  0.19428282594E+02  0.93094783195E+01 -0.37127183565E+02  0.42924961393E+02  0.00000000000E+00 0. -1.
        -14    1    6    6    0    0  0.62246782279E+02  0.11061812587E+03  0.24838567103E+01  0.12695353960E+03  0.00000000000E+00 0.  1.
</event>
<event>
12    1  0.1061634E+000  0.2079749E+03  0.7818608E-02  0.1143350E+00
         21   -1    0    0  503  502  0.00000000000E+00  0.00000000000E+00  0.40220780393E+03  0.40220780393E+03  0.00000000000E+00 0.  1.
         21   -1    0    0  501  503 -0.00000000000E+00 -0.00000000000E+00 -0.10865845308E+03  0.10865845308E+03  0.00000000000E+00 0.  1.
          6    2    1    2  501    0  0.69324629863E+02  0.94683069109E+02  0.11650561888E+03  0.23838439108E+03  0.17170547691E+03 0.  0.
         24    2    3    3    0    0  0.50916368766E+02  0.10246067858E+03  0.21519682841E+02  0.14120531242E+03  0.79907297795E+02 0.  0.
         -6    2    1    2    0  502 -0.69324629863E+02 -0.94683069109E+02  0.17704373197E+03  0.27248186593E+03  0.17067834177E+03 0.  0.
        -24    2    5    5    0    0 -0.10367766435E+03 -0.10483402016E+03  0.16754230963E+03  0.23512494137E+03  0.73987043948E+02 0.  0.
          5    1    3    3  501    0  0.18408261096E+02 -0.77776094730E+01  0.94985936038E+02  0.97179078668E+02  0.47000000000E+01 0. -1.
        -11    1    4    4    0    0  0.98297921413E+01 -0.13283047937E+02  0.59892187890E-01  0.16524762119E+02  0.00000000000E+00 0.  1.
         12    1    4    4    0    0  0.41086576625E+02  0.11574372652E+03  0.21459790653E+02  0.12468055030E+03  0.00000000000E+00 0. -1.
         -5    1    5    5    0  502  0.34353034488E+02  0.10150951052E+02  0.95014223479E+01  0.37356924558E+02  0.47000000000E+01 0.  1.
         11    1    6    6    0    0 -0.33814277405E+01 -0.10658042678E+02 -0.67605888880E+01  0.13066502570E+02  0.00000000000E+00 0. -1.
        -12    1    6    6    0    0 -0.10029623661E+03 -0.94175977483E+02  0.17430289851E+03  0.22205843880E+03  0.00000000000E+00 0.  1.
</event>
<event>
12    1  0.1061634E+000  0.2801533E+03  0.7818608E-02  0.1096494E+00
         21   -1    0    0  501  502  0.00000000000E+00  0.00000000000E+00  0.19566260016E+03  0.19566260016E+03  0.00000000000E+00 0. -1.
         21   -1    0    0  502  503 -0.00000000000E+00 -0.00000000000E+00 -0.46715807777E+03  0.46715807777E+03  0.00000000000E+00 0. -1.
         -6    2    1    2    0  503  0.85023125224E+02  0.19560361134E+03 -0.41257451207E+01  0.28018371452E+03  0.18164852743E+03 0.  0.
        -24    2    3    3    0    0 -0.21336483169E+02  0.60296156244E+02  0.22258225664E+02  0.10600369954E+03  0.81550498070E+02 0.  0.
          6    2    1    2  501    0 -0.85023125224E+02 -0.19560361134E+03 -0.26736973249E+03  0.38263696341E+03  0.17156563561E+03 0.  0.
         24    2    5    5    0    0 -0.38625132800E+02 -0.20525613809E+03 -0.19772870634E+03  0.29826927114E+03  0.79031219738E+02 0.  0.
          5    1    5    5  501    0 -0.46397992425E+02  0.96525267497E+01 -0.69641026155E+02  0.84367692262E+02  0.47000000000E+01 0. -1.
        -11    1    6    6    0    0  0.14135396129E+02 -0.13103242438E+03 -0.12620000145E+03  0.18247121973E+03  0.00000000000E+00 0.  1.
         12    1    6    6    0    0 -0.52760528928E+02 -0.74223713703E+02 -0.71528704885E+02  0.11579805141E+03  0.00000000000E+00 0. -1.
         -5    1    3    3    0  503  0.10635960839E+03  0.13530745509E+03 -0.26383970785E+02  0.17418001497E+03  0.47000000000E+01 0.  1.
         11    1    4    4    0    0  0.23571681759E+02  0.27975746034E+02  0.33431451399E+02  0.49557325288E+02  0.00000000000E+00 0. -1.
        -12    1    4    4    0    0 -0.44908164927E+02  0.32320410210E+02 -0.11173225735E+02  0.56446374255E+02  0.00000000000E+00 0.  1.
</event>
<event>
12    1  0.1061634E+000  0.2209686E+03  0.7818608E-02  0.1133197E+00
         21   -1    0    0  503  502  0.00000000000E+00  0.00000000000E+00  0.74818476795E+03  0.74818476795E+03  0.00000000000E+00 0.  1.
         21   -1    0    0  501  503 -0.00000000000E+00 -0.00000000000E+00 -0.72689492755E+02  0.72689492755E+02  0.00000000000E+00 0. -1.
          6    2    1    2  501    0  0.66973583119E+02 -0.12230374182E+03  0.20592989275E+03  0.30191494351E+03  0.17117782066E+03 0.  0.
         24    2    3    3    0    0  0.66781230540E+02 -0.15124119310E+03  0.14753545466E+03  0.23657419445E+03  0.82867411308E+02 0.  0.
         -6    2    1    2    0  502 -0.66973583119E+02  0.12230374182E+03  0.46956538245E+03  0.51895931720E+03  0.17141603898E+03 0.  0.
        -24    2    5    5    0    0  0.31657460982E+02  0.73249112656E+02  0.20835375949E+03  0.23543146766E+03  0.75160225693E+02 0.  0.
          5    1    3    3  501    0  0.19235257874E+00  0.28937451284E+02  0.58394438095E+02  0.65340749052E+02  0.47000000000E+01 0. -1.
        -11    1    4    4    0    0  0.14847757552E+02 -0.98352979519E+01  0.59470920624E+02  0.62080426787E+02  0.00000000000E+00 0.  1.
         12    1    4    4    0    0  0.51933472988E+02 -0.14140589515E+03  0.88064534032E+02  0.17449376767E+03  0.00000000000E+00 0. -1.
         -5    1    5    5    0  502 -0.98631044101E+02  0.49054629164E+02  0.26121162295E+03  0.28352784955E+03  0.47000000000E+01 0.  1.
         11    1    6    6    0    0  0.21430229292E+02  0.17611223860E+02  0.10515998314E+02  0.29664729122E+02  0.00000000000E+00 0. -1.
        -12    1    6    6    0    0  0.10227231691E+02  0.55637888796E+02  0.19783776118E+03  0.20576673853E+03  0.00000000000E+00 0.  1.
</event>
<event>
12    1  0.1061634E+000  0.2611648E+03  0.7818608E-02  0.1106935E+00
         21   -1    0    0  501  502  0.00000000000E+00  0.00000000000E+00  0.14068363103E+04  0.14068363103E+04  0.00000000000E+00 0. -1.
         21   -1    0    0  502  503 -0.00000000000E+00 -0.00000000000E+00 -0.77401243055E+02  0.77401243055E+02  0.00000000000E+00 0. -1.
         -6    2    1    2    0  503 -0.71798533473E+02  0.18206946549E+03  0.20898238267E+03  0.33448571951E+03  0.17292408918E+03 0.  0.
        -24    2    3    3    0    0 -0.69135317684E+02  0.14289167002E+03  0.71472159435E+02  0.19140132529E+03  0.79551720512E+02 0.  0.
          6    2    1    2  501    0  0.71798533473E+02 -0.18206946549E+03  0.11204526846E+04  0.11497518339E+04  0.16796053517E+03 0.  0.
         24    2    5    5    0    0  0.10385536652E+03 -0.99531980890E+02  0.81876595426E+03  0.83530462021E+03  0.81630682467E+02 0.  0.
          5    1    5    5  501    0 -0.32056833047E+02 -0.82537484602E+02  0.30168673034E+03  0.31444721365E+03  0.47000000000E+01 0. -1.
        -11    1    6    6    0    0  0.99195520558E+02 -0.47412363025E+02  0.47355164597E+03  0.48614693753E+03  0.00000000000E+00 0.  1.
         12    1    6    6    0    0  0.46598459631E+01 -0.52119617865E+02  0.34521430829E+03  0.34915768268E+03  0.00000000000E+00 0. -1.
         -5    1    3    3    0  503 -0.26632157894E+01  0.39177795471E+02  0.13751022323E+03  0.14308439422E+03  0.47000000000E+01 0.  1.
         11    1    4    4    0    0 -0.13785864340E+02  0.10528940733E+03  0.22669051244E+02  0.10858082352E+03  0.00000000000E+00 0. -1.
        -12    1    4    4    0    0 -0.55349453344E+02  0.37602262692E+02  0.48803108191E+02  0.82820501774E+02  0.00000000000E+00 0.  1.
</event>
<event>
12    1  0.1061634E+000  0.2353047E+03  0.7818608E-02  0.1122978E+00
         21   -1    0    0  503  502  0.00000000000E+00  0.00000000000E+00  0.44254736977E+02  0.44254736977E+02  0.00000000000E+00 0.  1.
         21   -1    0    0  501  503 -0.00000000000E+00 -0.00000000000E+00 -0.15742436990E+04  0.15742436990E+04  0.00000000000E+00 0.  1.
          6    2    1    2  501    0 -0.63111786191E+02  0.14731986379E+03 -0.11317998080E+04  0.11559804372E+04  0.17214449138E+03 0.  0.
         24    2    3    3    0    0 -0.68558032965E+01  0.13518694531E+03 -0.10020577045E+04  0.10139697096E+04  0.75448105582E+02 0.  0.
         -6    2    1    2    0  502  0.63111786191E+02 -0.14731986379E+03 -0.39818915397E+03  0.46251799875E+03  0.17228481364E+03 0.  0.
        -24    2    5    5    0    0  0.90758894621E+00 -0.10714699707E+03 -0.14033554998E+03  0.19420140876E+03  0.80862957385E+02 0.  0.
          5    1    3    3  501    0 -0.56255982895E+02  0.12132918481E+02 -0.12974210351E+03  0.14201072757E+03  0.47000000000E+01 0. -1.
        -13    1    4    4    0    0 -0.24435711569E+02  0.87674914581E+02 -0.81865093813E+03  0.82369493937E+03  0.00000000000E+00 0.  1.
         14    1    4    4    0    0  0.17579908272E+02  0.47512030724E+02 -0.18340676641E+03  0.19027477027E+03  0.00000000000E+00 0. -1.
         -5    1    5    5    0  502  0.62204197245E+02 -0.40172866712E+02 -0.25785360399E+03  0.26831658999E+03  0.47000000000E+01 0.  1.
         13    1    6    6    0    0  0.42282662560E+01 -0.55594573336E+02 -0.13009186292E+03  0.14153631201E+03  0.00000000000E+00 0. -1.
        -14    1    6    6    0    0 -0.33206773098E+01 -0.51552423738E+02 -0.10243687061E+02  0.52665096750E+02  0.00000000000E+00 0.  1.
</event>
<event>
12    1  0.1061634E+000  0.2256964E+03  0.7818608E-02  0.1129807E+00
         21   -1    0    0  501  502  0.00000000000E+00  0.00000000000E+00  0.80773252658E+03  0.80773252658E+03  0.00000000000E+00 0.  1.
         21   -1    0    0  502  503 -0.00000000000E+00 -0.00000000000E+00 -0.82390048971E+02  0.82390048971E+02  0.00000000000E+00 0.  1.
         -6    2    1    2    0  503  0.14501765032E+03  0.10185778845E+02  0.14659510344E+03  0.26912633923E+03  0.17264122660E+03 0.  0.
        -24    2    3    3    0    0  0.10427650058E+03 -0.50010831430E+02  0.53007365447E+02  0.15053364185E+03  0.80473130317E+02 0.  0.
          6    2    1    2  501    0 -0.14501765032E+03 -0.10185778845E+02  0.57874737417E+03  0.62099623631E+03  0.17191257493E+03 0.  0.
         24    2    5    5    0    0 -0.51896349214E+02  0.46283979799E+02  0.37649406533E+03  0.39123788218E+03  0.80522427769E+02 0.  0.
          5    1    5    5  501    0 -0.93121301104E+02 -0.56469758644E+02  0.20225330884E+03  0.22975835414E+03  0.47000000000E+01 0. -1.
        -13    1    6    6    0    0 -0.66528884211E+02  0.36006351643E+02  0.35639945086E+03  0.36433929018E+03  0.00000000000E+00 0.  1.
         14    1    6    6    0    0  0.14632534996E+02  0.10277628155E+02  0.20094614471E+02  0.26898592001E+02  0.00000000000E+00 0. -1.
         -5    1    3    3    0  503  0.40741149741E+02  0.60196610276E+02  0.93587737991E+02  0.11859269739E+03  0.47000000000E+01 0.  1.
         13    1    4    4    0    0  0.34659117809E+02 -0.19441403257E+02  0.62340689535E+02  0.73929589338E+02  0.00000000000E+00 0. -1.
        -14    1    4    4    0    0  0.69617382769E+02 -0.30569428173E+02 -0.93333240878E+01  0.76604052510E+02  0.00000000000E+00 0.  1.
</event>
<event>
12    1  0.1061634E+000  0.2187803E+03  0.7818608E-02  0.1134900E+00
         21   -1    0    0  503  502  0.00000000000E+00  0.00000000000E+00  0.15153361951E+03  0.15153361951E+03  0.00000000000E+00 0.  1.
         21   -1    0    0  501  503 -0.00000000000E+00 -0.00000000000E+00 -0.31516929122E+03  0.31516929122E+03  0.00000000000E+00 0.  1.
          6    2    1    2  501    0 -0.12239070494E+03  0.58009290096E+02 -0.85861818712E+02  0.23450986881E+03  0.17110834072E+03 0.  0.
         24    2    3    3    0    0 -0.70539846556E+02 -0.30084906372E+02 -0.15006980736E+02  0.11004462454E+03  0.77483148985E+02 0.  0.
         -6    2    1    2    0  502  0.12239070494E+03 -0.58009290096E+02 -0.77773852995E+02  0.23219304192E+03  0.17181465046E+03 0.  0.
        -24    2    5    5    0    0  0.22989519826E+02  0.28654632343E+02 -0.26436646883E+02  0.90599151566E+02  0.78483781698E+02 0.  0.
          5    1    3    3  501    0 -0.51850858383E+02  0.88094196468E+02 -0.70854837976E+02  0.12446524427E+03  0.47000000000E+01 0. -1.
        -11    1    4    4    0    0 -0.66123105287E+02 -0.52565093619E+02 -0.19513541033E+02  0.86695630822E+02  0.00000000000E+00 0.  1.
         12    1    4    4    0    0 -0.44167412686E+01  0.22480187247E+02  0.45065602977E+01  0.23348993722E+02  0.00000000000E+00 0. -1.
         -5    1    5    5    0  502  0.99401185114E+02 -0.86663922439E+02 -0.51337206113E+02  0.14159389036E+03  0.47000000000E+01 0.  1.
         13    1    6    6    0    0  0.42910878110E+02 -0.37101504622E+01  0.20250416671E+01  0.43118551349E+02  0.00000000000E+00 0. -1.
        -14    1    6    6    0    0 -0.19921358285E+02  0.32364782806E+02 -0.28461688550E+02  0.47480600218E+02  0.00000000000E+00 0.  1.
</event>
<event>
12    1  0.1061634E+000  0.2263472E+03  0.7818608E-02  0.1129527E+00
         21   -1    0    0  501  502  0.00000000000E+00  0.00000000000E+00  0.21953028569E+02  0.21953028569E+02  0.00000000000E+00 0.  1.
         21   -1    0    0  502  503 -0.00000000000E+00 -0.00000000000E+00 -0.23588556708E+04  0.23588556708E+04  0.00000000000E+00 0.  1.
         -6    2    1    2    0  503  0.14702704765E+03  0.41457533011E+01 -0.13306601643E+04  0.13497738832E+04  0.17204337527E+03 0.  0.
        -24    2    3    3    0    0  0.17331119603E+03  0.79621884560E+00 -0.12441212097E+04  0.12591474163E+04  0.87047268869E+02 0.  0.
          6    2    1    2  501    0 -0.14702704765E+03 -0.41457533011E+01 -0.10062424779E+04  0.10310348161E+04  0.16992565344E+03 0.  0.
         24    2    5    5    0    0 -0.14881763084E+03  0.24646712398E+01 -0.10083819747E+04  0.10224574420E+04  0.80201321801E+02 0.  0.
          5    1    5    5  501    0  0.17905831922E+01 -0.66104245409E+01  0.21394967408E+01  0.85773741368E+01  0.47000000000E+01 0. -1.
        -13    1    6    6    0    0  0.25472964317E+01  0.10000479417E+02 -0.19817186092E+02  0.22343213115E+02  0.00000000000E+00 0.  1.
         14    1    6    6    0    0 -0.15136492727E+03 -0.75358081769E+01 -0.98856478857E+03  0.10001142289E+04  0.00000000000E+00 0. -1.
         -5    1    3    3    0  503 -0.26284148378E+02  0.33495344555E+01 -0.86538954610E+02  0.90626466896E+02  0.47000000000E+01 0.  1.
         13    1    4    4    0    0  0.36111173042E+02 -0.16246300547E+02 -0.11570249081E+03  0.12229074160E+03  0.00000000000E+00 0. -1.
        -14    1    4    4    0    0  0.13720002298E+03  0.17042519392E+02 -0.11284187189E+04  0.11368566747E+04  0.00000000000E+00 0.  1.
</event>
<event>
12    1  0.1061634E+000  0.1925146E+03  0.7818608E-02  0.1156230E+00
         21   -1    0    0  501  502  0.00000000000E+00  0.00000000000E+00  0.49797952088E+02  0.49797952088E+02  0.00000000000E+00 0. -1.
         21   -1    0    0  502  503 -0.00000000000E+00 -0.00000000000E+00 -0.86072622496E+03  0.86072622496E+03  0.00000000000E+00 0. -1.
         -6    2    1    2    0  503  0.87085209769E+02  0.31434947036E+01 -0.57323142985E+03  0.60469508321E+03  0.17166291438E+03 0.  0.
        -24    2    3    3    0    0  0.10413574665E+03  0.89061030510E+01 -0.57021718037E+03  0.58585087554E+03  0.84557927944E+02 0.  0.
          6    2    1    2  501    0 -0.87085209769E+02 -0.31434947036E+01 -0.23769684303E+03  0.30582909384E+03  0.17157485287E+03 0.  0.
         24    2    5    5    0    0 -0.12125674267E+03 -0.22550133387E+01 -0.13554737363E+03  0.19800939639E+03  0.78270989737E+02 0.  0.
          5    1    5    5  501    0  0.34171532899E+02 -0.88848136489E+00 -0.10214946940E+03  0.10781969745E+03  0.47000000000E+01 0. -1.
        -11    1    6    6    0    0  0.86416505159E+01 -0.36359428195E+01 -0.27462533378E+02  0.29018768812E+02  0.00000000000E+00 0.  1.
         12    1    6    6    0    0 -0.12989839318E+03  0.13809294808E+01 -0.10808484025E+03  0.16899062758E+03  0.00000000000E+00 0. -1.
         -5    1    3    3    0  503 -0.17050536882E+02 -0.57626083474E+01 -0.30142494822E+01  0.18844207674E+02  0.47000000000E+01 0.  1.
         13    1    4    4    0    0  0.61683535561E+02  0.31282657453E+02 -0.46614031171E+03  0.47124330596E+03  0.00000000000E+00 0. -1.
        -14    1    4    4    0    0  0.42452211090E+02 -0.22376554402E+02 -0.10407686866E+03  0.11460756958E+03  0.00000000000E+00 0.  1.
</event>
<event>
12    1  0.1061634E+000  0.2154361E+03  0.7818608E-02  0.1137608E+00
         21   -1    0    0  501  502  0.00000000000E+00  0.00000000000E+00  0.70313710366E+02  0.70313710366E+02  0.00000000000E+00 0. -1.
         21   -1    0    0  502  503 -0.00000000000E+00 -0.00000000000E+00 -0.72838623658E+03  0.72838623658E+03  0.00000000000E+00 0. -1.
         -6    2    1    2    0  503 -0.91752112736E+02  0.89186679373E+02 -0.20386569665E+03  0.29660402535E+03  0.17332054585E+03 0.  0.
        -24    2    3    3    0    0 -0.39685469568E+02 -0.13068370524E+02 -0.13527907323E+03  0.16283838898E+03  0.80437519042E+02 0.  0.
          6    2    1    2  501    0  0.91752112736E+02 -0.89186679373E+02 -0.45420682957E+03  0.50209592160E+03  0.17153354334E+03 0.  0.
         24    2    5    5    0    0  0.10058358401E+03 -0.36885623999E+02 -0.18885069157E+03  0.23144972220E+03  0.80167222529E+02 0.  0.
          5    1    5    5  501    0 -0.88314712754E+01 -0.52301055374E+02 -0.26535613799E+03  0.27064619940E+03  0.47000000000E+01 0. -1.
        -11    1    6    6    0    0  0.29401286289E+02 -0.46629139074E+02 -0.46996520609E+02  0.72438837619E+02  0.00000000000E+00 0.  1.
         12    1    6    6    0    0  0.71182297722E+02  0.97435150749E+01 -0.14185417097E+03  0.15901088458E+03  0.00000000000E+00 0. -1.
         -5    1    3    3    0  503 -0.52066643168E+02  0.10225504990E+03 -0.68586623414E+02  0.13376563636E+03  0.47000000000E+01 0.  1.
         11    1    4    4    0    0 -0.17224902400E+02  0.23885686443E+01 -0.13444022713E+03  0.13556023456E+03  0.00000000000E+00 0. -1.
        -12    1    4    4    0    0 -0.22460567168E+02 -0.15456939168E+02 -0.83884609914E+00  0.27278154423E+02  0.00000000000E+00 0.  1.
</event>
<event>
12    1  0.1061634E+000  0.1801057E+03  0.7818608E-02  0.1168486E+00
         21   -1    0    0  503  502  0.00000000000E+00  0.00000000000E+00  0.77520798428E+02  0.77520798428E+02  0.00000000000E+00 0.  1.
         21   -1    0    0  501  503 -0.00000000000E+00 -0.00000000000E+00 -0.45199821580E+03  0.45199821580E+03  0.00000000000E+00 0.  1.
          6    2    1    2  501    0 -0.37215664743E+02 -0.25443573957E+02 -0.10597276650E+03  0.20620368837E+03  0.17104780824E+03 0.  0.
         24    2    3    3    0    0 -0.62073397028E+02  0.32891451556E+02 -0.86803349833E+02  0.13979255534E+03  0.84096270914E+02 0.  0.
         -6    2    1    2    0  502  0.37215664743E+02  0.25443573957E+02 -0.26850465088E+03  0.32331532585E+03  0.17437222035E+03 0.  0.
        -24    2    5    5    0    0 -0.63229169287E+00  0.33134528210E+02 -0.53902158293E+02  0.10521457297E+03  0.84061685356E+02 0.  0.
          5    1    3    3  501    0  0.24857732286E+02 -0.58335025513E+02 -0.19169416663E+02  0.66411133036E+02  0.47000000000E+01 0. -1.
        -13    1    4    4    0    0  0.16766804728E+02 -0.25027372758E+01  0.48597632424E+00  0.16959528521E+02  0.00000000000E+00 0.  1.
         14    1    4    4    0    0 -0.78840201757E+02  0.35394188831E+02 -0.87289326157E+02  0.12283302682E+03  0.00000000000E+00 0. -1.
         -5    1    5    5    0  502  0.37847956435E+02 -0.76909542534E+01 -0.21460249258E+03  0.21810075288E+03  0.47000000000E+01 0.  1.
         11    1    6    6    0    0  0.39743815876E+02  0.33173161828E+01 -0.28025284116E+02  0.48744148744E+02  0.00000000000E+00 0. -1.
        -12    1    6    6    0    0 -0.40376107569E+02  0.29817212028E+02 -0.25876874178E+02  0.56470424230E+02  0.00000000000E+00 0.  1.
</event>
<event>
12    1  0.1061634E+000  0.2193638E+03  0.7818608E-02  0.1135191E+00
         21   -1    0    0  501  502  0.00000000000E+00  0.00000000000E+00  0.14683097943E+03  0.14683097943E+03  0.00000000000E+00 0.  1.
         21   -1    0    0  502  503 -0.00000000000E+00 -0.00000000000E+00 -0.51813980258E+03  0.51813980258E+03  0.00000000000E+00 0.  1.
         -6    2    1    2    0  503  0.13416978771E+03 -0.25613235071E+02  0.18162842562E+02  0.22011446923E+03  0.17164766520E+03 0.  0.
        -24    2    3    3    0    0  0.14990270526E+03  0.11493987154E+02 -0.10173496729E+02  0.17062195706E+03  0.80033864158E+02 0.  0.
          6    2    1    2  501    0 -0.13416978771E+03  0.25613235071E+02 -0.38947166571E+03  0.44485631279E+03  0.16598611657E+03 0.  0.
         24    2    5    5    0    0 -0.38652904599E+02 -0.41368791076E+02 -0.17959147362E+03  0.20468584871E+03  0.80235748614E+02 0.  0.
          5    1    5    5  501    0 -0.95516883106E+02  0.66982026147E+02 -0.20988019209E+03  0.24017046408E+03  0.47000000000E+01 0. -1.
        -11    1    6    6    0    0  0.14992055728E+02  0.93767775364E+01 -0.72351133567E+02  0.74480683538E+02  0.00000000000E+00 0.  1.
         12    1    6    6    0    0 -0.53644960328E+02 -0.50745568613E+02 -0.10724034005E+03  0.13020516517E+03  0.00000000000E+00 0. -1.
         -5    1    3    3    0  503 -0.15732917550E+02 -0.37107222225E+02  0.28336339291E+02  0.49492512164E+02  0.47000000000E+01 0.  1.
         13    1    4    4    0    0  0.60035951633E+02 -0.20359347592E+01  0.34588486380E+02  0.69316837124E+02  0.00000000000E+00 0. -1.
        -14    1    4    4    0    0  0.89866753622E+02  0.13529921913E+02 -0.44761983109E+02  0.10130511994E+03  0.00000000000E+00 0.  1.
</event>
<event>
12    1  0.1061634E+000  0.2413118E+03  0.7818608E-02  0.1119267E+00
         21   -1    0    0  501  502  0.00000000000E+00  0.00000000000E+00  0.27398350191E+03  0.27398350191E+03  0.00000000000E+00 0.  1.
         21   -1    0    0  502  503 -0.00000000000E+00 -0.00000000000E+00 -0.21128382153E+03  0.21128382153E+03  0.00000000000E+00 0. -1.
         -6    2    1    2    0  503 -0.16539818055E+03  0.36422059071E+01  0.44143493031E+02  0.24531622575E+03  0.17567463916E+03 0.  0.
        -24    2    3    3    0    0 -0.74230206829E+02  0.46916143083E+02 -0.27766369521E+02  0.12131077666E+03  0.78956223116E+02 0.  0.
          6    2    1    2  501    0  0.16539818055E+03 -0.36422059071E+01  0.18556187343E+02  0.23995109770E+03  0.17280733029E+03 0.  0.
         24    2    5    5    0    0  0.17001759597E+03 -0.15078188507E+02  0.59226630523E+02  0.19719252376E+03  0.79017485123E+02 0.  0.
          5    1    5    5  501    0 -0.46194154142E+01  0.11435982599E+02 -0.40670443180E+02  0.42758573939E+02  0.47000000000E+01 0. -1.
        -13    1    6    6    0    0  0.19027974782E+02  0.13587669495E+02  0.34279482131E+02  0.41494234320E+02  0.00000000000E+00 0.  1.
         14    1    6    6    0    0  0.15098962119E+03 -0.28665858001E+02  0.24947148392E+02  0.15569828944E+03  0.00000000000E+00 0. -1.
         -5    1    3    3    0  503 -0.91167973725E+02 -0.43273937176E+02  0.71909862552E+02  0.12400544909E+03  0.47000000000E+01 0.  1.
         13    1    4    4    0    0 -0.79500574543E+02  0.19857807592E+02  0.33750689973E+00  0.81943808710E+02  0.00000000000E+00 0. -1.
        -14    1    4    4    0    0  0.52703677135E+01  0.27058335491E+02 -0.28103876421E+02  0.39366967946E+02  0.00000000000E+00 0.  1.
</event>
<event>
12    1  0.1061634E+000  0.2035625E+03  0.7818608E-02  0.1146788E+00
         21   -1    0    0  503  502  0.00000000000E+00  0.00000000000E+00  0.26791091848E+03  0.26791091848E+03  0.00000000000E+00 0. -1.
         21   -1    0    0  501  503 -0.00000000000E+00 -0.00000000000E+00 -0.18904892135E+03  0.18904892135E+03  0.00000000000E+00 0. -1.
          6    2    1    2  501    0 -0.97254937530E+01  0.10910562790E+03 -0.58102106539E+02  0.21169205508E+03  0.17157811088E+03 0.  0.
         24    2    3    3    0    0 -0.56740812611E+02  0.21534860419E+02 -0.47808742063E+02  0.11165644704E+03  0.80611514809E+02 0.  0.
         -6    2    1    2    0  502  0.97254937530E+01 -0.10910562790E+03  0.13696410366E+03  0.24526778474E+03  0.17145989990E+03 0.  0.
        -24    2    5    5    0    0  0.57008933510E+02 -0.28136705790E+02  0.10536561534E+03  0.14621101069E+03  0.78956025979E+02 0.  0.
          5    1    3    3  501    0  0.47015318858E+02  0.87570767476E+02 -0.10293364475E+02  0.10003560804E+03  0.47000000000E+01 0. -1.
        -11    1    4    4    0    0 -0.22517178791E+02  0.29346868723E+02  0.14829808264E+02  0.39852042077E+02  0.00000000000E+00 0.  1.
         12    1    4    4    0    0 -0.34223633820E+02 -0.78120083035E+01 -0.62638550328E+02  0.71804404967E+02  0.00000000000E+00 0. -1.
         -5    1    5    5    0  502 -0.47283439757E+02 -0.80968922105E+02  0.31598488327E+02  0.99056774058E+02  0.47000000000E+01 0.  1.
         13    1    6    6    0    0  0.28021789788E+02 -0.13053624279E+02  0.10903188570E+03  0.11332947503E+03  0.00000000000E+00 0. -1.
        -14    1    6    6    0    0  0.28987143722E+02 -0.15083081511E+02 -0.36662703666E+01  0.32881535661E+02  0.00000000000E+00 0.  1.
</event>
<event>
12    1  0.1061634E+000  0.2156135E+03  0.7818608E-02  0.1137447E+00
         21   -1    0    0  501  502  0.00000000000E+00  0.00000000000E+00  0.28339344159E+03  0.28339344159E+03  0.00000000000E+00 0.  1.
         21   -1    0    0  502  503 -0.00000000000E+00 -0.00000000000E+00 -0.16469143761E+04  0.16469143761E+04  0.00000000000E+00 0.  1.
         -6    2    1    2    0  503  0.12493441746E+03  0.34401417963E+02  0.23457604423E+03  0.31773126688E+03  0.17069027859E+03 0.  0.
        -24    2    3    3    0    0  0.89683147983E+02 -0.39689580469E+02  0.14791734493E+03  0.19829949467E+03  0.88458006011E+02 0.  0.
          6    2    1    2  501    0 -0.12493441746E+03 -0.34401417963E+02 -0.15980969787E+04  0.16125765508E+04  0.17232850187E+03 0.  0.
         24    2    5    5    0    0 -0.83756433361E+02 -0.55056831610E+02 -0.14816481692E+04  0.14872582052E+04  0.81297459999E+02 0.  0.
          5    1    5    5  501    0 -0.41177984104E+02  0.20655413647E+02 -0.11644880953E+03  0.12531834554E+03  0.47000000000E+01 0. -1.
        -11    1    6    6    0    0 -0.22415389123E+02 -0.62901693986E+02 -0.83036217654E+03  0.83304286625E+03  0.00000000000E+00 0.  1.
         12    1    6    6    0    0 -0.61341044238E+02  0.78448623754E+01 -0.65128599262E+03  0.65421533898E+03  0.00000000000E+00 0. -1.
         -5    1    3    3    0  503  0.35251269482E+02  0.74090998432E+02  0.86658699300E+02  0.11943177221E+03  0.47000000000E+01 0.  1.
         11    1    4    4    0    0  0.77332003664E+02 -0.21214184746E+02  0.15538357571E+03  0.17485518587E+03  0.00000000000E+00 0. -1.
        -12    1    4    4    0    0  0.12351144319E+02 -0.18475395723E+02 -0.74662307841E+01  0.23444308803E+02  0.00000000000E+00 0.  1.
</event>
<event>
12    1  0.1061634E+000  0.1771943E+03  0.7818608E-02  0.1171391E+00
         21   -1    0    0  503  502  0.00000000000E+00  0.00000000000E+00  0.16119401816E+03  0.16119401816E+03  0.00000000000E+00 0. -1.
         21   -1    0    0  501  503 -0.00000000000E+00 -0.00000000000E+00 -0.23211883363E+03  0.23211883363E+03  0.00000000000E+00 0. -1.
          6    2    1    2  501    0  0.14750606289E+02  0.24020891400E+02 -0.11842888568E+03  0.21312728177E+03  0.17493785656E+03 0.  0.
         24    2    3    3    0    0 -0.25887958320E+02  0.60004558703E+02 -0.26897623688E+02  0.10660789776E+03  0.79818721201E+02 0.  0.
         -6    2    1    2    0  502 -0.14750606289E+02 -0.24020891400E+02  0.47504070223E+02  0.18018557002E+03  0.17150982289E+03 0.  0.
        -24    2    5    5    0    0 -0.36389288290E+02  0.14090637487E+02  0.84387345227E+02  0.12271220952E+03  0.80089549649E+02 0.  0.
          5    1    3    3  501    0  0.40638564609E+02 -0.35983667303E+02 -0.91531261997E+02  0.10651938400E+03  0.47000000000E+01 0. -1.
        -11    1    4    4    0    0  0.53198358558E+00  0.34956465031E+02  0.25167270043E+02  0.43077011682E+02  0.00000000000E+00 0.  1.
         12    1    4    4    0    0 -0.26419941906E+02  0.25048093672E+02 -0.52064893732E+02  0.63530886080E+02  0.00000000000E+00 0. -1.
         -5    1    5    5    0  502  0.21638682002E+02 -0.38111528887E+02 -0.36883275004E+02  0.57473360506E+02  0.47000000000E+01 0.  1.
         11    1    6    6    0    0 -0.14521995628E+01  0.33819095732E+02  0.73835948872E+02  0.81225534566E+02  0.00000000000E+00 0. -1.
        -12    1    6    6    0    0 -0.34937088727E+02 -0.19728458245E+02  0.10551396355E+02  0.41486674951E+02  0.00000000000E+00 0.  1.
</event>
<event>
12    1  0.1061634E+000  0.4047123E+03  0.7818608E-02  0.1042239E+00
         21   -1    0    0  501  502  0.00000000000E+00  0.00000000000E+00  0.10178242807E+04  0.10178242807E+04  0.00000000000E+00 0.  1.
         21   -1    0    0  502  503 -0.00000000000E+00 -0.00000000000E+00 -0.16892735628E+03  0.16892735628E+03  0.00000000000E+00 0. -1.
         -6    2    1    2    0  503  0.41097317461E+02  0.36353853526E+03  0.29283541844E+03  0.49954445868E+03  0.17303996007E+03 0.  0.
        -24    2    3    3    0    0 -0.57627703402E+01  0.33444862564E+03  0.21785298056E+03  0.40634281352E+03  0.75930680511E+02 0.  0.
          6    2    1    2  501    0 -0.41097317461E+02 -0.36353853526E+03  0.55606150598E+03  0.68720717831E+03  0.17088022520E+03 0.  0.
         24    2    5    5    0    0 -0.35496019357E+02 -0.61201386377E+02  0.13650759944E+03  0.17001601769E+03  0.72564071547E+02 0.  0.
          5    1    5    5  501    0 -0.56012981047E+01 -0.30233714889E+03  0.41955390654E+03  0.51719116063E+03  0.47000000000E+01 0. -1.
        -13    1    6    6    0    0 -0.23984420388E+01 -0.67593843622E+02  0.90762000352E+02  0.11319196494E+03  0.00000000000E+00 0.  1.
         14    1    6    6    0    0 -0.33097577318E+02  0.63924572448E+01  0.45745599090E+02  0.56824052742E+02  0.00000000000E+00 0. -1.
         -5    1    3    3    0  503  0.46860087802E+02  0.29089909622E+02  0.74982437879E+02  0.93201645162E+02  0.47000000000E+01 0.  1.
         11    1    4    4    0    0 -0.30345070136E+02  0.79730229324E+02  0.37019534417E+02  0.92995584186E+02  0.00000000000E+00 0. -1.
        -12    1    4    4    0    0  0.24582299796E+02  0.25471839632E+03  0.18083344614E+03  0.31334722933E+03  0.00000000000E+00 0.  1.
</event>
<event>
12    1  0.1061634E+000  0.1804849E+03  0.7818608E-02  0.1167986E+00
         21   -1    0    0  503  502  0.00000000000E+00  0.00000000000E+00  0.13111200771E+03  0.13111200771E+03  0.00000000000E+00 0. -1.
         21   -1    0    0  501  503 -0.00000000000E+00 -0.00000000000E+00 -0.25438320836E+03  0.25438320836E+03  0.00000000000E+00 0. -1.
          6    2    1    2  501    0 -0.49570100528E+02  0.55274019865E+01 -0.23729952527E+02  0.17938058204E+03  0.17066498038E+03 0.  0.
         24    2    3    3    0    0 -0.64260043975E+02 -0.40834175479E+02 -0.53455292911E+02  0.12218900780E+03  0.79220591687E+02 0.  0.
         -6    2    1    2    0  502  0.49570100528E+02 -0.55274019865E+01 -0.99541248123E+02  0.20611463403E+03  0.17345614791E+03 0.  0.
        -24    2    5    5    0    0 -0.15929260125E+02  0.33648869394E+02 -0.95482475689E+02  0.12954107385E+03  0.79233824290E+02 0.  0.
          5    1    3    3  501    0  0.14689943447E+02  0.46361577466E+02  0.29725340385E+02  0.57191574245E+02  0.47000000000E+01 0. -1.
        -11    1    4    4    0    0 -0.78011438055E+02 -0.35940555288E+02 -0.23788223228E+02  0.89125683987E+02  0.00000000000E+00 0.  1.
         12    1    4    4    0    0  0.13751394080E+02 -0.48936201915E+01 -0.29667069684E+02  0.33063323809E+02  0.00000000000E+00 0. -1.
         -5    1    5    5    0  502  0.65499360652E+02 -0.39176271381E+02 -0.40587724337E+01  0.76573560181E+02  0.47000000000E+01 0.  1.
         13    1    6    6    0    0 -0.72787312487E+01  0.14859802086E+01  0.13594853315E+02  0.15492194887E+02  0.00000000000E+00 0. -1.
        -14    1    6    6    0    0 -0.86505288759E+01  0.32162889186E+02 -0.10907732900E+03  0.11404887897E+03  0.00000000000E+00 0.  1.
</event>
<event>
12    1  0.1061634E+000  0.2363990E+03  0.7818608E-02  0.1122261E+00
         21   -1    0    0  503  502  0.00000000000E+00  0.00000000000E+00  0.15154900978E+03  0.15154900978E+03  0.00000000000E+00 0.  1.
         21   -1    0    0  501  503 -0.00000000000E+00 -0.00000000000E+00 -0.74790269194E+03  0.74790269194E+03  0.00000000000E+00 0. -1.
          6    2    1    2  501    0 -0.15149573594E+03 -0.54963992883E+02  0.22122848093E+02  0.23743194811E+03  0.17295233752E+03 0.  0.
         24    2    3    3    0    0 -0.45611352845E+02  0.34531491289E+02  0.11658513026E+02  0.98318553428E+02  0.79106242632E+02 0.  0.
         -6    2    1    2    0  502  0.15149573594E+03  0.54963992883E+02 -0.61847653025E+03  0.66201975361E+03  0.17258313120E+03 0.  0.
        -24    2    5    5    0    0  0.70367220257E+02  0.42941245719E+02 -0.52442736387E+03  0.53714494348E+03  0.81884883001E+02 0.  0.
          5    1    3    3  501    0 -0.10588438310E+03 -0.89495484172E+02  0.10464335067E+02  0.13911339468E+03  0.47000000000E+01 0. -1.
        -13    1    4    4    0    0 -0.78821921001E+01 -0.10598528850E+02  0.33155886777E+02  0.35689922864E+02  0.00000000000E+00 0.  1.
         14    1    4    4    0    0 -0.37729160745E+02  0.45130020138E+02 -0.21497373751E+02  0.62628630564E+02  0.00000000000E+00 0. -1.
         -5    1    5    5    0  502  0.81128515685E+02  0.12022747164E+02 -0.94049166383E+02  0.12487481013E+03  0.47000000000E+01 0.  1.
         13    1    6    6    0    0  0.73160244319E+02  0.19842116876E+02 -0.48846602877E+03  0.49431284852E+03  0.00000000000E+00 0. -1.
        -14    1    6    6    0    0 -0.27930240623E+01  0.23099128843E+02 -0.35961335103E+02  0.42832094965E+02  0.00000000000E+00 0.  1.
</event>
<event>
12    1  0.1061634E+000  0.1873824E+03  0.7818608E-02  0.1160976E+00
         21   -1    0    0  503  502  0.00000000000E+00  0.00000000000E+00  0.12947916581E+04  0.12947916581E+04  0.00000000000E+00 0. -1.
         21   -1    0    0  501  503 -0.00000000000E+00 -0.00000000000E+00 -0.27431842544E+02  0.27431842544E+02  0.00000000000E+00 0. -1.
          6    2    1    2  501    0  0.17677435221E+02  0.72088213725E+02  0.71418830284E+03  0.73836107610E+03  0.17205506241E+03 0.  0.
         24    2    3    3    0    0  0.21661796607E+02  0.41339502993E+02  0.69595970229E+03  0.70208808028E+03  0.79934831705E+02 0.  0.
         -6    2    1    2    0  502 -0.17677435221E+02 -0.72088213725E+02  0.55317151275E+03  0.58386242458E+03  0.17142755335E+03 0.  0.
        -24    2    5    5    0    0 -0.22888540916E+02 -0.91360300187E+01  0.47991230069E+03  0.48701648917E+03  0.79132117445E+02 0.  0.
          5    1    3    3  501    0 -0.39843613856E+01  0.30748710732E+02  0.18228600554E+02  0.36272995817E+02  0.47000000000E+01 0. -1.
        -11    1    4    4    0    0  0.10794543037E+02  0.30285949767E+02  0.84167702344E+02  0.90099739347E+02  0.00000000000E+00 0.  1.
         12    1    4    4    0    0  0.10867253569E+02  0.11053553226E+02  0.61179199995E+03  0.61198834093E+03  0.00000000000E+00 0. -1.
         -5    1    5    5    0  502  0.52111056955E+01 -0.62952183707E+02  0.73259212052E+02  0.96845935415E+02  0.47000000000E+01 0.  1.
         13    1    6    6    0    0  0.16484159434E+02 -0.29098367990E+02  0.29586776054E+03  0.29775186692E+03  0.00000000000E+00 0. -1.
        -14    1    6    6    0    0 -0.39372700351E+02  0.19962337971E+02  0.18404454016E+03  0.18926462224E+03  0.00000000000E+00 0.  1.
</event>
<event>
12    1  0.1061634E+000  0.2597122E+03  0.7818608E-02  0.1107488E+00
         21   -1    0    0  501  502  0.00000000000E+00  0.00000000000E+00  0.14473985802E+04  0.14473985802E+04  0.00000000000E+00 0.  1.
         21   -1    0    0  502  503 -0.00000000000E+00 -0.00000000000E+00 -0.76721901199E+02  0.76721901199E+02  0.00000000000E+00 0. -1.
         -6    2    1    2    0  503  0.20778265583E+02 -0.19312608741E+03  0.20714781190E+03  0.33220571699E+03  0.17239779715E+03 0.  0.
        -24    2    3    3    0    0  0.76100283407E+02 -0.16332928734E+03  0.15191575632E+03  0.24841404130E+03  0.78507513392E+02 0.  0.
          6    2    1    2  501    0 -0.20778265583E+02  0.19312608741E+03  0.11635288671E+04  0.11919147644E+04  0.17068086915E+03 0.  0.
         24    2    5    5    0    0  0.33281526588E+02  0.44969541954E+02  0.53734620136E+03  0.54615966845E+03  0.80121929634E+02 0.  0.
          5    1    5    5  501    0 -0.54059792171E+02  0.14815654546E+03  0.62618266573E+03  0.64575509595E+03  0.47000000000E+01 0. -1.
        -13    1    6    6    0    0 -0.14261372342E+02  0.40652517528E+02  0.35746074754E+03  0.36004749680E+03  0.00000000000E+00 0.  1.
         14    1    6    6    0    0  0.47542898929E+02  0.43170244258E+01  0.17988545382E+03  0.18611217165E+03  0.00000000000E+00 0. -1.
         -5    1    3    3    0  503 -0.55322017823E+02 -0.29796800075E+02  0.55232055582E+02  0.83791675688E+02  0.47000000000E+01 0.  1.
         11    1    4    4    0    0  0.47084427155E+02 -0.29033324823E+02  0.22665557610E+02  0.59779634764E+02  0.00000000000E+00 0. -1.
        -12    1    4    4    0    0  0.29015856252E+02 -0.13429596252E+03  0.12925019871E+03  0.18863440653E+03  0.00000000000E+00 0.  1.
</event>
<event>
12    1  0.1061634E+000  0.2944808E+03  0.7818608E-02  0.1088046E+00
         21   -1    0    0  501  502  0.00000000000E+00  0.00000000000E+00  0.32383620525E+03  0.32383620525E+03  0.00000000000E+00 0. -1.
         21   -1    0    0  502  503 -0.00000000000E+00 -0.00000000000E+00 -0.27602134667E+03  0.27602134667E+03  0.00000000000E+00 0. -1.
         -6    2    1    2    0  503 -0.90156608768E+02  0.22161673407E+03  0.76016882351E+02  0.30413407267E+03  0.17168802181E+03 0.  0.
        -24    2    3    3    0    0 -0.52491815171E+02  0.22056925749E+03  0.22741970280E+02  0.23871205696E+03  0.71134105162E+02 0.  0.
          6    2    1    2  501    0  0.90156608768E+02 -0.22161673407E+03 -0.28202023768E+02  0.29572347925E+03  0.17150752494E+03 0.  0.
         24    2    5    5    0    0  0.37884672068E+02 -0.19826156319E+03 -0.65642563882E+02  0.22715451092E+03  0.80915572198E+02 0.  0.
          5    1    5    5  501    0  0.52271936701E+02 -0.23355170885E+02  0.37440540114E+02  0.68568968328E+02  0.47000000000E+01 0. -1.
        -13    1    6    6    0    0  0.47435156791E+02 -0.18437474861E+03 -0.37029605227E+02  0.19394672900E+03  0.00000000000E+00 0.  1.
         14    1    6    6    0    0 -0.95504847236E+01 -0.13886814580E+02 -0.28612958655E+02  0.33207781929E+02  0.00000000000E+00 0. -1.
         -5    1    3    3    0  503 -0.37664793597E+02  0.10474765882E+01  0.53274912071E+02  0.65422015714E+02  0.47000000000E+01 0.  1.
         11    1    4    4    0    0  0.16531979774E+02  0.63420628296E+02 -0.24606116645E+00  0.65540392086E+02  0.00000000000E+00 0. -1.
        -12    1    4    4    0    0 -0.69023794945E+02  0.15714862919E+03  0.22988031446E+02  0.17317166487E+03  0.00000000000E+00 0.  1.
</event>
<event>
12    1  0.1061634E+000  0.2680812E+03  0.7818608E-02  0.1102727E+00
         21   -1    0    0  503  502  0.00000000000E+00  0.00000000000E+00  0.16160970250E+03  0.16160970250E+03  0.00000000000E+00 0. -1.
         21   -1    0    0  501  503 -0.00000000000E+00 -0.00000000000E+00 -0.52531295748E+03  0.52531295748E+03  0.00000000000E+00 0. -1.
          6    2    1    2  501    0  0.26873595918E+02  0.20324161831E+03 -0.32030854241E+03  0.41769015754E+03  0.17273725652E+03 0.  0.
         24    2    3    3    0    0  0.60002874398E+02  0.12455179187E+03 -0.11986525867E+03  0.19976990177E+03  0.80167572133E+02 0.  0.
         -6    2    1    2    0  502 -0.26873595918E+02 -0.20324161831E+03 -0.43394712567E+02  0.26923250244E+03  0.16903755122E+03 0.  0.
        -24    2    5    5    0    0  0.18821054362E+02 -0.19105684597E+03 -0.25476817476E+01  0.20656640580E+03  0.76198680074E+02 0.  0.
          5    1    3    3  501    0 -0.33129278479E+02  0.78689826438E+02 -0.20044328374E+03  0.21792025577E+03  0.47000000000E+01 0. -1.
        -13    1    4    4    0    0  0.24375005494E+02  0.26208176578E+02 -0.80341777595E+02  0.87953457234E+02  0.00000000000E+00 0.  1.
         14    1    4    4    0    0  0.35627868903E+02  0.98343615294E+02 -0.39523481074E+02  0.11181644453E+03  0.00000000000E+00 0. -1.
         -5    1    5    5    0  502 -0.45694650280E+02 -0.12184772341E+02 -0.40847030820E+02  0.62666096639E+02  0.47000000000E+01 0.  1.
         13    1    6    6    0    0  0.27548688182E+02 -0.14552784088E+03 -0.32152112629E+02  0.15156200394E+03  0.00000000000E+00 0. -1.
        -14    1    6    6    0    0 -0.87276338204E+01 -0.45529005089E+02  0.29604430881E+02  0.55004401863E+02  0.00000000000E+00 0.  1.
</event>
<event>
12    1  0.1061634E+000  0.2356266E+03  0.7818608E-02  0.1123327E+00
         21   -1    0    0  501  502  0.00000000000E+00  0.00000000000E+00  0.13688599982E+03  0.13688599982E+03  0.00000000000E+00 0. -1.
         21   -1    0    0  502  503 -0.00000000000E+00 -0.00000000000E+00 -0.43536242593E+03  0.43536242593E+03  0.00000000000E+00 0. -1.
         -6    2    1    2    0  503  0.81562455074E+02 -0.13968810079E+03 -0.66397422488E+02  0.24152113795E+03  0.16660925179E+03 0.  0.
        -24    2    3    3    0    0  0.89776837103E+02 -0.86321795330E+02  0.12254397473E+02  0.14600340444E+03  0.75202998762E+02 0.  0.
          6    2    1    2  501    0 -0.81562455074E+02  0.13968810079E+03 -0.23207900362E+03  0.33072728779E+03  0.17133206176E+03 0.  0.
         24    2    5    5    0    0 -0.10777636827E+02  0.13508772953E+03 -0.19549803328E+03  0.25077785815E+03  0.79405295753E+02 0.  0.
          5    1    5    5  501    0 -0.70784818247E+02  0.46003712639E+01 -0.36580970337E+02  0.79949429647E+02  0.47000000000E+01 0. -1.
        -13    1    6    6    0    0 -0.36211816049E+02  0.54597162454E+02 -0.12362387281E+03  0.13991071331E+03  0.00000000000E+00 0.  1.
         14    1    6    6    0    0  0.25434179222E+02  0.80490567075E+02 -0.71874160471E+02  0.11086714484E+03  0.00000000000E+00 0. -1.
         -5    1    3    3    0  503 -0.82143820285E+01 -0.53366305463E+02 -0.78651819961E+02  0.95517733505E+02  0.47000000000E+01 0.  1.
         11    1    4    4    0    0  0.37780260885E+02 -0.21599317530E+02 -0.29990258696E+02  0.52851624828E+02  0.00000000000E+00 0. -1.
        -12    1    4    4    0    0  0.51996576217E+02 -0.64722477800E+02  0.42244656169E+02  0.93151779617E+02  0.00000000000E+00 0.  1.
</event>
<event>
12    1  0.1061634E+000  0.6269740E+03  0.7818608E-02  0.9851025E-01
         21   -1    0    0  503  502  0.00000000000E+00  0.00000000000E+00  0.14682771132E+04  0.14682771132E+04  0.00000000000E+00 0.  1.
         21   -1    0    0  501  503 -0.00000000000E+00 -0.00000000000E+00 -0.26839887160E+03  0.26839887160E+03  0.00000000000E+00 0. -1.
          6    2    1    2  501    0  0.68867455361E+02  0.59911435617E+03  0.64491972982E+03  0.89945419022E+03  0.17150989541E+03 0.  0.
         24    2    3    3    0    0  0.24858347542E+02  0.49804198322E+03  0.58858388402E+03  0.77556616148E+03  0.80050782678E+02 0.  0.
         -6    2    1    2    0  502 -0.68867455361E+02 -0.59911435617E+03  0.55495851182E+03  0.83722179463E+03  0.17111588292E+03 0.  0.
        -24    2    5    5    0    0 -0.67671346784E+02 -0.19067293732E+03  0.21920134993E+03  0.30846780167E+03  0.78533894955E+02 0.  0.
          5    1    3    3  501    0  0.44009107819E+02  0.10107237295E+03  0.56335845801E+02  0.12388802875E+03  0.47000000000E+01 0. -1.
        -11    1    4    4    0    0  0.48093653901E+02  0.20100643786E+03  0.25677428472E+03  0.32962041942E+03  0.00000000000E+00 0.  1.
         12    1    4    4    0    0 -0.23235306359E+02  0.29703554536E+03  0.33180959930E+03  0.44594574206E+03  0.00000000000E+00 0. -1.
         -5    1    5    5    0  502 -0.11961085779E+01 -0.40844141885E+03  0.33575716189E+03  0.52875399296E+03  0.47000000000E+01 0.  1.
         13    1    6    6    0    0 -0.21724125429E+02 -0.38294593959E+02  0.10113035455E+03  0.11029851388E+03  0.00000000000E+00 0. -1.
        -14    1    6    6    0    0 -0.45947221354E+02 -0.15237834336E+03  0.11807099537E+03  0.19816928779E+03  0.00000000000E+00 0.  1.
</event>
<event>
12    1  0.1061634E+000  0.4601848E+03  0.7818608E-02  0.1024745E+00
         21   -1    0    0  501  502  0.00000000000E+00  0.00000000000E+00  0.65856429895E+03  0.65856429895E+03  0.00000000000E+00 0. -1.
         21   -1    0    0  502  503 -0.00000000000E+00 -0.00000000000E+00 -0.69408048777E+03  0.69408048777E+03  0.00000000000E+00 0. -1.
         -6    2    1    2    0  503 -0.27365030622E+03  0.32856220169E+03  0.47783347373E+03  0.66322622705E+03  0.16943018963E+03 0.  0.
        -24    2    3    3    0    0 -0.12234894321E+03  0.88919461345E+02  0.22642233716E+03  0.28434577751E+03  0.81911610384E+02 0.  0.
          6    2    1    2  501    0  0.27365030622E+03 -0.32856220169E+03 -0.51334966255E+03  0.68941855967E+03  0.17009545527E+03 0.  0.
         24    2    5    5    0    0  0.25521110428E+03 -0.32626520969E+03 -0.51960831780E+03  0.66925569515E+03  0.79553043662E+02 0.  0.
          5    1    5    5  501    0  0.18439201938E+02 -0.22969920001E+01  0.62586552486E+01  0.20162864525E+02  0.47000000000E+01 0. -1.
        -11    1    6    6    0    0  0.24139902775E+02 -0.15989538524E+02 -0.72165070698E+02  0.77757299832E+02  0.00000000000E+00 0.  1.
         12    1    6    6    0    0  0.23107120151E+03 -0.31027567116E+03 -0.44744324710E+03  0.59149839532E+03  0.00000000000E+00 0. -1.
         -5    1    3    3    0  503 -0.15130136302E+03  0.23964274034E+03  0.25141113657E+03  0.37888044954E+03  0.47000000000E+01 0.  1.
         13    1    4    4    0    0 -0.13272863322E+02  0.19717745972E+02  0.10292387190E+03  0.10563276866E+03  0.00000000000E+00 0. -1.
        -14    1    4    4    0    0 -0.10907607988E+03  0.69201715373E+02  0.12349846526E+03  0.17871300886E+03  0.00000000000E+00 0.  1.
</event>
<event>
12    1  0.1061634E+000  0.2153412E+03  0.7818608E-02  0.1137542E+00
         21   -1    0    0  503  502  0.00000000000E+00  0.00000000000E+00  0.40736393367E+03  0.40736393367E+03  0.00000000000E+00 0. -1.
         21   -1    0    0  501  503 -0.00000000000E+00 -0.00000000000E+00 -0.11817976500E+03  0.11817976500E+03  0.00000000000E+00 0.  1.
          6    2    1    2  501    0  0.98109779292E+02 -0.82693194816E+02  0.91832747357E+02  0.23344886002E+03  0.17205064224E+03 0.  0.
         24    2    3    3    0    0 -0.64551331787E+01 -0.11811581971E+02  0.35121876804E+01  0.79239148194E+02  0.78008492686E+02 0.  0.
         -6    2    1    2    0  502 -0.98109779292E+02  0.82693194816E+02  0.19735142132E+03  0.29209483865E+03  0.17293963689E+03 0.  0.
        -24    2    5    5    0    0 -0.11427771624E+03  0.10705232803E+03  0.19339259020E+03  0.26221956626E+03  0.82697095585E+02 0.  0.
          5    1    3    3  501    0  0.10456491247E+03 -0.70881612846E+02  0.88320559676E+02  0.15420971183E+03  0.47000000000E+01 0. -1.
        -13    1    4    4    0    0 -0.80980282499E+01 -0.44587707860E+02 -0.42512425380E+01  0.45516094042E+02  0.00000000000E+00 0.  1.
         14    1    4    4    0    0  0.16428950712E+01  0.32776125889E+02  0.77634302185E+01  0.33723054151E+02  0.00000000000E+00 0. -1.
         -5    1    5    5    0  502  0.16167936951E+02 -0.24359133219E+02  0.39588311174E+01  0.29875272387E+02  0.47000000000E+01 0.  1.
         13    1    6    6    0    0  0.10399215001E+02  0.23578555976E+02  0.18148976204E+02  0.31519475120E+02  0.00000000000E+00 0. -1.
        -14    1    6    6    0    0 -0.12467693124E+03  0.83473772058E+02  0.17524361400E+03  0.23070009114E+03  0.00000000000E+00 0.  1.
</event>
<event>
12    1  0.1061634E+000  0.1788060E+03  0.7818608E-02  0.1169829E+00
         21   -1    0    0  503  502  0.00000000000E+00  0.00000000000E+00  0.86507740906E+02  0.86507740906E+02  0.00000000000E+00 0.  1.
         21   -1    0    0  501  503 -0.00000000000E+00 -0.00000000000E+00 -0.45712514509E+03  0.45712514509E+03  0.00000000000E+00 0.  1.
          6    2    1    2  501    0  0.44013693410E+02  0.29810728357E+01 -0.60100031823E+02  0.18531374368E+03  0.16965576256E+03 0.  0.
         24    2    3    3    0    0 -0.40710779638E+01 -0.36940315171E+02 -0.79995358928E+02  0.11955831425E+03  0.80707945684E+02 0.  0.
         -6    2    1    2    0  502 -0.44013693410E+02 -0.29810728357E+01 -0.31051737237E+03  0.35831914232E+03  0.17327861152E+03 0.  0.
        -24    2    5    5    0    0  0.27479729726E+02  0.66256703969E+01 -0.12759741840E+03  0.16163310157E+03  0.95105853061E+02 0.  0.
          5    1    3    3  501    0  0.48084771374E+02  0.39921388006E+02  0.19895327105E+02  0.65755429427E+02  0.47000000000E+01 0. -1.
        -11    1    4    4    0    0  0.37156719450E+02 -0.28345288237E+02 -0.41436027443E+02  0.62458158280E+02  0.00000000000E+00 0.  1.
         12    1    4    4    0    0 -0.41227797414E+02 -0.85950269337E+01 -0.38559331486E+02  0.57100155974E+02  0.00000000000E+00 0. -1.
         -5    1    5    5    0  502 -0.71493423136E+02 -0.96067432327E+01 -0.18291995397E+03  0.19668604075E+03  0.47000000000E+01 0.  1.
         11    1    6    6    0    0 -0.11722166564E+02  0.53853452081E+01  0.11395425773E+02  0.17212404263E+02  0.00000000000E+00 0. -1.
        -12    1    6    6    0    0  0.39201896290E+02  0.12403251888E+01 -0.13899284417E+03  0.14442069730E+03  0.00000000000E+00 0.  1.
</event>
<event>
12    1  0.1061634E+000  0.3245804E+03  0.7818608E-02  0.1073594E+00
         21   -1    0    0  501  502  0.00000000000E+00  0.00000000000E+00  0.33440256510E+03  0.33440256510E+03  0.00000000000E+00 0.  1.
         21   -1    0    0  502  503 -0.00000000000E+00 -0.00000000000E+00 -0.35720027872E+03  0.35720027872E+03  0.00000000000E+00 0.  1.
         -6    2    1    2    0  503 -0.21989835359E+03 -0.16507395027E+03 -0.13060066884E+03  0.34986989740E+03  0.17247526038E+03 0.  0.
        -24    2    3    3    0    0 -0.33973845419E+02 -0.54062324609E+02 -0.68672680242E+02  0.12459524384E+03  0.82043163400E+02 0.  0.
          6    2    1    2  501    0  0.21989835359E+03  0.16507395027E+03  0.10780295522E+03  0.34173294641E+03  0.17191635914E+03 0.  0.
         24    2    5    5    0    0  0.21701171280E+03  0.18227122260E+03  0.74815694977E+02  0.30412539120E+03  0.81104767285E+02 0.  0.
          5    1    5    5  501    0  0.28866407879E+01 -0.17197272335E+02  0.32987260239E+02  0.37607555210E+02  0.47000000000E+01 0. -1.
        -11    1    6    6    0    0  0.13346920981E+03  0.62148803158E+02  0.51414712779E+02  0.15594863382E+03  0.00000000000E+00 0.  1.
         12    1    6    6    0    0  0.83542502991E+02  0.12012241944E+03  0.23400982197E+02  0.14817675738E+03  0.00000000000E+00 0. -1.
         -5    1    3    3    0  503 -0.18592450817E+03 -0.11101162566E+03 -0.61927988596E+02  0.22527465357E+03  0.47000000000E+01 0.  1.
         13    1    4    4    0    0 -0.58116289364E+02 -0.22591003705E+02 -0.53392062266E+02  0.82088786389E+02  0.00000000000E+00 0. -1.
        -14    1    4    4    0    0  0.24142443945E+02 -0.31471320905E+02 -0.15280617976E+02  0.42506457449E+02  0.00000000000E+00 0.  1.
</event>
<event>
12    1  0.1061634E+000  0.2622383E+03  0.7818608E-02  0.1105882E+00
         21   -1    0    0  503  502  0.00000000000E+00  0.00000000000E+00  0.29191753012E+03  0.29191753012E+03  0.00000000000E+00 0.  1.
         21   -1    0    0  501  503 -0.00000000000E+00 -0.00000000000E+00 -0.24836051526E+03  0.24836051526E+03  0.00000000000E+00 0.  1.
          6    2    1    2  501    0 -0.30693789979E+02  0.19507215733E+03 -0.40575559118E+02  0.26535882029E+03  0.17255049174E+03 0.  0.
         24    2    3    3    0    0 -0.22782596641E+01  0.68079113496E+02  0.37935108686E+02  0.11330392723E+03  0.82211625047E+02 0.  0.
         -6    2    1    2    0  502  0.30693789979E+02 -0.19507215733E+03  0.84132573975E+02  0.27491922509E+03  0.17177611886E+03 0.  0.
        -24    2    5    5    0    0  0.63331922303E+02 -0.17696614262E+03  0.10660208994E+03  0.23110091158E+03  0.81949238799E+02 0.  0.
          5    1    3    3  501    0 -0.28415530315E+02  0.12699304383E+03 -0.78510667804E+02  0.15205489306E+03  0.47000000000E+01 0. -1.
        -11    1    4    4    0    0  0.25877902801E+02  0.27527275298E+02 -0.15245233462E+02  0.40741058921E+02  0.00000000000E+00 0.  1.
         12    1    4    4    0    0 -0.28156162465E+02  0.40551838197E+02  0.53180342148E+02  0.72562868307E+02  0.00000000000E+00 0. -1.
         -5    1    5    5    0  502 -0.32638132324E+02 -0.18106014710E+02 -0.22469515970E+02  0.43818313502E+02  0.47000000000E+01 0.  1.
         13    1    6    6    0    0  0.46679187831E+02 -0.63499238937E+02  0.68533710802E+01  0.79107955462E+02  0.00000000000E+00 0. -1.
        -14    1    6    6    0    0  0.16652734472E+02 -0.11346690368E+03  0.99748718864E+02  0.15199295612E+03  0.00000000000E+00 0.  1.
</event>
<event>
12    1  0.1061634E+000  0.3146724E+03  0.7818608E-02  0.1078154E+00
         21   -1    0    0  503  502  0.00000000000E+00  0.00000000000E+00  0.84245262448E+03  0.84245262448E+03  0.00000000000E+00 0.  1.
         21   -1    0    0  501  503 -0.00000000000E+00 -0.00000000000E+00 -0.13264122287E+03  0.13264122287E+03  0.00000000000E+00 0.  1.
          6    2    1    2  501    0 -0.15203738330E+03 -0.21520597520E+03  0.51999507245E+03  0.60779403673E+03  0.17201667950E+03 0.  0.
         24    2    3    3    0    0 -0.85454687966E+02 -0.93745044527E+02  0.14169101214E+03  0.20490191091E+03  0.76274590160E+02 0.  0.
         -6    2    1    2    0  502  0.15203738330E+03  0.21520597520E+03  0.18981632916E+03  0.36729981063E+03  0.17160983184E+03 0.  0.
        -24    2    5    5    0    0  0.23495148002E+02  0.36229701877E+02  0.46827948977E+02  0.10457680148E+03  0.82938756464E+02 0.  0.
          5    1    3    3  501    0 -0.66582695338E+02 -0.12146093067E+03  0.37830406031E+03  0.40289212582E+03  0.47000000000E+01 0. -1.
        -13    1    4    4    0    0 -0.45492348662E+02 -0.44105797347E+00  0.55329897498E+02  0.71632017115E+02  0.00000000000E+00 0.  1.
         14    1    4    4    0    0 -0.39962339304E+02 -0.93303986553E+02  0.86361114638E+02  0.13326989379E+03  0.00000000000E+00 0. -1.
         -5    1    5    5    0  502  0.12854223530E+03  0.17897627332E+03  0.14298838018E+03  0.26272300915E+03  0.47000000000E+01 0.  1.
         11    1    6    6    0    0  0.26377904273E+02  0.40507909759E+02 -0.84383429557E+01  0.49070257985E+02  0.00000000000E+00 0. -1.
        -12    1    6    6    0    0 -0.28827562707E+01 -0.42782078814E+01  0.55266291932E+02  0.55506543491E+02  0.00000000000E+00 0.  1.
</event>
<event>
12    1  0.1061634E+000  0.2175900E+03  0.7818608E-02  0.1137252E+00
         21   -1    0    0  503  502  0.00000000000E+00  0.00000000000E+00  0.19026389515E+03  0.19026389515E+03  0.00000000000E+00 0.  1.
         21   -1    0    0  501  503 -0.00000000000E+00 -0.00000000000E+00 -0.30539504990E+03  0.30539504990E+03  0.00000000000E+00 0.  1.
          6    2    1    2  501    0 -0.63857222873E+02 -0.10031658371E+03 -0.17165269995E+03  0.27084767755E+03  0.17248957403E+03 0.  0.
         24    2    3    3    0    0  0.29549371157E+02 -0.29996660370E+02 -0.10091943483E+03  0.13411813347E+03  0.77652922874E+02 0.  0.
         -6    2    1    2    0  502  0.63857222873E+02  0.10031658371E+03  0.56521545201E+02  0.22481126750E+03  0.18222035848E+03 0.  0.
        -24    2    5    5    0    0  0.44592566680E+02  0.13351617414E+03  0.76992190757E+01  0.16252925315E+03  0.80879010847E+02 0.  0.
          5    1    3    3  501    0 -0.93406594031E+02 -0.70319923343E+02 -0.70733265120E+02  0.13672954407E+03  0.47000000000E+01 0. -1.
        -13    1    4    4    0    0 -0.13457796025E+02 -0.80432326360E+01  0.60108885602E+01  0.16790969191E+02  0.00000000000E+00 0.  1.
         14    1    4    4    0    0  0.43007167182E+02 -0.21953427734E+02 -0.10693032339E+03  0.11732716428E+03  0.00000000000E+00 0. -1.
         -5    1    5    5    0  502  0.19264656194E+02 -0.33199590430E+02  0.48822326125E+02  0.62282014348E+02  0.47000000000E+01 0.  1.
         11    1    6    6    0    0 -0.21379853003E+02  0.36399409117E+02  0.15243204087E+02  0.44881737593E+02  0.00000000000E+00 0. -1.
        -12    1    6    6    0    0  0.65972419683E+02  0.97116765026E+02 -0.75439850109E+01  0.11764751556E+03  0.00000000000E+00 0.  1.
</event>
<event>
12    1  0.1061634E+000  0.1942063E+03  0.7818608E-02  0.1155129E+00
         21   -1    0    0  501  502  0.00000000000E+00  0.00000000000E+00  0.32003341888E+02  0.32003341888E+02  0.00000000000E+00 0. -1.
         21   -1    0    0  502  503 -0.00000000000E+00 -0.00000000000E+00 -0.12218018908E+04  0.12218018908E+04  0.00000000000E+00 0. -1.
         -6    2    1    2    0  503  0.73597515047E+02 -0.47997331676E+02 -0.72458138889E+03  0.74967917814E+03  0.17111499917E+03 0.  0.
        -24    2    3    3    0    0  0.70635290428E+02  0.16461336865E+02 -0.59724976942E+03  0.60685366907E+03  0.79396276515E+02 0.  0.
          6    2    1    2  501    0 -0.73597515047E+02  0.47997331676E+02 -0.46521715997E+03  0.50412605450E+03  0.17319276781E+03 0.  0.
         24    2    5    5    0    0  0.22699397783E+02  0.38330053547E+02 -0.16294175504E+03  0.18670037483E+03  0.79514519181E+02 0.  0.
          5    1    5    5  501    0 -0.96296912830E+02  0.96672781290E+01 -0.30227540494E+03  0.31742567967E+03  0.47000000000E+01 0. -1.
        -11    1    6    6    0    0 -0.28322516245E+02  0.24771509674E+02 -0.56450127304E+02  0.67841060506E+02  0.00000000000E+00 0.  1.
         12    1    6    6    0    0  0.51021914028E+02  0.13558543873E+02 -0.10649162773E+03  0.11885931432E+03  0.00000000000E+00 0. -1.
         -5    1    3    3    0  503  0.29622246193E+01 -0.64458668541E+02 -0.12733161947E+03  0.14282550907E+03  0.47000000000E+01 0.  1.
         13    1    4    4    0    0  0.63393652573E+02  0.42915540386E+02 -0.36170874018E+03  0.36972112668E+03  0.00000000000E+00 0. -1.
        -14    1    4    4    0    0  0.72416378544E+01 -0.26454203521E+02 -0.23554102924E+03  0.23713254238E+03  0.00000000000E+00 0.  1.
</event>
<event>
12    1  0.1061634E+000  0.2335193E+03  0.7818608E-02  0.1124230E+00
         21   -1    0    0  501  502  0.00000000000E+00  0.00000000000E+00  0.20944237052E+03  0.20944237052E+03  0.00000000000E+00 0. -1.
         21   -1    0    0  502  503 -0.00000000000E+00 -0.00000000000E+00 -0.26582059994E+03  0.26582059994E+03  0.00000000000E+00 0. -1.
         -6    2    1    2    0  503  0.66285733271E+02  0.14267341684E+03  0.67309901851E+01  0.23336625294E+03  0.17223530263E+03 0.  0.
        -24    2    3    3    0    0 -0.30627798686E+02  0.58787095212E+02  0.16217855530E+02  0.10475350766E+03  0.79475115063E+02 0.  0.
          6    2    1    2  501    0 -0.66285733271E+02 -0.14267341684E+03 -0.63109219612E+02  0.24189671752E+03  0.17257388573E+03 0.  0.
         24    2    5    5    0    0 -0.40989173203E+02 -0.17145588727E+03 -0.61797636375E+02  0.20326827197E+03  0.80136189879E+02 0.  0.
          5    1    5    5  501    0 -0.25296560067E+02  0.28782470426E+02 -0.13115832369E+01  0.38628445551E+02  0.47000000000E+01 0. -1.
        -11    1    6    6    0    0 -0.61679876485E+02 -0.10061183530E+03 -0.51456489540E+02  0.12874361686E+03  0.00000000000E+00 0.  1.
         12    1    6    6    0    0  0.20690703281E+02 -0.70844051966E+02 -0.10341146835E+02  0.74524655109E+02  0.00000000000E+00 0. -1.
         -5    1    3    3    0  503  0.96913531956E+02  0.83886321631E+02 -0.94868653449E+01  0.12861274527E+03  0.47000000000E+01 0.  1.
         13    1    4    4    0    0  0.33934261936E+01  0.90005841986E+01 -0.28241742251E+02  0.29834910133E+02  0.00000000000E+00 0. -1.
        -14    1    4    4    0    0 -0.34021224879E+02  0.49786511014E+02  0.44459597781E+02  0.74918597532E+02  0.00000000000E+00 0.  1.
</event>
<event>
12    1  0.1061634E+000  0.2008929E+03  0.7818608E-02  0.1149095E+00
         21   -1    0    0  501  502  0.00000000000E+00  0.00000000000E+00  0.43812939479E+03  0.43812939479E+03  0.00000000000E+00 0. -1.
         21   -1    0    0  502  503 -0.00000000000E+00 -0.00000000000E+00 -0.92053808408E+02  0.92053808408E+02  0.00000000000E+00 0. -1.
         -6    2    1    2    0  503 -0.77902308762E+02 -0.67752318899E+02  0.16174727550E+03  0.25791497584E+03  0.17233341871E+03 0.  0.
        -24    2    3    3    0    0 -0.63927070657E+02  0.11329090949E+02  0.36360703006E+02  0.10894162512E+03  0.79568576054E+02 0.  0.
          6    2    1    2  501    0  0.77902308762E+02  0.67752318899E+02  0.18432831089E+03  0.27226822736E+03  0.17173792537E+03 0.  0.
         24    2    5    5    0    0  0.77604871009E+02  0.93016013380E+02  0.19620611058E+03  0.24395718970E+03  0.79647836309E+02 0.  0.
          5    1    5    5  501    0  0.29743775344E+00 -0.25263694481E+02 -0.11877799692E+02  0.28311037663E+02  0.47000000000E+01 0. -1.
        -13    1    6    6    0    0 -0.16380827085E+02  0.11301251196E+02  0.34796351654E+02  0.40085357215E+02  0.00000000000E+00 0.  1.
         14    1    6    6    0    0  0.93985698094E+02  0.81714762185E+02  0.16140975892E+03  0.20387183249E+03  0.00000000000E+00 0. -1.
         -5    1    3    3    0  503 -0.13975238105E+02 -0.79081409848E+02  0.12538657249E+03  0.14897335072E+03  0.47000000000E+01 0.  1.
         13    1    4    4    0    0 -0.29762124090E+02  0.21303249011E+02  0.57044503002E+02  0.67776749490E+02  0.00000000000E+00 0. -1.
        -14    1    4    4    0    0 -0.34164946567E+02 -0.99741580622E+01 -0.20683799996E+02  0.41164875625E+02  0.00000000000E+00 0.  1.
</event>
<event>
12    1  0.1061634E+000  0.2097365E+03  0.7818608E-02  0.1142040E+00
         21   -1    0    0  503  502  0.00000000000E+00  0.00000000000E+00  0.27444388129E+03  0.27444388129E+03  0.00000000000E+00 0. -1.
         21   -1    0    0  501  503 -0.00000000000E+00 -0.00000000000E+00 -0.20363819875E+03  0.20363819875E+03  0.00000000000E+00 0. -1.
          6    2    1    2  501    0  0.47739944201E+02  0.10929434422E+03  0.14707172585E+03  0.25616304581E+03  0.17252552723E+03 0.  0.
         24    2    3    3    0    0  0.43833568048E+02  0.92810258022E+02  0.27837445085E+02  0.13563965148E+03  0.84190652825E+02 0.  0.
         -6    2    1    2    0  502 -0.47739944201E+02 -0.10929434422E+03 -0.76266043307E+02  0.22191903422E+03  0.17090111889E+03 0.  0.
        -24    2    5    5    0    0 -0.34880379562E+02  0.11387069116E+02 -0.25376965778E+02  0.90233195429E+02  0.78432983774E+02 0.  0.
          5    1    3    3  501    0  0.39063761528E+01  0.16484086198E+02  0.11923428076E+03  0.12052339433E+03  0.47000000000E+01 0. -1.
        -11    1    4    4    0    0  0.51403390465E+02  0.10525868797E+03  0.19201019942E+02  0.11870290271E+03  0.00000000000E+00 0.  1.
         12    1    4    4    0    0 -0.75698224171E+01 -0.12448429951E+02  0.86364251427E+01  0.16936748771E+02  0.00000000000E+00 0. -1.
         -5    1    5    5    0  502 -0.12859564639E+02 -0.12068141334E+03 -0.50889077529E+02  0.13168583880E+03  0.47000000000E+01 0.  1.
         13    1    6    6    0    0 -0.33723920534E+02 -0.12067090603E+02 -0.46467521265E+02  0.58669822092E+02  0.00000000000E+00 0. -1.
        -14    1    6    6    0    0 -0.11564590277E+01  0.23454159719E+02  0.21090555487E+02  0.31563373336E+02  0.00000000000E+00 0.  1.
</event>
<event>
12    1  0.1061634E+000  0.1914459E+03  0.7818608E-02  0.1157643E+00
         21   -1    0    0  501  502  0.00000000000E+00  0.00000000000E+00  0.39236846604E+02  0.39236846604E+02  0.00000000000E+00 0.  1.
         21   -1    0    0  502  503 -0.00000000000E+00 -0.00000000000E+00 -0.13805463746E+04  0.13805463746E+04  0.00000000000E+00 0.  1.
         -6    2    1    2    0  503  0.74213087879E+02 -0.40025766979E+02 -0.25979213539E+03  0.32145202534E+03  0.16949869189E+03 0.  0.
        -24    2    3    3    0    0  0.56934406643E+02 -0.22756584221E+02 -0.27459951352E+03  0.29250162041E+03  0.79955714828E+02 0.  0.
          6    2    1    2  501    0 -0.74213087879E+02  0.40025766979E+02 -0.10815173926E+04  0.10983311958E+04  0.17187757519E+03 0.  0.
         24    2    5    5    0    0 -0.26021471245E+02 -0.43499421549E+02 -0.59750803268E+03  0.60478683156E+03  0.78625351339E+02 0.  0.
          5    1    5    5  501    0 -0.48191616633E+02  0.83525188528E+02 -0.48400935990E+03  0.49354436427E+03  0.47000000000E+01 0. -1.
        -11    1    6    6    0    0 -0.40423294680E+02 -0.25433533681E+02 -0.16796425749E+03  0.17462216120E+03  0.00000000000E+00 0.  1.
         12    1    6    6    0    0  0.14401823434E+02 -0.18065887868E+02 -0.42954377519E+03  0.43016467036E+03  0.00000000000E+00 0. -1.
         -5    1    3    3    0  503  0.17278681236E+02 -0.17269182758E+02  0.14807378133E+02  0.28950404929E+02  0.47000000000E+01 0.  1.
         11    1    4    4    0    0  0.59064836006E+01  0.27167757905E+02 -0.10200275317E+03  0.10572386331E+03  0.00000000000E+00 0. -1.
        -12    1    4    4    0    0  0.51027923043E+02 -0.49924342125E+02 -0.17259676035E+03  0.18677775711E+03  0.00000000000E+00 0.  1.
</event>
<event>
12    1  0.1061634E+000  0.2009455E+03  0.7818608E-02  0.1149588E+00
         21   -1    0    0  501  502  0.00000000000E+00  0.00000000000E+00  0.47752409402E+03  0.47752409402E+03  0.00000000000E+00 0.  1.
         21   -1    0    0  502  503 -0.00000000000E+00 -0.00000000000E+00 -0.12752017502E+03  0.12752017502E+03  0.00000000000E+00 0.  1.
         -6    2    1    2    0  503  0.99246239893E+02  0.13968384675E+01  0.35230911217E+03  0.40408551544E+03  0.17120638416E+03 0.  0.
        -24    2    3    3    0    0  0.12036859972E+03 -0.14338671287E+02  0.18197872298E+03  0.23166657265E+03  0.76543765067E+02 0.  0.
          6    2    1    2  501    0 -0.99246239893E+02 -0.13968384675E+01 -0.23051931660E+01  0.20095875361E+03  0.17472074704E+03 0.  0.
         24    2    5    5    0    0 -0.12182252862E+03 -0.13554283089E+02  0.39476133085E+02  0.15171180959E+03  0.80210105449E+02 0.  0.
          5    1    5    5  501    0  0.22576288726E+02  0.12157444621E+02 -0.41781326251E+02  0.49246944023E+02  0.47000000000E+01 0. -1.
        -11    1    6    6    0    0 -0.23522767931E+02  0.24229353199E+02  0.31365447707E+02  0.46088756519E+02  0.00000000000E+00 0.  1.
         12    1    6    6    0    0 -0.98299760688E+02 -0.37783636288E+02  0.81106853774E+01  0.10562305307E+03  0.00000000000E+00 0. -1.
         -5    1    3    3    0  503 -0.21122359831E+02  0.15735509754E+02  0.17033038919E+03  0.17241894279E+03  0.47000000000E+01 0.  1.
         13    1    4    4    0    0  0.73854001356E+02  0.85193986339E+01  0.15788433998E+03  0.17451205827E+03  0.00000000000E+00 0. -1.
        -14    1    4    4    0    0  0.46514598368E+02 -0.22858069921E+02  0.24094382999E+02  0.57154514380E+02  0.00000000000E+00 0.  1.
</event>
<event>
12    1  0.1061634E+000  0.1977874E+03  0.7818608E-02  0.1155064E+00
         21   -1    0    0  503  502  0.00000000000E+00  0.00000000000E+00  0.74689808457E+03  0.74689808457E+03  0.00000000000E+00 0.  1.
         21   -1    0    0  501  503 -0.00000000000E+00 -0.00000000000E+00 -0.57454621587E+02  0.57454621587E+02  0.00000000000E+00 0.  1.
          6    2    1    2  501    0 -0.38561190409E+02 -0.45491746191E+02  0.17318449996E+03  0.25150265854E+03  0.17234921482E+03 0.  0.
         24    2    3    3    0    0  0.14387824949E+02  0.18503206150E+02  0.33932480669E+02  0.89292402919E+02  0.79198117592E+02 0.  0.
         -6    2    1    2    0  502  0.38561190409E+02  0.45491746191E+02  0.51625896302E+03  0.55285004762E+03  0.18858259164E+03 0.  0.
        -24    2    5    5    0    0  0.79599201453E+02 -0.13496135101E+02  0.21379401213E+03  0.24193072527E+03  0.79400363173E+02 0.  0.
          5    1    3    3  501    0 -0.52949015358E+02 -0.63994952341E+02  0.13925201929E+03  0.16221025562E+03  0.47000000000E+01 0. -1.
        -11    1    4    4    0    0  0.24154340730E+02 -0.99392779706E+01  0.49097239988E+02  0.55612592073E+02  0.00000000000E+00 0.  1.
         12    1    4    4    0    0 -0.97665157813E+01  0.28442484120E+02 -0.15164759318E+02  0.33679810846E+02  0.00000000000E+00 0. -1.
         -5    1    5    5    0  502 -0.41038011044E+02  0.58987881292E+02  0.30246495089E+03  0.31091932235E+03  0.47000000000E+01 0.  1.
         11    1    6    6    0    0  0.12957147725E+02  0.30348499334E+02  0.72913962107E+02  0.80033523971E+02  0.00000000000E+00 0. -1.
        -12    1    6    6    0    0  0.66642053727E+02 -0.43844634435E+02  0.14088005002E+03  0.16189720130E+03  0.00000000000E+00 0.  1.
</event>
<event>
12    1  0.1061634E+000  0.2331986E+03  0.7818608E-02  0.1124511E+00
         21   -1    0    0  503  502  0.00000000000E+00  0.00000000000E+00  0.72419717795E+03  0.72419717795E+03  0.00000000000E+00 0. -1.
         21   -1    0    0  501  503 -0.00000000000E+00 -0.00000000000E+00 -0.75685907952E+02  0.75685907952E+02  0.00000000000E+00 0. -1.
          6    2    1    2  501    0 -0.15718931854E+03  0.23760715147E+02  0.28313753123E+03  0.36643235453E+03  0.16980210661E+03 0.  0.
         24    2    3    3    0    0 -0.20008371900E+02 -0.15789204375E+02  0.65954716898E+02  0.10648375750E+03  0.79618666216E+02 0.  0.
         -6    2    1    2    0  502  0.15718931854E+03 -0.23760715147E+02  0.36537373876E+03  0.43345073137E+03  0.17061217454E+03 0.  0.
        -24    2    5    5    0    0  0.96112883124E+02  0.41164652661E+02  0.28359991629E+03  0.31239420577E+03  0.78924092324E+02 0.  0.
          5    1    3    3  501    0 -0.13718094664E+03  0.39549919522E+02  0.21718281433E+03  0.25994859703E+03  0.47000000000E+01 0. -1.
        -11    1    4    4    0    0 -0.43875847569E+02 -0.16162794030E+02  0.68001316047E+02  0.82525783213E+02  0.00000000000E+00 0.  1.
         12    1    4    4    0    0  0.23867475669E+02  0.37358965500E+00 -0.20465991481E+01  0.23957974291E+02  0.00000000000E+00 0. -1.
         -5    1    5    5    0  502  0.61076435413E+02 -0.64925367808E+02  0.81773822472E+02  0.12105652560E+03  0.47000000000E+01 0.  1.
         13    1    6    6    0    0  0.24686763943E+02  0.51463450026E+02  0.10035607915E+03  0.11545243880E+03  0.00000000000E+00 0. -1.
        -14    1    6    6    0    0  0.71426119180E+02 -0.10298797365E+02  0.18324383714E+03  0.19694176697E+03  0.00000000000E+00 0.  1.
</event>
<event>
12    1  0.1061634E+000  0.2515483E+03  0.7818608E-02  0.1112526E+00
         21   -1    0    0  501  502  0.00000000000E+00  0.00000000000E+00  0.96781886626E+02  0.96781886626E+02  0.00000000000E+00 0. -1.
         21   -1    0    0  502  503 -0.00000000000E+00 -0.00000000000E+00 -0.65422216483E+03  0.65422216483E+03  0.00000000000E+00 0. -1.
         -6    2    1    2    0  503 -0.39107774697E+02 -0.17858119385E+03 -0.30743501734E+03  0.39723147056E+03  0.17278857163E+03 0.  0.
        -24    2    3    3    0    0 -0.47164114760E+02 -0.37841065925E+02 -0.70747596462E+02  0.12170340771E+03  0.78422554477E+02 0.  0.
          6    2    1    2  501    0  0.39107774697E+02  0.17858119385E+03 -0.25000526087E+03  0.35377258090E+03  0.17097294433E+03 0.  0.
         24    2    5    5    0    0  0.10933286198E+02  0.17144030206E+03 -0.12773999356E+03  0.22801217485E+03  0.78490330657E+02 0.  0.
          5    1    5    5  501    0  0.28174488499E+02  0.71408917824E+01 -0.12226526732E+03  0.12576040605E+03  0.47000000000E+01 0. -1.
        -11    1    6    6    0    0  0.23224054801E+02  0.41055347100E+02 -0.71105261540E+02  0.85327934849E+02  0.00000000000E+00 0.  1.
         12    1    6    6    0    0 -0.12290768602E+02  0.13038495496E+03 -0.56634732015E+02  0.14268424000E+03  0.00000000000E+00 0. -1.
         -5    1    3    3    0  503  0.80563400628E+01 -0.14074012792E+03 -0.23668742087E+03  0.27552806286E+03  0.47000000000E+01 0.  1.
         11    1    4    4    0    0 -0.71120148033E+01  0.21127112826E+02 -0.15323984275E+01  0.22344661463E+02  0.00000000000E+00 0. -1.
        -12    1    4    4    0    0 -0.40052099956E+02 -0.58968178751E+02 -0.69215198034E+02  0.99358746244E+02  0.00000000000E+00 0.  1.
</event>
<event>
12    1  0.1061634E+000  0.2360390E+03  0.7818608E-02  0.1122564E+00
         21   -1    0    0  503  502  0.00000000000E+00  0.00000000000E+00  0.33255164039E+03  0.33255164039E+03  0.00000000000E+00 0.  1.
         21   -1    0    0  501  503 -0.00000000000E+00 -0.00000000000E+00 -0.17206058034E+03  0.17206058034E+03  0.00000000000E+00 0.  1.
          6    2    1    2  501    0  0.43275838059E+02  0.15587056917E+03  0.37517682318E+02  0.23900201557E+03  0.17188936693E+03 0.  0.
         24    2    3    3    0    0  0.18995888196E+02  0.11621374652E+03  0.90243425813E+02  0.16854441431E+03  0.79980404116E+02 0.  0.
         -6    2    1    2    0  502 -0.43275838059E+02 -0.15587056917E+03  0.12297337773E+03  0.26561020516E+03  0.17104939919E+03 0.  0.
        -24    2    5    5    0    0 -0.36283996245E+02 -0.80510193239E+02 -0.27409258964E+01  0.11879655372E+03  0.79414664282E+02 0.  0.
          5    1    3    3  501    0  0.24279949862E+02  0.39656822653E+02 -0.52725743495E+02  0.70457601260E+02  0.47000000000E+01 0. -1.
        -13    1    4    4    0    0 -0.21969414131E+02  0.89170138104E+01  0.31835769927E+02  0.39694893115E+02  0.00000000000E+00 0.  1.
         14    1    4    4    0    0  0.40965302327E+02  0.10729673271E+03  0.58407655886E+02  0.12884952119E+03  0.00000000000E+00 0. -1.
         -5    1    5    5    0  502 -0.69918418141E+01 -0.75360375934E+02  0.12571430363E+03  0.14681365144E+03  0.47000000000E+01 0.  1.
         13    1    6    6    0    0 -0.25343877016E+02  0.86391644868E+01 -0.10237241943E+02  0.28666154046E+02  0.00000000000E+00 0. -1.
        -14    1    6    6    0    0 -0.10940119229E+02 -0.89149357726E+02  0.74963160464E+01  0.90130399677E+02  0.00000000000E+00 0.  1.
</event>
<event>
12    1  0.1061634E+000  0.2938989E+03  0.7818608E-02  0.1088421E+00
         21   -1    0    0  503  502  0.00000000000E+00  0.00000000000E+00  0.85342730819E+02  0.85342730819E+02  0.00000000000E+00 0.  1.
         21   -1    0    0  501  503 -0.00000000000E+00 -0.00000000000E+00 -0.10307175185E+04  0.10307175185E+04  0.00000000000E+00 0.  1.
          6    2    1    2  501    0 -0.14728478256E+03  0.18775159030E+03 -0.55293272927E+03  0.62618780611E+03  0.17156077232E+03 0.  0.
         24    2    3    3    0    0 -0.28728298554E+02  0.11163902538E+03 -0.18342699699E+03  0.23070665786E+03  0.79319049604E+02 0.  0.
         -6    2    1    2    0  502  0.14728478256E+03 -0.18775159030E+03 -0.39244205839E+03  0.48987244319E+03  0.17035484896E+03 0.  0.
        -24    2    5    5    0    0  0.14358350261E+03 -0.20476343751E+03 -0.39208660231E+03  0.47183584794E+03  0.79704931644E+02 0.  0.
          5    1    3    3  501    0 -0.11855648401E+03  0.76112564913E+02 -0.36950573228E+03  0.39548114825E+03  0.47000000000E+01 0. -1.
        -11    1    4    4    0    0 -0.71294243608E+01 -0.10440876324E+02 -0.35578115643E+02  0.37757686672E+02  0.00000000000E+00 0.  1.
         12    1    4    4    0    0 -0.21598874193E+02  0.12207990171E+03 -0.14784888135E+03  0.19294897119E+03  0.00000000000E+00 0. -1.
         -5    1    5    5    0  502  0.37012799492E+01  0.17011847213E+02 -0.35545608045E+00  0.18036595241E+02  0.47000000000E+01 0.  1.
         13    1    6    6    0    0  0.10901733106E+02 -0.53238596954E+02 -0.13300170693E+03  0.14367550257E+03  0.00000000000E+00 0. -1.
        -14    1    6    6    0    0  0.13268176951E+03 -0.15152484055E+03 -0.25908489538E+03  0.32816034538E+03  0.00000000000E+00 0.  1.
</event>
<event>
12    1  0.1061634E+000  0.1748566E+03  0.7818608E-02  0.1173951E+00
         21   -1    0    0  503  502  0.00000000000E+00  0.00000000000E+00  0.36945713298E+03  0.36945713298E+03  0.00000000000E+00 0.  1.
         21   -1    0    0  501  503 -0.00000000000E+00 -0.00000000000E+00 -0.25324670624E+03  0.25324670624E+03  0.00000000000E+00 0.  1.
          6    2    1    2  501    0  0.26103982868E+02 -0.13126132361E+02  0.31482059331E+03  0.35808932662E+03  0.16811379061E+03 0.  0.
         24    2    3    3    0    0  0.91586058662E+01 -0.54382694106E+02  0.10261308927E+03  0.14119450312E+03  0.79781477439E+02 0.  0.
         -6    2    1    2    0  502 -0.26103982868E+02  0.13126132361E+02 -0.19861016658E+03  0.26461451260E+03  0.17239816918E+03 0.  0.
        -24    2    5    5    0    0 -0.27351228911E+02  0.71379261544E+02 -0.90521405715E+02  0.14173142626E+03  0.77785497342E+02 0.  0.
          5    1    3    3  501    0  0.16945377002E+02  0.41256561745E+02  0.21220750405E+03  0.21689482350E+03  0.47000000000E+01 0. -1.
        -13    1    4    4    0    0  0.34070247167E+02 -0.39021826150E+02  0.98962669187E+02  0.11170091562E+03  0.00000000000E+00 0.  1.
         14    1    4    4    0    0 -0.24911641301E+02 -0.15360867956E+02  0.36504200798E+01  0.29493587497E+02  0.00000000000E+00 0. -1.
         -5    1    5    5    0  502  0.12472460425E+01 -0.58253129182E+02 -0.10808876086E+03  0.12288308633E+03  0.47000000000E+01 0.  1.
         11    1    6    6    0    0 -0.44006625545E+02  0.10790087638E+02 -0.47070813352E+02  0.65335063730E+02  0.00000000000E+00 0. -1.
        -12    1    6    6    0    0  0.16655396634E+02  0.60589173906E+02 -0.43450592364E+02  0.76396362534E+02  0.00000000000E+00 0.  1.
</event>
<event>
12    1  0.1061634E+000  0.1809245E+03  0.7818608E-02  0.1168069E+00
         21   -1    0    0  501  502  0.00000000000E+00  0.00000000000E+00  0.31243371757E+02  0.31243371757E+02  0.00000000000E+00 0.  1.
         21   -1    0    0  502  503 -0.00000000000E+00 -0.00000000000E+00 -0.10754612568E+04  0.10754612568E+04  0.00000000000E+00 0.  1.
         -6    2    1    2    0  503 -0.96876509710E+01 -0.39764444678E+02 -0.65392473641E+03  0.67849188138E+03  0.17623453282E+03 0.  0.
        -24    2    3    3    0    0  0.62843959224E+01 -0.78298587219E+02 -0.26999984202E+03  0.29227898548E+03  0.79730347227E+02 0.  0.
          6    2    1    2  501    0  0.96876509710E+01  0.39764444678E+02 -0.39029314868E+03  0.42821274723E+03  0.17135446694E+03 0.  0.
         24    2    5    5    0    0  0.60646582096E+02  0.44524360294E+02 -0.33377393478E+03  0.35181915458E+03  0.81922227816E+02 0.  0.
          5    1    5    5  501    0 -0.50958931125E+02 -0.47599156162E+01 -0.56519213896E+02  0.76393592647E+02  0.47000000000E+01 0. -1.
        -13    1    6    6    0    0  0.10790696152E+02  0.48467352581E+01 -0.22820737121E+03  0.22851375066E+03  0.00000000000E+00 0.  1.
         14    1    6    6    0    0  0.49855885943E+02  0.39677625036E+02 -0.10556656358E+03  0.12330540392E+03  0.00000000000E+00 0. -1.
         -5    1    3    3    0  503 -0.15972046893E+02  0.38534142541E+02 -0.38392489440E+03  0.38621289590E+03  0.47000000000E+01 0.  1.
         11    1    4    4    0    0 -0.78149147120E+01 -0.20709079401E+01 -0.14478013485E+03  0.14500568609E+03  0.00000000000E+00 0. -1.
        -12    1    4    4    0    0  0.14099310634E+02 -0.76227679279E+02 -0.12521970717E+03  0.14727329939E+03  0.00000000000E+00 0.  1.
</event>
<event>
12    1  0.1061634E+000  0.2259522E+03  0.7818608E-02  0.1129602E+00
         21   -1    0    0  501  502  0.00000000000E+00  0.00000000000E+00  0.15917930479E+03  0.15917930479E+03  0.00000000000E+00 0. -1.
         21   -1    0    0  502  503 -0.00000000000E+00 -0.00000000000E+00 -0.37977045040E+03  0.37977045040E+03  0.00000000000E+00 0.  1.
         -6    2    1    2    0  503  0.70444362097E+02 -0.12704442013E+03 -0.35732477963E+01  0.22598046418E+03  0.17306562123E+03 0.  0.
        -24    2    3    3    0    0  0.14740030469E+02 -0.14593711858E+03  0.48556920166E+01  0.16637305152E+03  0.78367744962E+02 0.  0.
          6    2    1    2  501    0 -0.70444362097E+02  0.12704442013E+03 -0.21701789781E+03  0.31296929101E+03  0.17248280002E+03 0.  0.
         24    2    5    5    0    0 -0.87043345691E+02  0.24872074957E+02 -0.92453243875E+02  0.15094102994E+03  0.77720190898E+02 0.  0.
          5    1    5    5  501    0  0.16598983594E+02  0.10217234517E+03 -0.12456465394E+03  0.16202826107E+03  0.47000000000E+01 0. -1.
        -13    1    6    6    0    0 -0.78783440859E+02  0.10769591892E+02 -0.10401086029E+03  0.13092392341E+03  0.00000000000E+00 0.  1.
         14    1    6    6    0    0 -0.82599048322E+01  0.14102483064E+02  0.11557616415E+02  0.20017106525E+02  0.00000000000E+00 0. -1.
         -5    1    3    3    0  503  0.55704331627E+02  0.18892698450E+02 -0.84289398128E+01  0.59607412653E+02  0.47000000000E+01 0.  1.
         13    1    4    4    0    0  0.13341470171E+02 -0.15518861324E+03 -0.15102185854E+00  0.15576110975E+03  0.00000000000E+00 0. -1.
        -14    1    4    4    0    0  0.13985602982E+01  0.92514946557E+01  0.50067138751E+01  0.10611941769E+02  0.00000000000E+00 0.  1.
</event>
<event>
12    1  0.1061634E+000  0.2156220E+03  0.7818608E-02  0.1137275E+00
         21   -1    0    0  501  502  0.00000000000E+00  0.00000000000E+00  0.13657945583E+03  0.13657945583E+03  0.00000000000E+00 0.  1.
         21   -1    0    0  502  503 -0.00000000000E+00 -0.00000000000E+00 -0.41728421960E+03  0.41728421960E+03  0.00000000000E+00 0.  1.
         -6    2    1    2    0  503  0.11642053722E+03 -0.57337225235E+02 -0.20827212622E+02  0.21618159202E+03  0.17163743490E+03 0.  0.
        -24    2    3    3    0    0 -0.70219775290E+01 -0.43509561879E+02 -0.35270113749E+01  0.90680015600E+02  0.79170924440E+02 0.  0.
          6    2    1    2  501    0 -0.11642053722E+03  0.57337225235E+02 -0.25987755115E+03  0.33768208341E+03  0.17219625135E+03 0.  0.
         24    2    5    5    0    0 -0.52706917933E+02  0.60423431313E+02 -0.60231939166E+02  0.12804093684E+03  0.79608949004E+02 0.  0.
          5    1    5    5  501    0 -0.63713619286E+02 -0.30862060776E+01 -0.19964561198E+03  0.20964114657E+03  0.47000000000E+01 0. -1.
        -11    1    6    6    0    0 -0.39103951321E+02  0.23675536321E+02  0.10751587682E+02  0.46960053946E+02  0.00000000000E+00 0.  1.
         12    1    6    6    0    0 -0.13602966612E+02  0.36747894992E+02 -0.70983526848E+02  0.81080882893E+02  0.00000000000E+00 0. -1.
         -5    1    3    3    0  503  0.12344251475E+03 -0.13827663356E+02 -0.17300201247E+02  0.12550157642E+03  0.47000000000E+01 0.  1.
         13    1    4    4    0    0  0.18900988251E+02 -0.44044932430E+02 -0.27592704260E+02  0.55304256238E+02  0.00000000000E+00 0. -1.
        -14    1    4    4    0    0 -0.25922965780E+02  0.53537055026E+00  0.24065692885E+02  0.35375759363E+02  0.00000000000E+00 0.  1.
</event>
<event>
12    1  0.1061634E+000  0.2258676E+03  0.7818608E-02  0.1129734E+00
         21   -1    0    0  503  502  0.00000000000E+00  0.00000000000E+00  0.60199273042E+03  0.60199273042E+03  0.00000000000E+00 0.  1.
         21   -1    0    0  501  503 -0.00000000000E+00 -0.00000000000E+00 -0.98186963274E+02  0.98186963274E+02  0.00000000000E+00 0.  1.
          6    2    1    2  501    0  0.12880221512E+03  0.69125720274E+02  0.38253808666E+03  0.44381666362E+03  0.17108321758E+03 0.  0.
         24    2    3    3    0    0  0.91826619065E+01  0.53220633630E+02  0.11411343568E+03  0.14947724637E+03  0.80030080947E+02 0.  0.
         -6    2    1    2    0  502 -0.12880221512E+03 -0.69125720274E+02  0.12126768048E+03  0.25636303008E+03  0.17218529855E+03 0.  0.
        -24    2    5    5    0    0 -0.91267552024E+02 -0.11446043265E+03  0.95290485444E+02  0.19185728039E+03  0.79359830693E+02 0.  0.
          5    1    3    3  501    0  0.11961955321E+03  0.15905086644E+02  0.26842465098E+03  0.29433941725E+03  0.47000000000E+01 0. -1.
        -11    1    4    4    0    0  0.40760063331E+01 -0.18245031276E+02  0.49818329600E+02  0.53210534277E+02  0.00000000000E+00 0.  1.
         12    1    4    4    0    0  0.51066555735E+01  0.71465664906E+02  0.64295106080E+02  0.96266712094E+02  0.00000000000E+00 0. -1.
         -5    1    5    5    0  502 -0.37534663092E+02  0.45334712380E+02  0.25977195041E+02  0.64505749683E+02  0.47000000000E+01 0.  1.
         13    1    6    6    0    0 -0.98500297001E+02 -0.84463369101E+02  0.54562361958E+02  0.14076015264E+03  0.00000000000E+00 0. -1.
        -14    1    6    6    0    0  0.72327449771E+01 -0.29997063553E+02  0.40728123486E+02  0.51097127751E+02  0.00000000000E+00 0.  1.
</event>
<event>
12    1  0.1061634E+000  0.2293725E+03  0.7818608E-02  0.1127876E+00
         21   -1    0    0  501  502  0.00000000000E+00  0.00000000000E+00  0.55881210541E+02  0.55881210541E+02  0.00000000000E+00 0.  1.
         21   -1    0    0  502  503 -0.00000000000E+00 -0.00000000000E+00 -0.11615286134E+04  0.11615286134E+04  0.00000000000E+00 0.  1.
         -6    2    1    2    0  503  0.23935983235E+02  0.14185708104E+03 -0.28148051607E+03  0.36310195783E+03  0.17864878427E+03 0.  0.
        -24    2    3    3    0    0  0.14630383747E+02  0.16597983518E+03 -0.17929829871E+03  0.25759462636E+03  0.80273020343E+02 0.  0.
          6    2    1    2  501    0 -0.23935983235E+02 -0.14185708104E+03 -0.82416688682E+03  0.85430786614E+03  0.17290028941E+03 0.  0.
         24    2    5    5    0    0 -0.62054514175E+02 -0.34363938166E+02 -0.32490763409E+03  0.34216561089E+03  0.80502742899E+02 0.  0.
          5    1    5    5  501    0  0.38118530940E+02 -0.10749314287E+03 -0.49925925274E+03  0.51214225525E+03  0.47000000000E+01 0. -1.
        -13    1    6    6    0    0 -0.54184485956E+02 -0.48157568324E+02 -0.15063206189E+03  0.16716796336E+03  0.00000000000E+00 0.  1.
         14    1    6    6    0    0 -0.78700282199E+01  0.13793630158E+02 -0.17427557220E+03  0.17499764753E+03  0.00000000000E+00 0. -1.
         -5    1    3    3    0  503  0.93055994881E+01 -0.24122754144E+02 -0.10218221736E+03  0.10550733147E+03  0.47000000000E+01 0.  1.
         13    1    4    4    0    0  0.44358940764E+02  0.72953349271E+02 -0.65339139591E+02  0.10751330131E+03  0.00000000000E+00 0. -1.
        -14    1    4    4    0    0 -0.29728557017E+02  0.93026485914E+02 -0.11395915912E+03  0.15008132505E+03  0.00000000000E+00 0.  1.
</event>
<event>
12    1  0.1061634E+000  0.3388642E+03  0.7818608E-02  0.1067342E+00
         21   -1    0    0  501  502  0.00000000000E+00  0.00000000000E+00  0.51948814625E+03  0.51948814625E+03  0.00000000000E+00 0.  1.
         21   -1    0    0  502  503 -0.00000000000E+00 -0.00000000000E+00 -0.25504846553E+03  0.25504846553E+03  0.00000000000E+00 0.  1.
         -6    2    1    2    0  503 -0.29085635769E+03  0.20469784581E+02  0.27430569390E+03  0.43552880981E+03  0.17153803537E+03 0.  0.
        -24    2    3    3    0    0 -0.30094835242E+03  0.35539935880E+02  0.23335667601E+03  0.39049693350E+03  0.78737024125E+02 0.  0.
          6    2    1    2  501    0  0.29085635769E+03 -0.20469784581E+02 -0.98660131766E+01  0.33900780197E+03  0.17266302063E+03 0.  0.
         24    2    5    5    0    0  0.16407114517E+03  0.37734080272E+02  0.40050135620E+02  0.19076512287E+03  0.80275259258E+02 0.  0.
          5    1    5    5  501    0  0.12678521251E+03 -0.58203864853E+02 -0.49916148797E+02  0.14824267910E+03  0.47000000000E+01 0. -1.
        -11    1    6    6    0    0  0.92959860346E+02 -0.77178230322E+01  0.49913952077E+02  0.10579462671E+03  0.00000000000E+00 0.  1.
         12    1    6    6    0    0  0.71111284829E+02  0.45451903304E+02 -0.98638164563E+01  0.84970496168E+02  0.00000000000E+00 0. -1.
         -5    1    3    3    0  503  0.10091994731E+02 -0.15070151298E+02  0.40949017891E+02  0.45031876310E+02  0.47000000000E+01 0.  1.
         11    1    4    4    0    0 -0.28756954124E+03  0.15560521841E+02  0.22336296464E+03  0.36445765853E+03  0.00000000000E+00 0. -1.
        -12    1    4    4    0    0 -0.13378811178E+02  0.19979414039E+02  0.99937113666E+01  0.26039274966E+02  0.00000000000E+00 0.  1.
</event>
<event>
12    1  0.1061634E+000  0.3217442E+03  0.7818608E-02  0.1075041E+00
         21   -1    0    0  503  502  0.00000000000E+00  0.00000000000E+00  0.65153836394E+03  0.65153836394E+03  0.00000000000E+00 0. -1.
         21   -1    0    0  501  503 -0.00000000000E+00 -0.00000000000E+00 -0.17089434973E+03  0.17089434973E+03  0.00000000000E+00 0. -1.
          6    2    1    2  501    0 -0.26248830052E+03  0.61499733158E+02  0.12821193681E+03  0.34634904499E+03  0.17560476970E+03 0.  0.
         24    2    3    3    0    0 -0.99636594659E+02  0.85453188303E+02  0.37129011643E+02  0.15816659265E+03  0.80052539857E+02 0.  0.
         -6    2    1    2    0  502  0.26248830052E+03 -0.61499733158E+02  0.35243207740E+03  0.47608366868E+03  0.17252525993E+03 0.  0.
        -24    2    5    5    0    0  0.90720865110E+02  0.17867349979E+02  0.88269906385E+02  0.15111147241E+03  0.80582772096E+02 0.  0.
          5    1    3    3  501    0 -0.16285170586E+03 -0.23953455145E+02  0.91082925167E+02  0.18818245235E+03  0.47000000000E+01 0. -1.
        -11    1    4    4    0    0 -0.54544654395E+02  0.27105950732E+02 -0.20832916784E+02  0.64372838293E+02  0.00000000000E+00 0.  1.
         12    1    4    4    0    0 -0.45091940263E+02  0.58347237571E+02  0.57961928426E+02  0.93793754353E+02  0.00000000000E+00 0. -1.
         -5    1    5    5    0  502  0.17176743541E+03 -0.79367083137E+02  0.26416217102E+03  0.32497219627E+03  0.47000000000E+01 0.  1.
         11    1    6    6    0    0  0.67082045721E+02 -0.26296675396E+02  0.45261290073E+02  0.85088779367E+02  0.00000000000E+00 0. -1.
        -12    1    6    6    0    0  0.23638819389E+02  0.44164025375E+02  0.43008616312E+02  0.66022693042E+02  0.00000000000E+00 0.  1.
</event>
<event>
12    1  0.1061634E+000  0.3549990E+03  0.7818608E-02  0.1060636E+00
         21   -1    0    0  501  502  0.00000000000E+00  0.00000000000E+00  0.81665808437E+03  0.81665808437E+03  0.00000000000E+00 0. -1.
         21   -1    0    0  502  503 -0.00000000000E+00 -0.00000000000E+00 -0.18738025108E+03  0.18738025108E+03  0.00000000000E+00 0.  1.
         -6    2    1    2    0  503  0.34340432802E+02  0.30806210637E+03  0.52645770255E+03  0.63496614745E+03  0.17303979061E+03 0.  0.
        -24    2    3    3    0    0  0.80647906231E+02  0.14640405503E+03  0.24621745074E+03  0.30811083330E+03  0.79818672244E+02 0.  0.
          6    2    1    2  501    0 -0.34340432802E+02 -0.30806210637E+03  0.10282013075E+03  0.36907218800E+03  0.17193246919E+03 0.  0.
         24    2    5    5    0    0  0.29105417234E+02 -0.14048796401E+03  0.39632684714E+01  0.16437426839E+03  0.80119905564E+02 0.  0.
          5    1    5    5  501    0 -0.63445850036E+02 -0.16757414236E+03  0.98856862276E+02  0.20469791961E+03  0.47000000000E+01 0. -1.
        -13    1    6    6    0    0 -0.63561292227E+01 -0.55533034248E+02 -0.33295990676E+02  0.65061057988E+02  0.00000000000E+00 0.  1.
         14    1    6    6    0    0  0.35461546457E+02 -0.84954929762E+02  0.37259259147E+02  0.99313210401E+02  0.00000000000E+00 0. -1.
         -5    1    3    3    0  503 -0.46307473429E+02  0.16165805134E+03  0.28024025180E+03  0.32685531415E+03  0.47000000000E+01 0.  1.
         13    1    4    4    0    0  0.57358609443E+01  0.88652108495E+02  0.14074344138E+03  0.16643561137E+03  0.00000000000E+00 0. -1.
        -14    1    4    4    0    0  0.74912045287E+02  0.57751946533E+02  0.10547400936E+03  0.14167522193E+03  0.00000000000E+00 0.  1.
</event>
<event>
12    1  0.1061634E+000  0.1909277E+03  0.7818608E-02  0.1158466E+00
         21   -1    0    0  503  502  0.00000000000E+00  0.00000000000E+00  0.40042418661E+03  0.40042418661E+03  0.00000000000E+00 0.  1.
         21   -1    0    0  501  503 -0.00000000000E+00 -0.00000000000E+00 -0.89795298095E+02  0.89795298095E+02  0.00000000000E+00 0.  1.
          6    2    1    2  501    0  0.37155204356E+01  0.71757741926E+02  0.13523248607E+03  0.23095649246E+03  0.17288752847E+03 0.  0.
         24    2    3    3    0    0 -0.27937594469E+02  0.10926516995E+03  0.10492393965E+03  0.17308227690E+03  0.78924361989E+02 0.  0.
         -6    2    1    2    0  502 -0.37155204356E+01 -0.71757741926E+02  0.17539640244E+03  0.25926299225E+03  0.17689099056E+03 0.  0.
        -24    2    5    5    0    0 -0.25769643455E+02 -0.11395921409E+03  0.12790727027E+03  0.19184892643E+03  0.82431570327E+02 0.  0.
          5    1    3    3  501    0  0.31653114905E+02 -0.37507428025E+02  0.30308546422E+02  0.57874215558E+02  0.47000000000E+01 0. -1.
        -11    1    4    4    0    0 -0.10012759219E+02  0.12423916341E+02  0.64801133323E+02  0.66736765911E+02  0.00000000000E+00 0.  1.
         12    1    4    4    0    0 -0.17924835250E+02  0.96841253610E+02  0.40122806331E+02  0.10634551099E+03  0.00000000000E+00 0. -1.
         -5    1    5    5    0  502  0.22054123020E+02  0.42201472165E+02  0.47489132178E+02  0.67414065818E+02  0.47000000000E+01 0.  1.
         13    1    6    6    0    0  0.22839296389E+02 -0.47623065079E+02  0.20692062425E+02  0.56725225733E+02  0.00000000000E+00 0. -1.
        -14    1    6    6    0    0 -0.48608939844E+02 -0.66336149012E+02  0.10721520784E+03  0.13512370070E+03  0.00000000000E+00 0.  1.
</event>
<event>
12    1  0.1061634E+000  0.2249732E+03  0.7818608E-02  0.1132432E+00
         21   -1    0    0  501  502  0.00000000000E+00  0.00000000000E+00  0.22451818468E+03  0.22451818468E+03  0.00000000000E+00 0.  1.
         21   -1    0    0  502  503 -0.00000000000E+00 -0.00000000000E+00 -0.21842277106E+03  0.21842277106E+03  0.00000000000E+00 0.  1.
         -6    2    1    2    0  503  0.20323939811E+02 -0.12442065253E+03 -0.29448787955E+02  0.21517722474E+03  0.17187334182E+03 0.  0.
        -24    2    3    3    0    0  0.23123592134E+02 -0.15736759748E+03 -0.37740614703E+02  0.18076525552E+03  0.77152202527E+02 0.  0.
          6    2    1    2  501    0 -0.20323939811E+02  0.12442065253E+03  0.35544201575E+02  0.22776373100E+03  0.18633133281E+03 0.  0.
         24    2    5    5    0    0  0.29699113816E+02  0.73078916944E+02  0.85310179863E+02  0.14037367263E+03  0.78767859658E+02 0.  0.
          5    1    5    5  501    0 -0.50023053627E+02  0.51341735588E+02 -0.49765978287E+02  0.87390058372E+02  0.47000000000E+01 0. -1.
        -13    1    6    6    0    0  0.28321640513E+02 -0.22750937525E+01  0.26860602619E+01  0.28539556630E+02  0.00000000000E+00 0.  1.
         14    1    6    6    0    0  0.13774733035E+01  0.75354010696E+02  0.82624119601E+02  0.11183411600E+03  0.00000000000E+00 0. -1.
         -5    1    3    3    0  503 -0.27996523230E+01  0.32946944951E+02  0.82918267484E+01  0.34411969219E+02  0.47000000000E+01 0.  1.
         13    1    4    4    0    0  0.39400979835E+02 -0.11239453514E+03  0.11731279553E+01  0.11910644387E+03  0.00000000000E+00 0. -1.
        -14    1    4    4    0    0 -0.16277387701E+02 -0.44973062339E+02 -0.38913742659E+02  0.61658811651E+02  0.00000000000E+00 0.  1.
</event>
<event>
12    1  0.1061634E+000  0.2218274E+03  0.7818608E-02  0.1133435E+00
         21   -1    0    0  501  502  0.00000000000E+00  0.00000000000E+00  0.33372070816E+02  0.33372070816E+02  0.00000000000E+00 0.  1.
         21   -1    0    0  502  503 -0.00000000000E+00 -0.00000000000E+00 -0.14445905088E+04  0.14445905088E+04  0.00000000000E+00 0. -1.
         -6    2    1    2    0  503 -0.11640282070E+03 -0.76187742669E+02 -0.74231486790E+03  0.77475076996E+03  0.17278079651E+03 0.  0.
        -24    2    3    3    0    0 -0.73875137652E+02 -0.10646815797E+03 -0.38965753779E+03  0.41821915865E+03  0.79254421228E+02 0.  0.
          6    2    1    2  501    0  0.11640282070E+03  0.76187742669E+02 -0.66890357008E+03  0.70321180965E+03  0.16649526833E+03 0.  0.
         24    2    5    5    0    0  0.10978357305E+03 -0.28515877234E+01 -0.40181317668E+03  0.42455359888E+03  0.82044895648E+02 0.  0.
          5    1    5    5  501    0  0.66192476458E+01  0.79039330393E+02 -0.26709039340E+03  0.27865821078E+03  0.47000000000E+01 0. -1.
        -11    1    6    6    0    0  0.35729933202E+02 -0.17892904838E+02 -0.46577935629E+02  0.61370092534E+02  0.00000000000E+00 0.  1.
         12    1    6    6    0    0  0.74053639849E+02  0.15041317115E+02 -0.35523524105E+03  0.36318350634E+03  0.00000000000E+00 0. -1.
         -5    1    3    3    0  503 -0.42527683045E+02  0.30280415303E+02 -0.35265733011E+03  0.35653161130E+03  0.47000000000E+01 0.  1.
         13    1    4    4    0    0  0.12588322150E+02 -0.38722835331E+02 -0.13165078523E+03  0.13780367587E+03  0.00000000000E+00 0. -1.
        -14    1    4    4    0    0 -0.86463459802E+02 -0.67745322642E+02 -0.25800675256E+03  0.28041548279E+03  0.00000000000E+00 0.  1.
</event>
<event>
12    1  0.1061634E+000  0.3885707E+03  0.7818608E-02  0.1047889E+00
         21   -1    0    0  501  502  0.00000000000E+00  0.00000000000E+00  0.43609770387E+03  0.43609770387E+03  0.00000000000E+00 0. -1.
         21   -1    0    0  502  503 -0.00000000000E+00 -0.00000000000E+00 -0.91285641197E+03  0.91285641197E+03  0.00000000000E+00 0.  1.
         -6    2    1    2    0  503  0.33964062183E+03 -0.68988553795E+02  0.29327838562E+03  0.48682583527E+03  0.17570432511E+03 0.  0.
        -24    2    3    3    0    0  0.34561283710E+03 -0.77014324558E+02  0.30293632020E+03  0.47214775461E+03  0.75984529578E+02 0.  0.
          6    2    1    2  501    0 -0.33964062183E+03  0.68988553795E+02 -0.77003709372E+03  0.86212828057E+03  0.17376096771E+03 0.  0.
         24    2    5    5    0    0 -0.26920403930E+03  0.75244961416E+02 -0.45900620279E+03  0.54312552210E+03  0.78524006325E+02 0.  0.
          5    1    5    5  501    0 -0.70436582535E+02 -0.62564076202E+01 -0.31103089093E+03  0.31900275847E+03  0.47000000000E+01 0. -1.
        -11    1    6    6    0    0 -0.83400943949E+02  0.66971439839E+01 -0.81382694138E+02  0.11672065839E+03  0.00000000000E+00 0.  1.
         12    1    6    6    0    0 -0.18580309535E+03  0.68547817432E+02 -0.37762350865E+03  0.42640486371E+03  0.00000000000E+00 0. -1.
         -5    1    3    3    0  503 -0.59722152657E+01  0.80257707625E+01 -0.96579345798E+01  0.14678080660E+02  0.47000000000E+01 0.  1.
         13    1    4    4    0    0  0.31445829573E+03 -0.86670363704E+02  0.29187574953E+03  0.43770677954E+03  0.00000000000E+00 0. -1.
        -14    1    4    4    0    0  0.31154541371E+02  0.96560391459E+01  0.11060570669E+02  0.34440975067E+02  0.00000000000E+00 0.  1.
</event>
<event>
12    1  0.1061634E+000  0.1757596E+03  0.7818608E-02  0.1172354E+00
         21   -1    0    0  503  502  0.00000000000E+00  0.00000000000E+00  0.31014317123E+03  0.31014317123E+03  0.00000000000E+00 0.  1.
         21   -1    0    0  501  503 -0.00000000000E+00 -0.00000000000E+00 -0.25989901476E+03  0.25989901476E+03  0.00000000000E+00 0.  1.
          6    2    1    2  501    0  0.26056713717E+02 -0.62165378301E+01  0.24952023245E+03  0.30433105295E+03  0.17216110395E+03 0.  0.
         24    2    3    3    0    0 -0.10747323243E+01  0.39582974268E+02  0.58202893800E+02  0.10569036039E+03  0.78834691164E+02 0.  0.
         -6    2    1    2    0  502 -0.26056713717E+02  0.62165378301E+01 -0.19927607598E+03  0.26571113304E+03  0.17370622928E+03 0.  0.
        -24    2    5    5    0    0 -0.80130330182E+02  0.28308654830E+02 -0.14345492262E+03  0.18477839063E+03  0.79633467007E+02 0.  0.
          5    1    3    3  501    0  0.27131446041E+02 -0.45799512098E+02  0.19131733865E+03  0.19864069256E+03  0.47000000000E+01 0. -1.
        -13    1    4    4    0    0 -0.25998784427E+02 -0.53630997975E+01  0.45614917353E+02  0.52777081354E+02  0.00000000000E+00 0.  1.
         14    1    4    4    0    0  0.24924052103E+02  0.44946074065E+02  0.12587976447E+02  0.52913279034E+02  0.00000000000E+00 0. -1.
         -5    1    5    5    0  502  0.54073616465E+02 -0.22092117000E+02 -0.55821153359E+02  0.80932742406E+02  0.47000000000E+01 0.  1.
         11    1    6    6    0    0 -0.27888523296E+02  0.38035467563E+02 -0.21668931541E+02  0.51903844930E+02  0.00000000000E+00 0. -1.
        -12    1    6    6    0    0 -0.52241806885E+02 -0.97268127333E+01 -0.12178599108E+03  0.13287454570E+03  0.00000000000E+00 0.  1.
</event>
<event>
12    1  0.1061634E+000  0.5355856E+03  0.7818608E-02  0.1004914E+00
         21   -1    0    0  503  502  0.00000000000E+00  0.00000000000E+00  0.11705012040E+03  0.11705012040E+03  0.00000000000E+00 0. -1.
         21   -1    0    0  501  503 -0.00000000000E+00 -0.00000000000E+00 -0.26061704072E+04  0.26061704072E+04  0.00000000000E+00 0. -1.
          6    2    1    2  501    0  0.47645096756E+03 -0.17233205527E+03 -0.91022349052E+03  0.10561054815E+04  0.17363215010E+03 0.  0.
         24    2    3    3    0    0  0.38118050537E+03 -0.71691327894E+02 -0.70074458601E+03  0.80489139269E+03  0.79805733047E+02 0.  0.
         -6    2    1    2    0  502 -0.47645096756E+03  0.17233205527E+03 -0.15788967963E+04  0.16671150462E+04  0.17220227058E+03 0.  0.
        -24    2    5    5    0    0 -0.24538496054E+03  0.30218755474E+02 -0.87278448716E+03  0.91067312988E+03  0.80285966522E+02 0.  0.
          5    1    3    3  501    0  0.95270462189E+02 -0.10064072738E+03 -0.20947890450E+03  0.25121408878E+03  0.47000000000E+01 0. -1.
        -13    1    4    4    0    0  0.73553789287E+02 -0.47185041806E+02 -0.15466762045E+03  0.17764757500E+03  0.00000000000E+00 0.  1.
         14    1    4    4    0    0  0.30762671608E+03 -0.24506286088E+02 -0.54607696556E+03  0.62724381768E+03  0.00000000000E+00 0. -1.
         -5    1    5    5    0  502 -0.23106600702E+03  0.14211329980E+03 -0.70611230917E+03  0.75644191630E+03  0.47000000000E+01 0.  1.
         13    1    6    6    0    0 -0.69438186722E+02  0.34855957549E+02 -0.18347941523E+03  0.19925183905E+03  0.00000000000E+00 0. -1.
        -14    1    6    6    0    0 -0.17594677381E+03 -0.46372020749E+01 -0.68930507192E+03  0.71142129082E+03  0.00000000000E+00 0.  1.
</event>
<event>
12    1  0.1061634E+000  0.1980054E+03  0.7818608E-02  0.1151556E+00
         21   -1    0    0  501  502  0.00000000000E+00  0.00000000000E+00  0.56246143467E+03  0.56246143467E+03  0.00000000000E+00 0.  1.
         21   -1    0    0  502  503 -0.00000000000E+00 -0.00000000000E+00 -0.75465240466E+02  0.75465240466E+02  0.00000000000E+00 0.  1.
         -6    2    1    2    0  503 -0.91824605156E+02  0.30797044829E+02  0.15351319111E+03  0.25009028517E+03  0.17204253779E+03 0.  0.
        -24    2    3    3    0    0 -0.41046056300E+02  0.55663069866E+02  0.16169963155E+03  0.19276761922E+03  0.78926726079E+02 0.  0.
          6    2    1    2  501    0  0.91824605156E+02 -0.30797044829E+02  0.33348300309E+03  0.38783638996E+03  0.17270187013E+03 0.  0.
         24    2    5    5    0    0  0.10191636798E+03  0.18381357433E+02  0.15867008186E+03  0.20589682210E+03  0.80575964834E+02 0.  0.
          5    1    5    5  501    0 -0.10091762827E+02 -0.49178402262E+02  0.17481292123E+03  0.18193956786E+03  0.47000000000E+01 0. -1.
        -13    1    6    6    0    0  0.10391618915E+03  0.25844478663E+01  0.15900768282E+03  0.18997025276E+03  0.00000000000E+00 0.  1.
         14    1    6    6    0    0 -0.19998211705E+01  0.15796909566E+02 -0.33760095405E+00  0.15926569341E+02  0.00000000000E+00 0. -1.
         -5    1    3    3    0  503 -0.50778548855E+02 -0.24866025036E+02 -0.81864404405E+01  0.57322665954E+02  0.47000000000E+01 0.  1.
         11    1    4    4    0    0 -0.30618163406E+02  0.22059652972E+02  0.12925199083E+02  0.39889359370E+02  0.00000000000E+00 0. -1.
        -12    1    4    4    0    0 -0.10427892894E+02  0.33603416893E+02  0.14877443247E+03  0.15287825985E+03  0.00000000000E+00 0.  1.
</event>
<event>
12    1  0.1061634E+000  0.1924721E+03  0.7818608E-02  0.1156455E+00
         21   -1    0    0  503  502  0.00000000000E+00  0.00000000000E+00  0.31019702903E+03  0.31019702903E+03  0.00000000000E+00 0.  1.
         21   -1    0    0  501  503 -0.00000000000E+00 -0.00000000000E+00 -0.11927849937E+03  0.11927849937E+03  0.00000000000E+00 0.  1.
          6    2    1    2  501    0  0.19815154131E+02 -0.83129764864E+02  0.82448781784E+02  0.20854292732E+03  0.17143264794E+03 0.  0.
         24    2    3    3    0    0  0.12665192905E+02 -0.11715584672E+03  0.28212085734E+02  0.14394722011E+03  0.77710879950E+02 0.  0.
         -6    2    1    2    0  502 -0.19815154131E+02  0.83129764864E+02  0.10846974788E+03  0.22093260108E+03  0.17245964709E+03 0.  0.
        -24    2    5    5    0    0  0.48874514809E+02  0.50776603154E+02  0.61601056019E+01  0.93440049944E+02  0.61041906973E+02 0.  0.
          5    1    3    3  501    0  0.71499612265E+01  0.34026081859E+02  0.54236696050E+02  0.64595707215E+02  0.47000000000E+01 0. -1.
        -13    1    4    4    0    0  0.13413432102E+02 -0.37872998727E+02 -0.26037888097E+02  0.47877508393E+02  0.00000000000E+00 0.  1.
         14    1    4    4    0    0 -0.74823919727E+00 -0.79282847996E+02  0.54249973832E+02  0.96069711715E+02  0.00000000000E+00 0. -1.
         -5    1    5    5    0  502 -0.68689668940E+02  0.32353161710E+02  0.10230964228E+03  0.12749255114E+03  0.47000000000E+01 0.  1.
         13    1    6    6    0    0  0.30145739412E+02 -0.82904805513E+01  0.25909838011E+01  0.31372135240E+02  0.00000000000E+00 0. -1.
        -14    1    6    6    0    0  0.18728775397E+02  0.59067083705E+02  0.35691218007E+01  0.62067914704E+02  0.00000000000E+00 0.  1.
</event>
<event>
12    1  0.1061634E+000  0.3662415E+03  0.7818608E-02  0.1056273E+00
         21   -1    0    0  501  502  0.00000000000E+00  0.00000000000E+00  0.44742159026E+03  0.44742159026E+03  0.00000000000E+00 0. -1.
         21   -1    0    0  502  503 -0.00000000000E+00 -0.00000000000E+00 -0.39464405625E+03  0.39464405625E+03  0.00000000000E+00 0. -1.
         -6    2    1    2    0  503  0.56149230666E+02  0.31716700542E+03 -0.18121254071E+03  0.40862062330E+03  0.17431346318E+03 0.  0.
        -24    2    3    3    0    0  0.67875837487E+02  0.88213721193E+02 -0.76220805211E+02  0.15642531369E+03  0.79186347914E+02 0.  0.
          6    2    1    2  501    0 -0.56149230666E+02 -0.31716700542E+03  0.23399007472E+03  0.43344502321E+03  0.17139307933E+03 0.  0.
         24    2    5    5    0    0 -0.98460443731E+02 -0.28412493498E+03  0.19916622240E+03  0.36928266773E+03  0.79253182147E+02 0.  0.
          5    1    5    5  501    0  0.42311213065E+02 -0.33042070440E+02  0.34823852323E+02  0.64162355479E+02  0.47000000000E+01 0. -1.
        -13    1    6    6    0    0 -0.41270189529E+02 -0.20622140116E+03  0.16305076674E+03  0.26611284707E+03  0.00000000000E+00 0.  1.
         14    1    6    6    0    0 -0.57190254202E+02 -0.77903533819E+02  0.36115455667E+02  0.10316982066E+03  0.00000000000E+00 0. -1.
         -5    1    3    3    0  503 -0.11726606821E+02  0.22895328423E+03 -0.10499173550E+03  0.25219530961E+03  0.47000000000E+01 0.  1.
         13    1    4    4    0    0  0.24548238415E+02  0.33761522084E+02 -0.76147647899E+02  0.86838474557E+02  0.00000000000E+00 0. -1.
        -14    1    4    4    0    0  0.43327599072E+02  0.54452199110E+02 -0.73157311692E-01  0.69586839138E+02  0.00000000000E+00 0.  1.
</event>
<event>
12    1  0.1061634E+000  0.2106455E+03  0.7818608E-02  0.1141369E+00
         21   -1    0    0  503  502  0.00000000000E+00  0.00000000000E+00  0.92804477765E+03  0.92804477765E+03  0.00000000000E+00 0.  1.
         21   -1    0    0  501  503 -0.00000000000E+00 -0.00000000000E+00 -0.98941547383E+02  0.98941547383E+02  0.00000000000E+00 0.  1.
          6    2    1    2  501    0  0.11180302600E+03  0.41507111577E+02  0.78422400294E+03  0.81161303156E+03  0.17171391693E+03 0.  0.
         24    2    3    3    0    0  0.82803460601E+02 -0.39860285915E+02  0.49778975628E+03  0.51240023800E+03  0.79461355160E+02 0.  0.
         -6    2    1    2    0  502 -0.11180302600E+03 -0.41507111577E+02  0.44879227326E+02  0.21537329348E+03  0.17363396431E+03 0.  0.
        -24    2    5    5    0    0  0.16299987063E+00 -0.53954244563E+02  0.44734719940E+02  0.10261943344E+03  0.74956426522E+02 0.  0.
          5    1    3    3  501    0  0.28999565402E+02  0.81367397492E+02  0.28643424666E+03  0.29921279355E+03  0.47000000000E+01 0. -1.
        -13    1    4    4    0    0 -0.64488995184E+01  0.84648790836E+01  0.11650589077E+02  0.15779059185E+02  0.00000000000E+00 0.  1.
         14    1    4    4    0    0  0.89252360120E+02 -0.48325164998E+02  0.48613916721E+03  0.49662117882E+03  0.00000000000E+00 0. -1.
         -5    1    5    5    0  502 -0.11196602587E+03  0.12447132987E+02  0.14450738653E+00  0.11275386003E+03  0.47000000000E+01 0.  1.
         11    1    6    6    0    0  0.21567393821E+01  0.10259138100E+02 -0.12683882959E+02  0.16455464935E+02  0.00000000000E+00 0. -1.
        -12    1    6    6    0    0 -0.19937395115E+01 -0.64213382664E+02  0.57418602899E+02  0.86163968509E+02  0.00000000000E+00 0.  1.
</event>
<event>
12    1  0.1061634E+000  0.2342692E+03  0.7818608E-02  0.1123804E+00
         21   -1    0    0  501  502  0.00000000000E+00  0.00000000000E+00  0.13195019744E+03  0.13195019744E+03  0.00000000000E+00 0.  1.
         21   -1    0    0  502  503 -0.00000000000E+00 -0.00000000000E+00 -0.19756194796E+04  0.19756194796E+04  0.00000000000E+00 0. -1.
         -6    2    1    2    0  503 -0.15527993145E+03  0.29934759513E+02  0.15210324446E+02  0.23398608874E+03  0.17178529860E+03 0.  0.
        -24    2    3    3    0    0 -0.16632578778E+03 -0.94663107777E+00  0.44155330652E+02  0.18999092297E+03  0.80508967155E+02 0.  0.
          6    2    1    2  501    0  0.15527993145E+03 -0.29934759513E+02 -0.18588796066E+04  0.18735835883E+04  0.17284132489E+03 0.  0.
         24    2    5    5    0    0  0.95459805619E+02  0.36769112425E+02 -0.75567289951E+03  0.76673446464E+03  0.79847768260E+02 0.  0.
          5    1    5    5  501    0  0.59820125831E+02 -0.66703871939E+02 -0.11032067071E+04  0.11068491236E+04  0.47000000000E+01 0. -1.
        -13    1    6    6    0    0  0.76122708471E+02 -0.70621218550E+00 -0.62007671754E+03  0.62473218351E+03  0.00000000000E+00 0.  1.
         14    1    6    6    0    0  0.19337097148E+02  0.37475324611E+02 -0.13559618197E+03  0.14200228113E+03  0.00000000000E+00 0. -1.
         -5    1    3    3    0  503  0.11045856332E+02  0.30881390591E+02 -0.28945006206E+02  0.43995165771E+02  0.47000000000E+01 0.  1.
         11    1    4    4    0    0 -0.13427243757E+03 -0.34145454046E+02  0.35753102829E+02  0.14308488350E+03  0.00000000000E+00 0. -1.
        -12    1    4    4    0    0 -0.32053350212E+02  0.33198822969E+02  0.84022278224E+01  0.46906039469E+02  0.00000000000E+00 0.  1.
</event>
<event>
12    1  0.1061634E+000  0.2056216E+03  0.7818608E-02  0.1145821E+00
         21   -1    0    0  501  502  0.00000000000E+00  0.00000000000E+00  0.11286146217E+03  0.11286146217E+03  0.00000000000E+00 0. -1.
         21   -1    0    0  502  503 -0.00000000000E+00 -0.00000000000E+00 -0.38648914106E+03  0.38648914106E+03  0.00000000000E+00 0. -1.
         -6    2    1    2    0  503  0.43874970684E+02 -0.95004043595E+02 -0.81179583108E+02  0.21771870906E+03  0.17280199712E+03 0.  0.
        -24    2    3    3    0    0  0.61464434851E+02 -0.71722206608E+02  0.48917902335E+01  0.12671428888E+03  0.84324549940E+02 0.  0.
          6    2    1    2  501    0 -0.43874970684E+02  0.95004043595E+02 -0.19244809578E+03  0.28163189417E+03  0.17700133586E+03 0.  0.
         24    2    5    5    0    0 -0.90303290762E+02  0.98731257018E+02 -0.12663627161E+03  0.20086824378E+03  0.80054735254E+02 0.  0.
          5    1    5    5  501    0  0.46428320078E+02 -0.37272134226E+01 -0.65811824161E+02  0.80763650392E+02  0.47000000000E+01 0. -1.
        -13    1    6    6    0    0 -0.75828591314E+01  0.66806500514E+02 -0.53094572025E+02  0.85671709695E+02  0.00000000000E+00 0.  1.
         14    1    6    6    0    0 -0.82720431630E+02  0.31924756504E+02 -0.73541699589E+02  0.11519653409E+03  0.00000000000E+00 0. -1.
         -5    1    3    3    0  503 -0.17589464167E+02 -0.23281836987E+02 -0.86071373341E+02  0.91004420178E+02  0.47000000000E+01 0.  1.
         13    1    4    4    0    0  0.64190269352E+02 -0.79862912010E+02  0.24463935996E+02  0.10534210724E+03  0.00000000000E+00 0. -1.
        -14    1    4    4    0    0 -0.27258345013E+01  0.81407054022E+01 -0.19572145762E+02  0.21372181637E+02  0.00000000000E+00 0.  1.
</event>
<event>
12    1  0.1061634E+000  0.3016570E+03  0.7818608E-02  0.1085200E+00
         21   -1    0    0  501  502  0.00000000000E+00  0.00000000000E+00  0.64094434526E+03  0.64094434526E+03  0.00000000000E+00 0. -1.
         21   -1    0    0  502  503 -0.00000000000E+00 -0.00000000000E+00 -0.23233261418E+03  0.23233261418E+03  0.00000000000E+00 0. -1.
         -6    2    1    2    0  503 -0.18156643706E+03 -0.15738364981E+03 -0.73643563908E+02  0.30444736119E+03  0.17183956744E+03 0.  0.
        -24    2    3    3    0    0 -0.14212931966E+03 -0.57989503308E+02  0.21083581448E+01  0.17331793550E+03  0.80443368846E+02 0.  0.
          6    2    1    2  501    0  0.18156643706E+03  0.15738364981E+03  0.48225529499E+03  0.56882959826E+03  0.18237587015E+03 0.  0.
         24    2    5    5    0    0  0.10008142660E+03  0.16339566877E+03  0.41084136259E+03  0.46021104072E+03  0.79304099885E+02 0.  0.
          5    1    5    5  501    0  0.81485010456E+02 -0.60120189634E+01  0.71413932395E+02  0.10861855754E+03  0.47000000000E+01 0. -1.
        -13    1    6    6    0    0 -0.11791308767E+02  0.27447244553E+02  0.80808066929E+02  0.86152944678E+02  0.00000000000E+00 0.  1.
         14    1    6    6    0    0  0.11187273537E+03  0.13594842422E+03  0.33003329567E+03  0.37405809604E+03  0.00000000000E+00 0. -1.
         -5    1    3    3    0  503 -0.39437117395E+02 -0.99394146498E+02 -0.75751922052E+02  0.13112942569E+03  0.47000000000E+01 0.  1.
         13    1    4    4    0    0 -0.32285189224E+02  0.87646806328E+01  0.26262446953E+02  0.42530802835E+02  0.00000000000E+00 0. -1.
        -14    1    4    4    0    0 -0.10984413044E+03 -0.66754183940E+02 -0.24154088808E+02  0.13078713267E+03  0.00000000000E+00 0.  1.
</event>
<event>
12    1  0.1061634E+000  0.2741103E+03  0.7818608E-02  0.1099683E+00
         21   -1    0    0  501  502  0.00000000000E+00  0.00000000000E+00  0.24003401871E+03  0.24003401871E+03  0.00000000000E+00 0. -1.
         21   -1    0    0  502  503 -0.00000000000E+00 -0.00000000000E+00 -0.34744906902E+03  0.34744906902E+03  0.00000000000E+00 0. -1.
         -6    2    1    2    0  503  0.12488205589E+03 -0.17352107604E+03  0.45874572677E+02  0.27792254345E+03  0.17155574028E+03 0.  0.
        -24    2    3    3    0    0  0.76023146582E+02 -0.92513764863E+02 -0.38816092521E+02  0.15086359550E+03  0.83155396110E+02 0.  0.
          6    2    1    2  501    0 -0.12488205589E+03  0.17352107604E+03 -0.15328962299E+03  0.30956054427E+03  0.16317147527E+03 0.  0.
         24    2    5    5    0    0 -0.12189633434E+03  0.19553141996E+03 -0.15089907259E+03  0.28673129760E+03  0.79706049928E+02 0.  0.
          5    1    5    5  501    0 -0.29857215449E+01 -0.22010343918E+02 -0.23905503937E+01  0.22829246674E+02  0.47000000000E+01 0. -1.
        -11    1    6    6    0    0 -0.12239492852E+03  0.13131604776E+03 -0.11441398921E+03  0.21287316377E+03  0.00000000000E+00 0.  1.
         12    1    6    6    0    0  0.49859417842E+00  0.64215372200E+02 -0.36485083385E+02  0.73858133828E+02  0.00000000000E+00 0. -1.
         -5    1    3    3    0  503  0.48858909308E+02 -0.81007311182E+02  0.84690665197E+02  0.12705894795E+03  0.47000000000E+01 0.  1.
         11    1    4    4    0    0  0.71999120283E+02 -0.44566006257E+02  0.62924697910E+01  0.84909348197E+02  0.00000000000E+00 0. -1.
        -12    1    4    4    0    0  0.40240262991E+01 -0.47947758605E+02 -0.45108562311E+02  0.65954247299E+02  0.00000000000E+00 0.  1.
</event>
<event>
12    1  0.1061634E+000  0.1756519E+03  0.7818608E-02  0.1172649E+00
         21   -1    0    0  501  502  0.00000000000E+00  0.00000000000E+00  0.62427364353E+02  0.62427364353E+02  0.00000000000E+00 0.  1.
         21   -1    0    0  502  503 -0.00000000000E+00 -0.00000000000E+00 -0.50226589918E+03  0.50226589918E+03  0.00000000000E+00 0.  1.
         -6    2    1    2    0  503  0.97600861285E+01  0.25900326155E+02 -0.26910725135E+03  0.32136006117E+03  0.17345745878E+03 0.  0.
        -24    2    3    3    0    0  0.70181695613E+02  0.27144394915E+02 -0.13511118026E+03  0.17429084050E+03  0.80373985070E+02 0.  0.
          6    2    1    2  501    0 -0.97600861285E+01 -0.25900326155E+02 -0.17073128348E+03  0.24333320237E+03  0.17116012982E+03 0.  0.
         24    2    5    5    0    0  0.55236102868E+02  0.10124653745E+02 -0.11330793182E+03  0.14930216985E+03  0.79365703145E+02 0.  0.
          5    1    5    5  501    0 -0.64996188997E+02 -0.36024979899E+02 -0.57423351661E+02  0.94031032520E+02  0.47000000000E+01 0. -1.
        -13    1    6    6    0    0  0.18954487386E+02 -0.19993343743E+02 -0.94672799651E+02  0.98599925861E+02  0.00000000000E+00 0.  1.
         14    1    6    6    0    0  0.36281615482E+02  0.30117997487E+02 -0.18635132167E+02  0.50702243989E+02  0.00000000000E+00 0. -1.
         -5    1    3    3    0  503 -0.60421609485E+02 -0.12440687605E+01 -0.13399607109E+03  0.14706922067E+03  0.47000000000E+01 0.  1.
         11    1    4    4    0    0 -0.14794312445E+02  0.16504892694E+02 -0.43889692845E+02  0.49168977025E+02  0.00000000000E+00 0. -1.
        -12    1    4    4    0    0  0.84976008059E+02  0.10639502221E+02 -0.91221487418E+02  0.12512186348E+03  0.00000000000E+00 0.  1.
</event>
<event>
12    1  0.1061634E+000  0.2175259E+03  0.7818608E-02  0.1135862E+00
         21   -1    0    0  503  502  0.00000000000E+00  0.00000000000E+00  0.26763339229E+03  0.26763339229E+03  0.00000000000E+00 0.  1.
         21   -1    0    0  501  503 -0.00000000000E+00 -0.00000000000E+00 -0.30260531731E+03  0.30260531731E+03  0.00000000000E+00 0.  1.
          6    2    1    2  501    0  0.65493845284E+02  0.11405642772E+03  0.16671567091E+03  0.27406505220E+03  0.17326057092E+03 0.  0.
         24    2    3    3    0    0  0.83260605585E+01  0.10743998564E+03  0.48250650651E+02  0.14227740505E+03  0.79385520730E+02 0.  0.
         -6    2    1    2    0  502 -0.65493845284E+02 -0.11405642772E+03 -0.20168759593E+03  0.29617365740E+03  0.17246053609E+03 0.  0.
        -24    2    5    5    0    0 -0.74664557043E+02 -0.83725347868E+02 -0.21976117956E+03  0.25939294526E+03  0.80031206763E+02 0.  0.
          5    1    3    3  501    0  0.57167784725E+02  0.66164420885E+01  0.11846502026E+03  0.13178764715E+03  0.47000000000E+01 0. -1.
        -11    1    4    4    0    0  0.11297246186E+01  0.11934596758E+03  0.47132370559E+02  0.12832067881E+03  0.00000000000E+00 0.  1.
         12    1    4    4    0    0  0.71963359400E+01 -0.11905981944E+02  0.11182800916E+01  0.13956726241E+02  0.00000000000E+00 0. -1.
         -5    1    5    5    0  502  0.91707117589E+01 -0.30331079856E+02  0.18073583636E+02  0.36780712131E+02  0.47000000000E+01 0.  1.
         11    1    6    6    0    0 -0.49521083627E+02 -0.85729679114E+02 -0.21032599478E+03  0.23246277053E+03  0.00000000000E+00 0. -1.
        -12    1    6    6    0    0 -0.25143473416E+02  0.20043312458E+01 -0.94351847858E+01  0.26930174732E+02  0.00000000000E+00 0.  1.
</event>
<event>
12    1  0.1061634E+000  0.2263058E+03  0.7818608E-02  0.1129631E+00
         21   -1    0    0  501  502  0.00000000000E+00  0.00000000000E+00  0.17006822703E+04  0.17006822703E+04  0.00000000000E+00 0.  1.
         21   -1    0    0  502  503 -0.00000000000E+00 -0.00000000000E+00 -0.33370204829E+02  0.33370204829E+02  0.00000000000E+00 0.  1.
         -6    2    1    2    0  503 -0.12634464716E+03 -0.72638587841E+02  0.11187259735E+04  0.11413860462E+04  0.17313280549E+03 0.  0.
        -24    2    3    3    0    0 -0.10451732143E+03 -0.46766322719E+02  0.10831751079E+04  0.10920731645E+04  0.79022293880E+02 0.  0.
          6    2    1    2  501    0  0.12634464716E+03  0.72638587841E+02  0.54858609200E+03  0.59266642897E+03  0.17049182205E+03 0.  0.
         24    2    5    5    0    0  0.69967447287E+02  0.82618492390E+02  0.49884782090E+03  0.51667976716E+03  0.79922302394E+02 0.  0.
          5    1    5    5  501    0  0.56377199871E+02 -0.99799045493E+01  0.49738271102E+02  0.75986661806E+02  0.47000000000E+01 0. -1.
        -13    1    6    6    0    0 -0.45961343844E+01  0.26791941012E+01  0.17108802113E+03  0.17117071451E+03  0.00000000000E+00 0.  1.
         14    1    6    6    0    0  0.74563581671E+02  0.79939298289E+02  0.32775979977E+03  0.34550905266E+03  0.00000000000E+00 0. -1.
         -5    1    3    3    0  503 -0.21827325732E+02 -0.25872265121E+02  0.35550865614E+02  0.49312881654E+02  0.47000000000E+01 0.  1.
         11    1    4    4    0    0 -0.60162137065E+02  0.60846982692E+01  0.71021279576E+03  0.71278238022E+03  0.00000000000E+00 0. -1.
        -12    1    4    4    0    0 -0.44355184360E+02 -0.52851020989E+02  0.37296231214E+03  0.37929078433E+03  0.00000000000E+00 0.  1.
</event>
<event>
12    1  0.1061634E+000  0.3834118E+03  0.7818608E-02  0.1049713E+00
         21   -1    0    0  503  502  0.00000000000E+00  0.00000000000E+00  0.43996549625E+03  0.43996549625E+03  0.00000000000E+00 0. -1.
         21   -1    0    0  501  503 -0.00000000000E+00 -0.00000000000E+00 -0.33381869933E+03  0.33381869933E+03  0.00000000000E+00 0.  1.
          6    2    1    2  501    0 -0.34277486025E+03 -0.35403792272E+01  0.55258526993E+02  0.38737338739E+03  0.17174835473E+03 0.  0.
         24    2    3    3    0    0 -0.22707680900E+03 -0.90209453869E+01 -0.32468513841E+02  0.24199732554E+03  0.76571839031E+02 0.  0.
         -6    2    1    2    0  502  0.34277486025E+03  0.35403792272E+01  0.50888269933E+02  0.38641080819E+03  0.17092851596E+03 0.  0.
        -24    2    5    5    0    0  0.34535757542E+03  0.11762898326E+02  0.72981815880E+02  0.36223447657E+03  0.80481363633E+02 0.  0.
          5    1    3    3  501    0 -0.11569805124E+03  0.54805661597E+01  0.87727040834E+02  0.14537606185E+03  0.47000000000E+01 0. -1.
        -13    1    4    4    0    0 -0.52855932733E+02  0.25571336251E+02 -0.26113877850E+02  0.64261788639E+02  0.00000000000E+00 0.  1.
         14    1    4    4    0    0 -0.17422087627E+03 -0.34592281638E+02 -0.63546359915E+01  0.17773553690E+03  0.00000000000E+00 0. -1.
         -5    1    5    5    0  502 -0.25827151753E+01 -0.82225190985E+01 -0.22093545947E+02  0.24176331618E+02  0.47000000000E+01 0.  1.
         11    1    6    6    0    0  0.52525999908E+02 -0.27581587915E+02  0.10918899394E+02  0.60323685417E+02  0.00000000000E+00 0. -1.
        -12    1    6    6    0    0  0.29283157551E+03  0.39344486240E+02  0.62062916485E+02  0.30191079116E+03  0.00000000000E+00 0.  1.
</event>
<event>
12    1  0.1061634E+000  0.2156250E+03  0.7818608E-02  0.1137228E+00
         21   -1    0    0  503  502  0.00000000000E+00  0.00000000000E+00  0.88541272039E+02  0.88541272039E+02  0.00000000000E+00 0.  1.
         21   -1    0    0  501  503 -0.00000000000E+00 -0.00000000000E+00 -0.68408234870E+03  0.68408234870E+03  0.00000000000E+00 0.  1.
          6    2    1    2  501    0  0.11390692360E+03  0.61536400106E+02 -0.11135320042E+03  0.24268020890E+03  0.17243153066E+03 0.  0.
         24    2    3    3    0    0  0.81593749850E+02  0.95019898982E+02 -0.34899350606E+02  0.15305561938E+03  0.80757270467E+02 0.  0.
         -6    2    1    2    0  502 -0.11390692360E+03 -0.61536400106E+02 -0.48418787624E+03  0.52994341184E+03  0.17216446927E+03 0.  0.
        -24    2    5    5    0    0 -0.10292339745E+03 -0.69582479835E+02 -0.49180099198E+03  0.51365148817E+03  0.80837419224E+02 0.  0.
          5    1    3    3  501    0  0.32313173748E+02 -0.33483498876E+02 -0.76453849815E+02  0.89624589518E+02  0.47000000000E+01 0. -1.
        -11    1    4    4    0    0  0.43255676497E+02  0.32909140798E+02  0.23855022837E+02  0.59355936618E+02  0.00000000000E+00 0.  1.
         12    1    4    4    0    0  0.38338073352E+02  0.62110758184E+02 -0.58754373443E+02  0.93699682760E+02  0.00000000000E+00 0. -1.
         -5    1    5    5    0  502 -0.10983526146E+02  0.80460797291E+01  0.76131157410E+01  0.16291923671E+02  0.47000000000E+01 0.  1.
         13    1    6    6    0    0 -0.10650089605E+02 -0.44806334111E+02 -0.95901844883E+02  0.10638700972E+03  0.00000000000E+00 0. -1.
        -14    1    6    6    0    0 -0.92273307846E+02 -0.24776145724E+02 -0.39589914710E+03  0.40726447845E+03  0.00000000000E+00 0.  1.
</event>
<event>
12    1  0.1061634E+000  0.3151513E+03  0.7818608E-02  0.1078061E+00
         21   -1    0    0  501  502  0.00000000000E+00  0.00000000000E+00  0.86554434974E+03  0.86554434974E+03  0.00000000000E+00 0.  1.
         21   -1    0    0  502  503 -0.00000000000E+00 -0.00000000000E+00 -0.19320052694E+03  0.19320052694E+03  0.00000000000E+00 0.  1.
         -6    2    1    2    0  503 -0.78656523471E+02  0.25155384992E+03 -0.26369769102E+01  0.31381574709E+03  0.17031494761E+03 0.  0.
        -24    2    3    3    0    0 -0.42785160524E+02  0.24186369405E+03 -0.39667136128E+02  0.26114719393E+03  0.79345817449E+02 0.  0.
          6    2    1    2  501    0  0.78656523471E+02 -0.25155384992E+03  0.67498079972E+03  0.74492912959E+03  0.17278350625E+03 0.  0.
         24    2    5    5    0    0  0.56174258598E+02 -0.25574762145E+03  0.66589934496E+03  0.71987712820E+03  0.78985751034E+02 0.  0.
          5    1    5    5  501    0  0.22482264873E+02  0.41937715300E+01  0.90814547509E+01  0.25052001395E+02  0.47000000000E+01 0. -1.
        -11    1    6    6    0    0  0.68590035770E+02 -0.22688661015E+03  0.62403903954E+03  0.66753790135E+03  0.00000000000E+00 0.  1.
         12    1    6    6    0    0 -0.12415777172E+02 -0.28861011305E+02  0.41860305426E+02  0.52339226845E+02  0.00000000000E+00 0. -1.
         -5    1    3    3    0  503 -0.35871362948E+02  0.96901558730E+01  0.37030159218E+02  0.52668553163E+02  0.47000000000E+01 0.  1.
         13    1    4    4    0    0 -0.28522119119E+00  0.16245254515E+03 -0.51230345458E+02  0.17033924701E+03  0.00000000000E+00 0. -1.
        -14    1    4    4    0    0 -0.42499939332E+02  0.79411148900E+02  0.11563209330E+02  0.90807946915E+02  0.00000000000E+00 0.  1.
</event>
<event>
12    1  0.1061634E+000  0.2399167E+03  0.7818608E-02  0.1119953E+00
         21   -1    0    0  503  502  0.00000000000E+00  0.00000000000E+00  0.46652785819E+02  0.46652785819E+02  0.00000000000E+00 0. -1.
         21   -1    0    0  501  503 -0.00000000000E+00 -0.00000000000E+00 -0.16755671188E+04  0.16755671188E+04  0.00000000000E+00 0. -1.
          6    2    1    2  501    0 -0.16609012154E+03  0.25431363493E+01 -0.37147556407E+03  0.44221501839E+03  0.17311161650E+03 0.  0.
         24    2    3    3    0    0 -0.61529638773E+02 -0.91589526603E+01 -0.85912099180E+02  0.13784942256E+03  0.88044259623E+02 0.  0.
         -6    2    1    2    0  502  0.16609012154E+03 -0.25431363493E+01 -0.12574387689E+04  0.12800048862E+04  0.17224359263E+03 0.  0.
        -24    2    5    5    0    0  0.46635535116E+02  0.46698810651E+02 -0.74287490605E+03  0.74944647613E+03  0.73832530094E+02 0.  0.
          5    1    3    3  501    0 -0.10456048277E+03  0.11702089010E+02 -0.28556346489E+03  0.30436559583E+03  0.47000000000E+01 0. -1.
        -13    1    4    4    0    0 -0.80060659621E+02 -0.71351682861E+01 -0.87891947771E+02  0.11910337665E+03  0.00000000000E+00 0.  1.
         14    1    4    4    0    0  0.18531020848E+02 -0.20237843742E+01  0.19798485913E+01  0.18746045912E+02  0.00000000000E+00 0. -1.
         -5    1    5    5    0  502  0.11945458643E+03 -0.49241947000E+02 -0.51456386287E+03  0.53055841010E+03  0.47000000000E+01 0.  1.
         11    1    6    6    0    0 -0.13537119736E+02  0.14151977469E+01 -0.29267522720E+03  0.29299154427E+03  0.00000000000E+00 0. -1.
        -12    1    6    6    0    0  0.60172654852E+02  0.45283612904E+02 -0.45019967885E+03  0.45645493187E+03  0.00000000000E+00 0.  1.
</event>
<event>
12    1  0.1061634E+000  0.2645373E+03  0.7818608E-02  0.1104558E+00
         21   -1    0    0  501  502  0.00000000000E+00  0.00000000000E+00  0.46371658033E+03  0.46371658033E+03  0.00000000000E+00 0. -1.
         21   -1    0    0  502  503 -0.00000000000E+00 -0.00000000000E+00 -0.15538643524E+03  0.15538643524E+03  0.00000000000E+00 0. -1.
         -6    2    1    2    0  503  0.44565296469E+01 -0.19939579226E+03  0.20936671909E+03  0.33736391103E+03  0.17378562304E+03 0.  0.
        -24    2    3    3    0    0 -0.69663456258E+01 -0.21831772864E+03  0.21029192583E+03  0.31474825798E+03  0.84454788025E+02 0.  0.
          6    2    1    2  501    0 -0.44565296469E+01  0.19939579226E+03  0.98963425999E+02  0.28173910454E+03  0.17264014803E+03 0.  0.
         24    2    5    5    0    0  0.59367956424E+02  0.93310952623E+02  0.28716000412E+02  0.13931597079E+03  0.79704723256E+02 0.  0.
          5    1    5    5  501    0 -0.63824486071E+02  0.10608483964E+03  0.70247425587E+02  0.14242313374E+03  0.47000000000E+01 0. -1.
        -11    1    6    6    0    0  0.39027162189E+02  0.10291590017E+03  0.10871036407E+02  0.11060280887E+03  0.00000000000E+00 0.  1.
         12    1    6    6    0    0  0.20340794236E+02 -0.96049475486E+01  0.17844964005E+02  0.28713161928E+02  0.00000000000E+00 0. -1.
         -5    1    3    3    0  503  0.11422875273E+02  0.18921936374E+02 -0.92520674544E+00  0.22615653056E+02  0.47000000000E+01 0.  1.
         13    1    4    4    0    0  0.24378792858E+02 -0.16449138741E+02  0.20021216218E+02  0.35577363666E+02  0.00000000000E+00 0. -1.
        -14    1    4    4    0    0 -0.31345138484E+02 -0.20186858990E+03  0.19027070962E+03  0.27917089431E+03  0.00000000000E+00 0.  1.
</event>
<event>
12    1  0.1061634E+000  0.1930813E+03  0.7818608E-02  0.1155773E+00
         21   -1    0    0  503  502  0.00000000000E+00  0.00000000000E+00  0.78890189676E+02  0.78890189676E+02  0.00000000000E+00 0.  1.
         21   -1    0    0  501  503 -0.00000000000E+00 -0.00000000000E+00 -0.55849543815E+03  0.55849543815E+03  0.00000000000E+00 0.  1.
          6    2    1    2  501    0  0.21500706726E+02 -0.84406080500E+02 -0.11443997302E+03  0.22444799149E+03  0.17231867759E+03 0.  0.
         24    2    3    3    0    0  0.75219316643E+02 -0.71510139006E+02 -0.52959849668E+02  0.14165976814E+03  0.80567354776E+02 0.  0.
         -6    2    1    2    0  502 -0.21500706726E+02  0.84406080500E+02 -0.36516527545E+03  0.41293763633E+03  0.17200333220E+03 0.  0.
        -24    2    5    5    0    0 -0.64139505577E+02  0.28089644848E+02 -0.29854166973E+03  0.31572445342E+03  0.75179103489E+02 0.  0.
          5    1    3    3  501    0 -0.53718609917E+02 -0.12895941495E+02 -0.61480123355E+02  0.82788223354E+02  0.47000000000E+01 0. -1.
        -11    1    4    4    0    0 -0.15953108109E+02 -0.12179188132E+02 -0.19170430230E+02  0.27754993732E+02  0.00000000000E+00 0.  1.
         12    1    4    4    0    0  0.91172424752E+02 -0.59330950874E+02 -0.33789419438E+02  0.11390477441E+03  0.00000000000E+00 0. -1.
         -5    1    5    5    0  502  0.42638798851E+02  0.56316435653E+02 -0.66623605726E+02  0.97213182913E+02  0.47000000000E+01 0.  1.
         11    1    6    6    0    0 -0.24768227527E+02  0.48557099021E+02 -0.12082266395E+03  0.13254951182E+03  0.00000000000E+00 0. -1.
        -12    1    6    6    0    0 -0.39371278050E+02 -0.20467454174E+02 -0.17771900578E+03  0.18317494160E+03  0.00000000000E+00 0.  1.
</event>
<event>
12    1  0.1061634E+000  0.2121528E+03  0.7818608E-02  0.1140278E+00
         21   -1    0    0  501  502  0.00000000000E+00  0.00000000000E+00  0.13178127567E+03  0.13178127567E+03  0.00000000000E+00 0.  1.
         21   -1    0    0  502  503 -0.00000000000E+00 -0.00000000000E+00 -0.37731440616E+03  0.37731440616E+03  0.00000000000E+00 0.  1.
         -6    2    1    2    0  503 -0.58692141702E+02  0.11019109533E+03 -0.20415660505E+03  0.29294565838E+03  0.16896861955E+03 0.  0.
        -24    2    3    3    0    0 -0.70658310530E+02  0.34002442115E+01 -0.99948410218E+02  0.14318280268E+03  0.74212342433E+02 0.  0.
          6    2    1    2  501    0  0.58692141702E+02 -0.11019109533E+03 -0.41376525435E+02  0.21615002344E+03  0.17152833815E+03 0.  0.
         24    2    5    5    0    0  0.22415327287E+02 -0.13484177333E+03 -0.60102119419E+00  0.15608010638E+03  0.75338487159E+02 0.  0.
          5    1    5    5  501    0  0.36276814415E+02  0.24650678002E+02 -0.40775504241E+02  0.60069917064E+02  0.47000000000E+01 0. -1.
        -11    1    6    6    0    0 -0.51183933332E+01 -0.25391676954E+02 -0.29819941506E+02  0.39498912900E+02  0.00000000000E+00 0.  1.
         12    1    6    6    0    0  0.27533720620E+02 -0.10945009638E+03  0.29218920312E+02  0.11658119348E+03  0.00000000000E+00 0. -1.
         -5    1    3    3    0  503  0.11966168828E+02  0.10679085112E+03 -0.10420819483E+03  0.14976285571E+03  0.47000000000E+01 0.  1.
         11    1    4    4    0    0 -0.77787398255E+02 -0.13733249942E+01 -0.49951207964E+02  0.92454791795E+02  0.00000000000E+00 0. -1.
        -12    1    4    4    0    0  0.71290877246E+01  0.47735692057E+01 -0.49997202253E+02  0.50728010881E+02  0.00000000000E+00 0.  1.
</event>
<event>
12    1  0.1061634E+000  0.1936681E+03  0.7818608E-02  0.1155706E+00
         21   -1    0    0  503  502  0.00000000000E+00  0.00000000000E+00  0.12493487009E+03  0.12493487009E+03  0.00000000000E+00 0. -1.
         21   -1    0    0  501  503 -0.00000000000E+00 -0.00000000000E+00 -0.34722518514E+03  0.34722518514E+03  0.00000000000E+00 0. -1.
          6    2    1    2  501    0  0.25859298115E+02  0.84618096768E+02 -0.20182299792E+03  0.27971390281E+03  0.17227425616E+03 0.  0.
         24    2    3    3    0    0  0.13603574265E+02  0.10873842222E+03 -0.87221055110E+02  0.16186786697E+03  0.81145500202E+02 0.  0.
         -6    2    1    2    0  502 -0.25859298115E+02 -0.84618096768E+02 -0.20467317132E+02  0.19244615242E+03  0.16966933993E+03 0.  0.
        -24    2    5    5    0    0  0.30272171561E+02  0.53653445490E+01 -0.25824598461E+01  0.84790591863E+02  0.78978377272E+02 0.  0.
          5    1    3    3  501    0  0.12255723849E+02 -0.24120325452E+02 -0.11460194281E+03  0.11784603584E+03  0.47000000000E+01 0. -1.
        -13    1    4    4    0    0 -0.28876394277E+02  0.49050669994E+02 -0.62533253292E+02  0.84558986161E+02  0.00000000000E+00 0.  1.
         14    1    4    4    0    0  0.42479968543E+02  0.59687752226E+02 -0.24687801818E+02  0.77308880808E+02  0.00000000000E+00 0. -1.
         -5    1    5    5    0  502 -0.56131469676E+02 -0.89983441317E+02 -0.17884857286E+02  0.10765556056E+03  0.47000000000E+01 0.  1.
         13    1    6    6    0    0 -0.22599444097E+02  0.18034357415E+02 -0.84084309814E+01  0.30111038382E+02  0.00000000000E+00 0. -1.
        -14    1    6    6    0    0  0.52871615658E+02 -0.12669012866E+02  0.58259711353E+01  0.54679553481E+02  0.00000000000E+00 0.  1.
</event>
<event>
12    1  0.1061634E+000  0.1933126E+03  0.7818608E-02  0.1156131E+00
         21   -1    0    0  503  502  0.00000000000E+00  0.00000000000E+00  0.34482619724E+03  0.34482619724E+03  0.00000000000E+00 0. -1.
         21   -1    0    0  501  503 -0.00000000000E+00 -0.00000000000E+00 -0.14133498731E+03  0.14133498731E+03  0.00000000000E+00 0. -1.
          6    2    1    2  501    0  0.55319426135E+02  0.63953130491E+02  0.22133044680E+03  0.29202720965E+03  0.17071169464E+03 0.  0.
         24    2    3    3    0    0 -0.16283380292E+02  0.68764219043E+02  0.17982689364E+03  0.20899261815E+03  0.79665152160E+02 0.  0.
         -6    2    1    2    0  502 -0.55319426135E+02 -0.63953130491E+02 -0.17839236871E+02  0.19413397489E+03  0.17383762547E+03 0.  0.
        -24    2    5    5    0    0 -0.75665154588E+02 -0.99908453151E+02  0.20522127807E+01  0.14804174493E+03  0.78773295183E+02 0.  0.
          5    1    3    3  501    0  0.71602806427E+02 -0.48110885526E+01  0.41503553160E+02  0.83034591504E+02  0.47000000000E+01 0. -1.
        -11    1    4    4    0    0  0.21553475556E+02  0.41996341952E+02  0.40628890412E+02  0.62281231378E+02  0.00000000000E+00 0.  1.
         12    1    4    4    0    0 -0.37836855848E+02  0.26767877092E+02  0.13919800323E+03  0.14671138677E+03  0.00000000000E+00 0. -1.
         -5    1    5    5    0  502  0.20345728453E+02  0.35955322660E+02 -0.19891449652E+02  0.46092229965E+02  0.47000000000E+01 0.  1.
         13    1    6    6    0    0 -0.25979045343E+02 -0.30950729231E+02 -0.36740175476E+02  0.54614090955E+02  0.00000000000E+00 0. -1.
        -14    1    6    6    0    0 -0.49686109245E+02 -0.68957723920E+02  0.38792388256E+02  0.93427653972E+02  0.00000000000E+00 0.  1.
</event>
<event>
12    1  0.1061634E+000  0.3340390E+03  0.7818608E-02  0.1069425E+00
         21   -1    0    0  501  502  0.00000000000E+00  0.00000000000E+00  0.19965836523E+03  0.19965836523E+03  0.00000000000E+00 0. -1.
         21   -1    0    0  502  503 -0.00000000000E+00 -0.00000000000E+00 -0.10681587905E+04  0.10681587905E+04  0.00000000000E+00 0.  1.
         -6    2    1    2    0  503 -0.26582240349E+03 -0.10326238428E+03  0.40660276045E+01  0.33349694794E+03  0.17285546419E+03 0.  0.
        -24    2    3    3    0    0 -0.15309473468E+03 -0.82399058182E+02 -0.61192347341E+02  0.20149864798E+03  0.81422350676E+02 0.  0.
          6    2    1    2  501    0  0.26582240349E+03  0.10326238428E+03 -0.87256645286E+03  0.93432020778E+03  0.17394644522E+03 0.  0.
         24    2    5    5    0    0  0.18333308477E+03  0.34322752140E+02 -0.40823395407E+03  0.45768206410E+03  0.89603790398E+02 0.  0.
          5    1    5    5  501    0  0.82489318719E+02  0.68939632142E+02 -0.46433249879E+03  0.47663814368E+03  0.47000000000E+01 0. -1.
        -11    1    6    6    0    0  0.89140443269E+01  0.11688965627E+02 -0.17816715931E+01  0.14807648610E+02  0.00000000000E+00 0.  1.
         12    1    6    6    0    0  0.17441904044E+03  0.22633786513E+02 -0.40645228248E+03  0.44287441549E+03  0.00000000000E+00 0. -1.
         -5    1    3    3    0  503 -0.11272766881E+03 -0.20863326099E+02  0.65258374946E+02  0.13199829996E+03  0.47000000000E+01 0.  1.
         13    1    4    4    0    0 -0.98081389260E+02 -0.84204675098E+02 -0.15951079255E+02  0.13024908121E+03  0.00000000000E+00 0. -1.
        -14    1    4    4    0    0 -0.55013345416E+02  0.18056169159E+01 -0.45241268086E+02  0.71249566766E+02  0.00000000000E+00 0.  1.
</event>
<event>
12    1  0.1061634E+000  0.1756489E+03  0.7818608E-02  0.1172685E+00
         21   -1    0    0  503  502  0.00000000000E+00  0.00000000000E+00  0.48375466664E+02  0.48375466664E+02  0.00000000000E+00 0.  1.
         21   -1    0    0  501  503 -0.00000000000E+00 -0.00000000000E+00 -0.64207484678E+03  0.64207484678E+03  0.00000000000E+00 0.  1.
          6    2    1    2  501    0  0.28512695277E+01 -0.20004314844E+02 -0.34392051623E+03  0.38509477552E+03  0.17207080606E+03 0.  0.
         24    2    3    3    0    0 -0.19532091446E+02 -0.31723855941E+02 -0.34827835631E+03  0.35902864304E+03  0.78840645732E+02 0.  0.
         -6    2    1    2    0  502 -0.28512695277E+01  0.20004314844E+02 -0.24977886389E+03  0.30535553793E+03  0.17448272507E+03 0.  0.
        -24    2    5    5    0    0  0.34910280357E+02 -0.64958417287E+01 -0.24320340320E+03  0.25852051224E+03  0.80150086002E+02 0.  0.
          5    1    3    3  501    0  0.22383360974E+02  0.11719541097E+02  0.43578400813E+01  0.26066132474E+02  0.47000000000E+01 0. -1.
        -11    1    4    4    0    0 -0.48147216864E+02 -0.25233953598E+02 -0.27031727701E+03  0.27572873836E+03  0.00000000000E+00 0.  1.
         12    1    4    4    0    0  0.28615125418E+02 -0.64899023421E+01 -0.77961079301E+02  0.83299904687E+02  0.00000000000E+00 0. -1.
         -5    1    5    5    0  502 -0.37761549885E+02  0.26500156572E+02 -0.65754606904E+01  0.46835025690E+02  0.47000000000E+01 0.  1.
         13    1    6    6    0    0  0.38576433688E+01 -0.66261782288E+01 -0.21903942926E+03  0.21917358239E+03  0.00000000000E+00 0. -1.
        -14    1    6    6    0    0  0.31052636988E+02  0.13033650008E+00 -0.24163973943E+02  0.39346929845E+02  0.00000000000E+00 0.  1.
</event>
<event>
12    1  0.1061634E+000  0.2110807E+03  0.7818608E-02  0.1140790E+00
         21   -1    0    0  501  502  0.00000000000E+00  0.00000000000E+00  0.66397447813E+03  0.66397447813E+03  0.00000000000E+00 0.  1.
         21   -1    0    0  502  503 -0.00000000000E+00 -0.00000000000E+00 -0.73329080861E+02  0.73329080861E+02  0.00000000000E+00 0.  1.
         -6    2    1    2    0  503 -0.28979841153E+02  0.11802197340E+03  0.40355640828E+03  0.45524443249E+03  0.17210665662E+03 0.  0.
        -24    2    3    3    0    0 -0.15371277424E+02  0.14568700576E+03  0.38320193025E+03  0.41800276499E+03  0.80134963503E+02 0.  0.
          6    2    1    2  501    0  0.28979841153E+02 -0.11802197340E+03  0.18708898899E+03  0.28205912650E+03  0.17258633678E+03 0.  0.
         24    2    5    5    0    0  0.62346447896E+02 -0.20910075269E+02  0.12347317838E+03  0.16117441877E+03  0.80045341359E+02 0.  0.
          5    1    5    5  501    0 -0.33366606743E+02 -0.97111898131E+02  0.63615810615E+02  0.12088470774E+03  0.47000000000E+01 0. -1.
        -11    1    6    6    0    0 -0.46344119382E+01  0.20006109129E+02  0.91051693888E+01  0.22463888490E+02  0.00000000000E+00 0.  1.
         12    1    6    6    0    0  0.66980859835E+02 -0.40916184398E+02  0.11436800899E+03  0.13871053028E+03  0.00000000000E+00 0. -1.
         -5    1    3    3    0  503 -0.13608563729E+02 -0.27665032360E+02  0.20354478029E+02  0.37241667499E+02  0.47000000000E+01 0.  1.
         13    1    4    4    0    0  0.31230283251E+02  0.74814363631E+02  0.16350644901E+03  0.18250172182E+03  0.00000000000E+00 0. -1.
        -14    1    4    4    0    0 -0.46601560676E+02  0.70872642130E+02  0.21969548124E+03  0.23550104318E+03  0.00000000000E+00 0.  1.
</event>
<event>
12    1  0.1061634E+000  0.4410833E+03  0.7818608E-02  0.1030532E+00
         21   -1    0    0  501  502  0.00000000000E+00  0.00000000000E+00  0.22501050381E+03  0.22501050381E+03  0.00000000000E+00 0. -1.
         21   -1    0    0  502  503 -0.00000000000E+00 -0.00000000000E+00 -0.86188318808E+03  0.86188318808E+03  0.00000000000E+00 0. -1.
         -6    2    1    2    0  503 -0.40342204851E+03 -0.43647211630E+02 -0.30988936814E+03  0.53906018214E+03  0.17291625480E+03 0.  0.
        -24    2    3    3    0    0 -0.33276964275E+03  0.16019797140E+02 -0.27884560354E+03  0.44139893242E+03  0.78012036860E+02 0.  0.
          6    2    1    2  501    0  0.40342204851E+03  0.43647211630E+02 -0.32698331614E+03  0.54783350975E+03  0.16896460300E+03 0.  0.
         24    2    5    5    0    0  0.26954071928E+03  0.93457293797E+02 -0.23175693890E+03  0.37609123911E+03  0.79667284983E+02 0.  0.
          5    1    5    5  501    0  0.13388132923E+03 -0.49810082167E+02 -0.95226377237E+02  0.17174227064E+03  0.47000000000E+01 0. -1.
        -11    1    6    6    0    0  0.26754103062E+03  0.82052848735E+02 -0.23339753828E+03  0.36439715137E+03  0.00000000000E+00 0.  1.
         12    1    6    6    0    0  0.19996886531E+01  0.11404445062E+02  0.16405993728E+01  0.11694087745E+02  0.00000000000E+00 0. -1.
         -5    1    3    3    0  503 -0.70652405761E+02 -0.59667008770E+02 -0.31043764594E+02  0.97661249713E+02  0.47000000000E+01 0.  1.
         13    1    4    4    0    0 -0.46047842816E+02  0.26425270189E+02 -0.62848119719E+02  0.82271409886E+02  0.00000000000E+00 0. -1.
        -14    1    4    4    0    0 -0.28672179993E+03 -0.10405473049E+02 -0.21599748382E+03  0.35912752254E+03  0.00000000000E+00 0.  1.
</event>
<event>
12    1  0.1061634E+000  0.3751025E+03  0.7818608E-02  0.1052761E+00
         21   -1    0    0  503  502  0.00000000000E+00  0.00000000000E+00  0.21483438624E+03  0.21483438624E+03  0.00000000000E+00 0.  1.
         21   -1    0    0  501  503 -0.00000000000E+00 -0.00000000000E+00 -0.84810298932E+03  0.84810298932E+03  0.00000000000E+00 0.  1.
          6    2    1    2  501    0 -0.66096497063E+02 -0.32667444770E+03 -0.62974485491E+02  0.38035207279E+03  0.17209582142E+03 0.  0.
         24    2    3    3    0    0 -0.30064216341E+02 -0.32718835993E+03 -0.51712002901E+02  0.34230574742E+03  0.80888896015E+02 0.  0.
         -6    2    1    2    0  502  0.66096497063E+02  0.32667444770E+03 -0.57029411759E+03  0.68258530278E+03  0.17205340249E+03 0.  0.
        -24    2    5    5    0    0 -0.18046266761E+02  0.20504140295E+03 -0.39760610143E+03  0.45516972899E+03  0.81983081319E+02 0.  0.
          5    1    3    3  501    0 -0.36032280721E+02  0.51391222896E+00 -0.11262482591E+02  0.38046325366E+02  0.47000000000E+01 0. -1.
        -13    1    4    4    0    0 -0.13767420488E+02 -0.54486022960E+02 -0.39786696504E+02  0.68856733756E+02  0.00000000000E+00 0.  1.
         14    1    4    4    0    0 -0.16296795853E+02 -0.27270233697E+03 -0.11925306397E+02  0.27344901366E+03  0.00000000000E+00 0. -1.
         -5    1    5    5    0  502  0.84142763824E+02  0.12163304475E+03 -0.17268801615E+03  0.22741557379E+03  0.47000000000E+01 0.  1.
         11    1    6    6    0    0  0.31501302406E+02  0.89876958361E+02 -0.15100441599E+03  0.17852880257E+03  0.00000000000E+00 0. -1.
        -12    1    6    6    0    0 -0.49547569167E+02  0.11516444459E+03 -0.24660168544E+03  0.27664092642E+03  0.00000000000E+00 0.  1.
</event>
<event>
12    1  0.1061634E+000  0.2081692E+03  0.7818608E-02  0.1143025E+00
         21   -1    0    0  503  502  0.00000000000E+00  0.00000000000E+00  0.13216771398E+03  0.13216771398E+03  0.00000000000E+00 0.  1.
         21   -1    0    0  501  503 -0.00000000000E+00 -0.00000000000E+00 -0.37084105689E+03  0.37084105689E+03  0.00000000000E+00 0.  1.
          6    2    1    2  501    0 -0.11779782790E+03  0.57214135526E+01 -0.20495700543E+03  0.29213319171E+03  0.17153823129E+03 0.  0.
         24    2    3    3    0    0 -0.29173106253E+02 -0.48991376223E+02 -0.64506534106E+02  0.11721533800E+03  0.79543179767E+02 0.  0.
         -6    2    1    2    0  502  0.11779782790E+03 -0.57214135526E+01 -0.33716337476E+02  0.21087557916E+03  0.17153033446E+03 0.  0.
        -24    2    5    5    0    0  0.69330172092E+02  0.34146128137E+02 -0.75745766020E+02  0.13519799064E+03  0.81045942369E+02 0.  0.
          5    1    3    3  501    0 -0.88624721651E+02  0.54712789775E+02 -0.14045047132E+03  0.17491785371E+03  0.47000000000E+01 0. -1.
        -11    1    4    4    0    0 -0.50988651014E+02 -0.13054039970E+02 -0.20863993592E+02  0.56617636125E+02  0.00000000000E+00 0.  1.
         12    1    4    4    0    0  0.21815544760E+02 -0.35937336253E+02 -0.43642540513E+02  0.60597701875E+02  0.00000000000E+00 0. -1.
         -5    1    5    5    0  502  0.48467655812E+02 -0.39867541690E+02  0.42029428544E+02  0.75677588519E+02  0.47000000000E+01 0.  1.
         13    1    6    6    0    0  0.38738931146E+02 -0.15982461362E+02 -0.34382733651E+01  0.42047182798E+02  0.00000000000E+00 0. -1.
        -14    1    6    6    0    0  0.30591240946E+02  0.50128589499E+02 -0.72307492655E+02  0.93150807843E+02  0.00000000000E+00 0.  1.
</event>
<event>
12    1  0.1061634E+000  0.2608563E+03  0.7818608E-02  0.1106726E+00
         21   -1    0    0  501  502  0.00000000000E+00  0.00000000000E+00  0.20997800680E+03  0.20997800680E+03  0.00000000000E+00 0.  1.
         21   -1    0    0  502  503 -0.00000000000E+00 -0.00000000000E+00 -0.32560024010E+03  0.32560024010E+03  0.00000000000E+00 0.  1.
         -6    2    1    2    0  503  0.45656534931E+02  0.19008436481E+03 -0.35050751785E+02  0.26256221342E+03  0.17173752003E+03 0.  0.
        -24    2    3    3    0    0  0.66267479672E+02  0.12183820784E+03 -0.79640112391E+02  0.17834434083E+03  0.78919127286E+02 0.  0.
          6    2    1    2  501    0 -0.45656534931E+02 -0.19008436481E+03 -0.80571481517E+02  0.27301603349E+03  0.17271191616E+03 0.  0.
         24    2    5    5    0    0  0.36180545616E+02 -0.11759220002E+03 -0.71057363367E+02  0.16317510236E+03  0.80249658902E+02 0.  0.
          5    1    5    5  501    0 -0.81837080547E+02 -0.72492164791E+02 -0.95141181500E+01  0.10984093114E+03  0.47000000000E+01 0. -1.
        -11    1    6    6    0    0  0.70124526226E+01 -0.42855957815E+02  0.14600185212E+02  0.45814550311E+02  0.00000000000E+00 0.  1.
         12    1    6    6    0    0  0.29168092994E+02 -0.74736242204E+02 -0.85657548579E+02  0.11736055204E+03  0.00000000000E+00 0. -1.
         -5    1    3    3    0  503 -0.20610944741E+02  0.68246156970E+02  0.44589360606E+02  0.84217872590E+02  0.47000000000E+01 0.  1.
         13    1    4    4    0    0  0.79383020357E+02  0.70795737531E+02 -0.59867524809E+02  0.12205662989E+03  0.00000000000E+00 0. -1.
        -14    1    4    4    0    0 -0.13115540685E+02  0.51042470309E+02 -0.19772587581E+02  0.56287710936E+02  0.00000000000E+00 0.  1.
</event>
<event>
12    1  0.1061634E+000  0.1810646E+03  0.7818608E-02  0.1167326E+00
         21   -1    0    0  501  502  0.00000000000E+00  0.00000000000E+00  0.70289538474E+02  0.70289538474E+02  0.00000000000E+00 0.  1.
         21   -1    0    0  502  503 -0.00000000000E+00 -0.00000000000E+00 -0.46503561447E+03  0.46503561447E+03  0.00000000000E+00 0.  1.
         -6    2    1    2    0  503  0.11115553296E+02  0.45844843102E+02 -0.22479799531E+03  0.28864946509E+03  0.17481152661E+03 0.  0.
        -24    2    3    3    0    0 -0.27115098486E+02  0.42036434248E+02 -0.22979721443E+03  0.24962166851E+03  0.83677519443E+02 0.  0.
          6    2    1    2  501    0 -0.11115553296E+02 -0.45844843102E+02 -0.16994808068E+03  0.24667568785E+03  0.17245648636E+03 0.  0.
         24    2    5    5    0    0  0.45273478060E+02 -0.35559058988E+02 -0.15839820180E+03  0.18801556584E+03  0.83341035348E+02 0.  0.
          5    1    5    5  501    0 -0.56389031356E+02 -0.10285784114E+02 -0.11549878875E+02  0.58660122009E+02  0.47000000000E+01 0. -1.
        -11    1    6    6    0    0  0.43976633650E+02 -0.22051101488E+02 -0.27389879112E+02  0.56306312806E+02  0.00000000000E+00 0.  1.
         12    1    6    6    0    0  0.12968444102E+01 -0.13507957500E+02 -0.13100832269E+03  0.13170925304E+03  0.00000000000E+00 0. -1.
         -5    1    3    3    0  503  0.38230651782E+02  0.38084088541E+01  0.49992191185E+01  0.39027796575E+02  0.47000000000E+01 0.  1.
         13    1    4    4    0    0  0.12969683440E+02  0.17974927594E+02 -0.17983843221E+03  0.18119926161E+03  0.00000000000E+00 0. -1.
        -14    1    4    4    0    0 -0.40084781926E+02  0.24061506654E+02 -0.49958782226E+02  0.68422406901E+02  0.00000000000E+00 0.  1.
</event>
<event>
12    1  0.1061634E+000  0.2041690E+03  0.7818608E-02  0.1146416E+00
         21   -1    0    0  503  502  0.00000000000E+00  0.00000000000E+00  0.15144266755E+03  0.15144266755E+03  0.00000000000E+00 0. -1.
         21   -1    0    0  501  503 -0.00000000000E+00 -0.00000000000E+00 -0.60340966846E+03  0.60340966846E+03  0.00000000000E+00 0. -1.
          6    2    1    2  501    0 -0.14607204298E+02  0.10800773913E+03  0.52939404648E+02  0.21022818934E+03  0.17179717372E+03 0.  0.
         24    2    3    3    0    0 -0.43546154761E+02  0.62212571635E+01 -0.24486817764E+01  0.90696265220E+02  0.79277013359E+02 0.  0.
         -6    2    1    2    0  502  0.14607204298E+02 -0.10800773913E+03 -0.50490640555E+03  0.54462414667E+03  0.17264397076E+03 0.  0.
        -24    2    5    5    0    0  0.33582937573E+02 -0.89951660176E+02 -0.50230645972E+03  0.51788559475E+03  0.81698194057E+02 0.  0.
          5    1    3    3  501    0  0.28938950463E+02  0.10178648197E+03  0.55388086425E+02  0.11953192412E+03  0.47000000000E+01 0. -1.
        -11    1    4    4    0    0 -0.48768436560E+02  0.24054423360E+02 -0.26346274124E+02  0.60424348138E+02  0.00000000000E+00 0.  1.
         12    1    4    4    0    0  0.52222817990E+01 -0.17833166197E+02  0.23897592347E+02  0.30271917081E+02  0.00000000000E+00 0. -1.
         -5    1    5    5    0  502 -0.18975733275E+02 -0.18056078954E+02 -0.25999458357E+01  0.26738551922E+02  0.47000000000E+01 0.  1.
         11    1    6    6    0    0 -0.20810515934E+02 -0.15104794025E+02 -0.20251654182E+03  0.20414255334E+03  0.00000000000E+00 0. -1.
        -12    1    6    6    0    0  0.54393453507E+02 -0.74846866151E+02 -0.29978991790E+03  0.31374304141E+03  0.00000000000E+00 0.  1.
</event>
<event>
12    1  0.1061634E+000  0.1906373E+03  0.7818608E-02  0.1158175E+00
         21   -1    0    0  503  502  0.00000000000E+00  0.00000000000E+00  0.10506217021E+04  0.10506217021E+04  0.00000000000E+00 0. -1.
         21   -1    0    0  501  503 -0.00000000000E+00 -0.00000000000E+00 -0.75989841748E+02  0.75989841748E+02  0.00000000000E+00 0. -1.
          6    2    1    2  501    0  0.82105557247E+02  0.35663722450E+01  0.69643694121E+02  0.20176227691E+03  0.17059815564E+03 0.  0.
         24    2    3    3    0    0  0.12268945412E+03 -0.44665955298E+01  0.64091218875E+02  0.15975631021E+03  0.79635053127E+02 0.  0.
         -6    2    1    2    0  502 -0.82105557247E+02 -0.35663722450E+01  0.90498816627E+03  0.92484926698E+03  0.17201320882E+03 0.  0.
        -24    2    5    5    0    0 -0.85312172215E+02 -0.58481426755E+02  0.65980472643E+03  0.67352685501E+03  0.87165953148E+02 0.  0.
          5    1    3    3  501    0 -0.40583896874E+02  0.80329677748E+01  0.55524752465E+01  0.42005966697E+02  0.47000000000E+01 0. -1.
        -13    1    4    4    0    0  0.34400344210E+02  0.45046837189E+01 -0.17807163320E+02  0.38997063001E+02  0.00000000000E+00 0.  1.
         14    1    4    4    0    0  0.88289109911E+02 -0.89712792488E+01  0.81898382195E+02  0.12075924721E+03  0.00000000000E+00 0. -1.
         -5    1    5    5    0  502  0.32066149679E+01  0.54915054510E+02  0.24518343984E+03  0.25132241198E+03  0.47000000000E+01 0.  1.
         13    1    6    6    0    0 -0.70917309688E+02 -0.58838749259E+02  0.30950420294E+03  0.32293051089E+03  0.00000000000E+00 0. -1.
        -14    1    6    6    0    0 -0.14394862527E+02  0.35732250400E+00  0.35030052350E+03  0.35059634412E+03  0.00000000000E+00 0.  1.
</event>
<event>
12    1  0.1061634E+000  0.2170440E+03  0.7818608E-02  0.1136213E+00
         21   -1    0    0  501  502  0.00000000000E+00  0.00000000000E+00  0.37653442736E+03  0.37653442736E+03  0.00000000000E+00 0. -1.
         21   -1    0    0  502  503 -0.00000000000E+00 -0.00000000000E+00 -0.12481051061E+03  0.12481051061E+03  0.00000000000E+00 0. -1.
         -6    2    1    2    0  503 -0.28130810056E+02 -0.12877126885E+03  0.12213980050E+03  0.24856017159E+03  0.17172840732E+03 0.  0.
        -24    2    3    3    0    0 -0.35407535243E+02  0.18573266792E+00  0.40511125453E+02  0.95693597220E+02  0.79135233713E+02 0.  0.
          6    2    1    2  501    0  0.28130810056E+02  0.12877126885E+03  0.12958411625E+03  0.25278476639E+03  0.17243756197E+03 0.  0.
         24    2    5    5    0    0  0.73440723394E+01  0.14997189540E+03  0.65529259296E+02  0.18202694187E+03  0.79336113694E+02 0.  0.
          5    1    5    5  501    0  0.20786737716E+02 -0.21200626549E+02  0.64054856952E+02  0.70757824515E+02  0.47000000000E+01 0. -1.
        -11    1    6    6    0    0  0.34847828805E+01  0.36734520196E+02 -0.18199609191E+02  0.41143583467E+02  0.00000000000E+00 0.  1.
         12    1    6    6    0    0  0.38592894590E+01  0.11323737520E+03  0.83728868487E+02  0.14088335841E+03  0.00000000000E+00 0. -1.
         -5    1    3    3    0  503  0.72767251870E+01 -0.12895700152E+03  0.81628675047E+02  0.15286657437E+03  0.47000000000E+01 0.  1.
         13    1    4    4    0    0  0.92371396667E+01  0.30750458718E+02  0.10267950270E+02  0.33709735438E+02  0.00000000000E+00 0. -1.
        -14    1    4    4    0    0 -0.44644674909E+02 -0.30564726050E+02  0.30243175183E+02  0.61983861782E+02  0.00000000000E+00 0.  1.
</event>
<event>
12    1  0.1061634E+000  0.1925294E+03  0.7818608E-02  0.1156333E+00
         21   -1    0    0  501  502  0.00000000000E+00  0.00000000000E+00  0.58439783292E+02  0.58439783292E+02  0.00000000000E+00 0. -1.
         21   -1    0    0  502  503 -0.00000000000E+00 -0.00000000000E+00 -0.64438042677E+03  0.64438042677E+03  0.00000000000E+00 0. -1.
         -6    2    1    2    0  503  0.19751917641E+02 -0.84437427536E+02 -0.24441685075E+03  0.31076655100E+03  0.17122042773E+03 0.  0.
        -24    2    3    3    0    0 -0.41159657442E+02 -0.42923151358E+01 -0.96336872930E+02  0.13164863216E+03  0.79611732131E+02 0.  0.
          6    2    1    2  501    0 -0.19751917641E+02  0.84437427536E+02 -0.34152379273E+03  0.39205365906E+03  0.17189459899E+03 0.  0.
         24    2    5    5    0    0 -0.33690942096E+02  0.54937514789E+02 -0.34390697848E+03  0.35900353305E+03  0.80363653382E+02 0.  0.
          5    1    5    5  501    0  0.13939024454E+02  0.29499912747E+02  0.23831857531E+01  0.33050126008E+02  0.47000000000E+01 0. -1.
        -13    1    6    6    0    0 -0.66659765097E+01  0.70847864834E+02 -0.22192965819E+03  0.23305928083E+03  0.00000000000E+00 0.  1.
         14    1    6    6    0    0 -0.27024965586E+02 -0.15910350045E+02 -0.12197732029E+03  0.12594425222E+03  0.00000000000E+00 0. -1.
         -5    1    3    3    0  503  0.60911575084E+02 -0.80145112400E+02 -0.14807997782E+03  0.17911791885E+03  0.47000000000E+01 0.  1.
         11    1    4    4    0    0  0.20532748090E+02  0.10240498674E+02 -0.43303451477E+02  0.49006636970E+02  0.00000000000E+00 0. -1.
        -12    1    4    4    0    0 -0.61692405532E+02 -0.14532813810E+02 -0.53033421452E+02  0.82641995187E+02  0.00000000000E+00 0.  1.
</event>
<event>
12    1  0.1061634E+000  0.3604834E+03  0.7818608E-02  0.1058400E+00
         21   -1    0    0  501  502  0.00000000000E+00  0.00000000000E+00  0.21948693806E+04  0.21948693806E+04  0.00000000000E+00 0.  1.
         21   -1    0    0  502  503 -0.00000000000E+00 -0.00000000000E+00 -0.70955002967E+02  0.70955002967E+02  0.00000000000E+00 0. -1.
         -6    2    1    2    0  503  0.26514736484E+03 -0.17342813892E+03  0.15231202963E+04  0.15651805466E+04  0.17179715349E+03 0.  0.
        -24    2    3    3    0    0  0.26007949916E+03 -0.19316719658E+03  0.13441551527E+04  0.13849975111E+04  0.80685311214E+02 0.  0.
          6    2    1    2  501    0 -0.26514736484E+03  0.17342813892E+03  0.60079408132E+03  0.70064383697E+03  0.17195294033E+03 0.  0.
         24    2    5    5    0    0 -0.94202906276E+02  0.13753179322E+03  0.29606144315E+03  0.34936812430E+03  0.81342033782E+02 0.  0.
          5    1    5    5  501    0 -0.17094445856E+03  0.35896345704E+02  0.30473263817E+03  0.35127571267E+03  0.47000000000E+01 0. -1.
        -13    1    6    6    0    0 -0.39225189171E+02  0.42279987888E+02  0.18200720985E+03  0.19092626137E+03  0.00000000000E+00 0.  1.
         14    1    6    6    0    0 -0.54977717105E+02  0.95251805327E+02  0.11405423330E+03  0.15844186293E+03  0.00000000000E+00 0. -1.
         -5    1    3    3    0  503  0.50678656808E+01  0.19739057661E+02  0.17896514355E+03  0.18018303545E+03  0.47000000000E+01 0.  1.
         13    1    4    4    0    0  0.11424243575E+03 -0.43116756700E+02  0.41616213777E+03  0.43370648340E+03  0.00000000000E+00 0. -1.
        -14    1    4    4    0    0  0.14583706341E+03 -0.15005043988E+03  0.92799301496E+03  0.95129102770E+03  0.00000000000E+00 0.  1.
</event>
<event>
12    1  0.1061634E+000  0.2192158E+03  0.7818608E-02  0.1135025E+00
         21   -1    0    0  503  502  0.00000000000E+00  0.00000000000E+00  0.22019385774E+04  0.22019385774E+04  0.00000000000E+00 0. -1.
         21   -1    0    0  501  503 -0.00000000000E+00 -0.00000000000E+00 -0.21531949725E+02  0.21531949725E+02  0.00000000000E+00 0. -1.
          6    2    1    2  501    0  0.42980152065E+02  0.12850684149E+03  0.10958223550E+04  0.11175339906E+04  0.17232029670E+03 0.  0.
         24    2    3    3    0    0  0.64049934456E+02  0.51889727742E+02  0.47264855075E+03  0.48929693490E+03  0.96020310521E+02 0.  0.
         -6    2    1    2    0  502 -0.42980152065E+02 -0.12850684149E+03  0.10845842727E+04  0.11059365365E+04  0.16855644898E+03 0.  0.
        -24    2    5    5    0    0 -0.78696234075E+02 -0.50442888586E+02  0.77664576573E+03  0.78622129866E+03  0.78915795502E+02 0.  0.
          5    1    3    3  501    0 -0.21069782391E+02  0.76617113753E+02  0.62317380426E+03  0.62823705571E+03  0.47000000000E+01 0. -1.
        -13    1    4    4    0    0  0.23977949024E+02  0.26837439877E+01  0.17649619129E+02  0.29894039148E+02  0.00000000000E+00 0.  1.
         14    1    4    4    0    0  0.40071985432E+02  0.49205983754E+02  0.45499893162E+03  0.45940289576E+03  0.00000000000E+00 0. -1.
         -5    1    5    5    0  502  0.35716082010E+02 -0.78063952908E+02  0.30793850693E+03  0.31971523784E+03  0.47000000000E+01 0.  1.
         13    1    6    6    0    0 -0.31963628070E+02 -0.45821062627E+02  0.19970366066E+03  0.20737115368E+03  0.00000000000E+00 0. -1.
        -14    1    6    6    0    0 -0.46732606005E+02 -0.46218259593E+01  0.57694210507E+03  0.57885014498E+03  0.00000000000E+00 0.  1.
</event>
<event>
12    1  0.1061634E+000  0.3186085E+03  0.7818608E-02  0.1076479E+00
         21   -1    0    0  503  502  0.00000000000E+00  0.00000000000E+00  0.33274674026E+03  0.33274674026E+03  0.00000000000E+00 0.  1.
         21   -1    0    0  501  503 -0.00000000000E+00 -0.00000000000E+00 -0.31252974573E+03  0.31252974573E+03  0.00000000000E+00 0.  1.
          6    2    1    2  501    0 -0.23814169722E+03 -0.11879923198E+03  0.64887838150E+02  0.32514888790E+03  0.17517603228E+03 0.  0.
         24    2    3    3    0    0 -0.88044227783E+02 -0.11123930301E+03  0.61327266485E+01  0.16371575627E+03  0.81481715341E+02 0.  0.
         -6    2    1    2    0  502  0.23814169722E+03  0.11879923198E+03 -0.44670843619E+02  0.32012759809E+03  0.17222505427E+03 0.  0.
        -24    2    5    5    0    0  0.16365173574E+03  0.58560480549E+01 -0.26504512571E+02  0.18353688560E+03  0.78530982924E+02 0.  0.
          5    1    3    3  501    0 -0.15009746944E+03 -0.75599289657E+01  0.58755111502E+02  0.16143313162E+03  0.47000000000E+01 0. -1.
        -11    1    4    4    0    0  0.15874709176E+02 -0.15043270039E+02  0.29832733851E+01  0.22072749828E+02  0.00000000000E+00 0.  1.
         12    1    4    4    0    0 -0.10391893696E+03 -0.96196032974E+02  0.31494532634E+01  0.14164300644E+03  0.00000000000E+00 0. -1.
         -5    1    5    5    0  502  0.74489961485E+02  0.11294318392E+03 -0.18166331049E+02  0.13659071250E+03  0.47000000000E+01 0.  1.
         11    1    6    6    0    0  0.11232507661E+02 -0.92203141845E+01  0.18848488853E+02  0.23800188109E+02  0.00000000000E+00 0. -1.
        -12    1    6    6    0    0  0.15241922808E+03  0.15076362239E+02 -0.45353001423E+02  0.15973669749E+03  0.00000000000E+00 0.  1.
</event>
<event>
12    1  0.1061634E+000  0.2788296E+03  0.7818608E-02  0.1096711E+00
         21   -1    0    0  501  502  0.00000000000E+00  0.00000000000E+00  0.33001441975E+03  0.33001441975E+03  0.00000000000E+00 0.  1.
         21   -1    0    0  502  503 -0.00000000000E+00 -0.00000000000E+00 -0.27213119675E+03  0.27213119675E+03  0.00000000000E+00 0.  1.
         -6    2    1    2    0  503  0.10330161613E+03  0.18946749949E+03  0.14261193838E+03  0.31072684705E+03  0.17217389829E+03 0.  0.
        -24    2    3    3    0    0 -0.64468101942E+01  0.12168037277E+03  0.63682672183E+02  0.15942671258E+03  0.80707617156E+02 0.  0.
          6    2    1    2  501    0 -0.10330161613E+03 -0.18946749949E+03 -0.84728715386E+02  0.29141876944E+03  0.17656949542E+03 0.  0.
         24    2    5    5    0    0 -0.92318029892E+02 -0.13012520635E+03 -0.12430128422E+03  0.21909847405E+03  0.84250484264E+02 0.  0.
          5    1    5    5  501    0 -0.10983586237E+02 -0.59342293140E+02  0.39572568839E+02  0.72320295396E+02  0.47000000000E+01 0. -1.
        -13    1    6    6    0    0 -0.59584555813E+02 -0.26458516310E+02 -0.76021408029E+02  0.10014802472E+03  0.00000000000E+00 0.  1.
         14    1    6    6    0    0 -0.32733474078E+02 -0.10366669004E+03 -0.48279876196E+02  0.11895044933E+03  0.00000000000E+00 0. -1.
         -5    1    3    3    0  503  0.10974842632E+03  0.67787126718E+02  0.78929266200E+02  0.15130013447E+03  0.47000000000E+01 0.  1.
         11    1    4    4    0    0  0.53424010658E+01  0.14417723415E+02 -0.18304167373E+02  0.23905115369E+02  0.00000000000E+00 0. -1.
        -12    1    4    4    0    0 -0.11789211260E+02  0.10726264936E+03  0.81986839556E+02  0.13552159721E+03  0.00000000000E+00 0.  1.
</event>
<event>
12    1  0.1061634E+000  0.2743554E+03  0.7818608E-02  0.1098872E+00
         21   -1    0    0  503  502  0.00000000000E+00  0.00000000000E+00  0.20427672091E+03  0.20427672091E+03  0.00000000000E+00 0.  1.
         21   -1    0    0  501  503 -0.00000000000E+00 -0.00000000000E+00 -0.46359785018E+03  0.46359785018E+03  0.00000000000E+00 0. -1.
          6    2    1    2  501    0 -0.21259925880E+03  0.22053833257E+02  0.21975035760E+02  0.27523401778E+03  0.17200594740E+03 0.  0.
         24    2    3    3    0    0 -0.20387431282E+03 -0.23768509167E+02  0.79704131553E+00  0.22379075586E+03  0.89173929376E+02 0.  0.
         -6    2    1    2    0  502  0.21259925880E+03 -0.22053833257E+02 -0.28129616504E+03  0.39264055331E+03  0.17133083563E+03 0.  0.
        -24    2    5    5    0    0  0.45831857642E+02  0.23049597514E+02 -0.14251078060E+03  0.17098956981E+03  0.79349021884E+02 0.  0.
          5    1    3    3  501    0 -0.87249459847E+01  0.45822342425E+02  0.21177994444E+02  0.51443261914E+02  0.47000000000E+01 0. -1.
        -13    1    4    4    0    0 -0.17271081108E+03  0.11386651993E+02  0.17413441290E+02  0.17395950117E+03  0.00000000000E+00 0.  1.
         14    1    4    4    0    0 -0.31163501733E+02 -0.35155161160E+02 -0.16616399975E+02  0.49831254696E+02  0.00000000000E+00 0. -1.
         -5    1    5    5    0  502  0.16676740116E+03 -0.45103430772E+02 -0.13878538443E+03  0.22165098351E+03  0.47000000000E+01 0.  1.
         11    1    6    6    0    0  0.25038273807E+02  0.26709639172E+02 -0.14516478745E+03  0.14971017165E+03  0.00000000000E+00 0. -1.
        -12    1    6    6    0    0  0.20793583835E+02 -0.36600416577E+01  0.26540068452E+01  0.21279398159E+02  0.00000000000E+00 0.  1.
</event>
<event>
12    1  0.1061634E+000  0.2631792E+03  0.7818608E-02  0.1105342E+00
         21   -1    0    0  503  502  0.00000000000E+00  0.00000000000E+00  0.14053030521E+03  0.14053030521E+03  0.00000000000E+00 0.  1.
         21   -1    0    0  501  503 -0.00000000000E+00 -0.00000000000E+00 -0.56443106454E+03  0.56443106454E+03  0.00000000000E+00 0.  1.
          6    2    1    2  501    0  0.19748947060E+03 -0.17109508195E+02 -0.85626115517E+02  0.27675826885E+03  0.17311407064E+03 0.  0.
         24    2    3    3    0    0  0.95079227661E+02  0.80149656750E+01  0.21600792840E+02  0.12629632376E+03  0.79874075497E+02 0.  0.
         -6    2    1    2    0  502 -0.19748947060E+03  0.17109508195E+02 -0.33827464381E+03  0.42820310090E+03  0.17214335512E+03 0.  0.
        -24    2    5    5    0    0 -0.96121625475E+02 -0.85282643647E+01 -0.28290528786E+03  0.30979452442E+03  0.81395007741E+02 0.  0.
          5    1    3    3  501    0  0.10241024293E+03 -0.25124473870E+02 -0.10722690836E+03  0.15046194509E+03  0.47000000000E+01 0. -1.
        -11    1    4    4    0    0  0.22709360716E+02 -0.29223729740E+02 -0.11016841298E+02  0.38614922455E+02  0.00000000000E+00 0.  1.
         12    1    4    4    0    0  0.72369866946E+02  0.37238695415E+02  0.32617634138E+02  0.87681401304E+02  0.00000000000E+00 0. -1.
         -5    1    5    5    0  502 -0.10136784512E+03  0.25637772560E+02 -0.55369355952E+02  0.11840857648E+03  0.47000000000E+01 0.  1.
         13    1    6    6    0    0 -0.62155850348E+02  0.55452872937E+01 -0.70162691655E+02  0.93898366567E+02  0.00000000000E+00 0. -1.
        -14    1    6    6    0    0 -0.33965775127E+02 -0.14073551658E+02 -0.21274259620E+03  0.21589615785E+03  0.00000000000E+00 0.  1.
</event>
<event>
12    1  0.1061634E+000  0.1808107E+03  0.7818608E-02  0.1168032E+00
         21   -1    0    0  503  502  0.00000000000E+00  0.00000000000E+00  0.20473002253E+03  0.20473002253E+03  0.00000000000E+00 0.  1.
         21   -1    0    0  501  503 -0.00000000000E+00 -0.00000000000E+00 -0.18567639907E+03  0.18567639907E+03  0.00000000000E+00 0.  1.
          6    2    1    2  501    0 -0.16258517953E+02 -0.57718285774E+02  0.87414719599E+02  0.19710421605E+03  0.16617159463E+03 0.  0.
         24    2    3    3    0    0 -0.28211772649E+02 -0.88753366739E+02  0.22523251425E+02  0.12403541840E+03  0.78768165775E+02 0.  0.
         -6    2    1    2    0  502  0.16258517953E+02  0.57718285774E+02 -0.68361096131E+02  0.19330220555E+03  0.17057773385E+03 0.  0.
        -24    2    5    5    0    0 -0.29336442045E+02  0.71438027806E+02  0.16986148272E+01  0.10846362471E+03  0.76141013551E+02 0.  0.
          5    1    3    3  501    0  0.11953254696E+02  0.31035080965E+02  0.64891468173E+02  0.73068797650E+02  0.47000000000E+01 0. -1.
        -13    1    4    4    0    0  0.14834433250E+02 -0.31328593566E+02 -0.20586394994E+02  0.40315516163E+02  0.00000000000E+00 0.  1.
         14    1    4    4    0    0 -0.43046205899E+02 -0.57424773173E+02  0.43109646419E+02  0.83719902238E+02  0.00000000000E+00 0. -1.
         -5    1    5    5    0  502  0.45594959998E+02 -0.13719742032E+02 -0.70059710958E+02  0.84838580836E+02  0.47000000000E+01 0.  1.
         11    1    6    6    0    0 -0.16673777730E+01  0.48591139831E+02 -0.32830245651E+02  0.58666038287E+02  0.00000000000E+00 0. -1.
        -12    1    6    6    0    0 -0.27669064272E+02  0.22846887976E+02  0.34528860479E+02  0.49797586425E+02  0.00000000000E+00 0.  1.
</event>
<event>
12    1  0.1061634E+000  0.2136589E+03  0.7818608E-02  0.1138818E+00
         21   -1    0    0  503  502  0.00000000000E+00  0.00000000000E+00  0.15082995751E+03  0.15082995751E+03  0.00000000000E+00 0.  1.
         21   -1    0    0  501  503 -0.00000000000E+00 -0.00000000000E+00 -0.44872248143E+03  0.44872248143E+03  0.00000000000E+00 0.  1.
          6    2    1    2  501    0  0.40518448018E+02  0.11936438729E+03  0.22725155880E+02  0.21426578660E+03  0.17176668191E+03 0.  0.
         24    2    3    3    0    0  0.11777018718E+02  0.14147507750E+03  0.50604117116E+02  0.16828449845E+03  0.74866548111E+02 0.  0.
         -6    2    1    2    0  502 -0.40518448018E+02 -0.11936438729E+03 -0.32061767980E+03  0.38528665234E+03  0.17251233663E+03 0.  0.
        -24    2    5    5    0    0 -0.40652979424E+02 -0.67399281671E+02 -0.78270870830E+02  0.13738655932E+03  0.80953131853E+02 0.  0.
          5    1    3    3  501    0  0.28741429300E+02 -0.22110690216E+02 -0.27878961236E+02  0.45981288146E+02  0.47000000000E+01 0. -1.
        -13    1    4    4    0    0 -0.12052822963E+01  0.24450028659E+01 -0.14118284586E+02  0.14379036967E+02  0.00000000000E+00 0.  1.
         14    1    4    4    0    0  0.12982301014E+02  0.13903007464E+03  0.64722401702E+02  0.15390546149E+03  0.00000000000E+00 0. -1.
         -5    1    5    5    0  502  0.13453140592E+00 -0.51965105616E+02 -0.24234680897E+03  0.24790009301E+03  0.47000000000E+01 0.  1.
         13    1    6    6    0    0  0.52067075704E+01  0.39849743596E+01 -0.46229536968E+02  0.46692182564E+02  0.00000000000E+00 0. -1.
        -14    1    6    6    0    0 -0.45859686994E+02 -0.71384256031E+02 -0.32041333862E+02  0.90694376760E+02  0.00000000000E+00 0.  1.
</event>
<event>
12    1  0.1061634E+000  0.1981956E+03  0.7818608E-02  0.1151638E+00
         21   -1    0    0  503  502  0.00000000000E+00  0.00000000000E+00  0.37979354535E+03  0.37979354535E+03  0.00000000000E+00 0.  1.
         21   -1    0    0  501  503 -0.00000000000E+00 -0.00000000000E+00 -0.10361271016E+03  0.10361271016E+03  0.00000000000E+00 0.  1.
          6    2    1    2  501    0 -0.70193487069E+02  0.67166718166E+02  0.11404702061E+03  0.22866616226E+03  0.17275125816E+03 0.  0.
         24    2    3    3    0    0 -0.12023116691E+02 -0.27163143645E+02  0.72918314008E+02  0.11036326573E+03  0.77334198116E+02 0.  0.
         -6    2    1    2    0  502  0.70193487069E+02 -0.67166718166E+02  0.16213381458E+03  0.25474009326E+03  0.17078245702E+03 0.  0.
        -24    2    5    5    0    0  0.16076539702E+02  0.25967361253E+02  0.60893598873E+02  0.10684055973E+03  0.82305017098E+02 0.  0.
          5    1    3    3  501    0 -0.58170370378E+02  0.94329861811E+02  0.41128706598E+02  0.11830289652E+03  0.47000000000E+01 0. -1.
        -13    1    4    4    0    0 -0.50928197804E+01 -0.24735455657E+02 -0.99694473464E+01  0.27150864816E+02  0.00000000000E+00 0.  1.
         14    1    4    4    0    0 -0.69302969107E+01 -0.24276879881E+01  0.82887761355E+02  0.83212400918E+02  0.00000000000E+00 0. -1.
         -5    1    5    5    0  502  0.54116947368E+02 -0.93134079419E+02  0.10124021571E+03  0.14789953353E+03  0.47000000000E+01 0.  1.
         11    1    6    6    0    0 -0.11825258765E+02  0.26365077969E+02 -0.10060236079E+02  0.30596771580E+02  0.00000000000E+00 0. -1.
        -12    1    6    6    0    0  0.27901798467E+02 -0.39771671556E+00  0.70953834953E+02  0.76243788145E+02  0.00000000000E+00 0.  1.
</event>
<event>
12    1  0.1061634E+000  0.3613084E+03  0.7818608E-02  0.1058085E+00
         21   -1    0    0  501  502  0.00000000000E+00  0.00000000000E+00  0.10377836246E+04  0.10377836246E+04  0.00000000000E+00 0. -1.
         21   -1    0    0  502  503 -0.00000000000E+00 -0.00000000000E+00 -0.13566697067E+03  0.13566697067E+03  0.00000000000E+00 0. -1.
         -6    2    1    2    0  503  0.57559069854E+02  0.31186701263E+03  0.60996518087E+03  0.70894376030E+03  0.17311745524E+03 0.  0.
        -24    2    3    3    0    0 -0.31421616163E+02  0.20355888125E+03  0.38271002194E+03  0.44189468042E+03  0.79877478620E+02 0.  0.
          6    2    1    2  501    0 -0.57559069854E+02 -0.31186701263E+03  0.29215147304E+03  0.46450683494E+03  0.17274268848E+03 0.  0.
         24    2    5    5    0    0  0.15320634643E+02 -0.13352027134E+03  0.19065860011E+03  0.24669520828E+03  0.80283493236E+02 0.  0.
          5    1    5    5  501    0 -0.72879704497E+02 -0.17834674129E+03  0.10149287293E+03  0.21781162667E+03  0.47000000000E+01 0. -1.
        -13    1    6    6    0    0 -0.32111145604E+02 -0.37355042414E+02  0.63307721984E+02  0.80214665296E+02  0.00000000000E+00 0.  1.
         14    1    6    6    0    0  0.47431780247E+02 -0.96165228925E+02  0.12735087813E+03  0.16648054298E+03  0.00000000000E+00 0. -1.
         -5    1    3    3    0  503  0.88980686017E+02  0.10830813138E+03  0.22725515893E+03  0.26704907988E+03  0.47000000000E+01 0.  1.
         13    1    4    4    0    0 -0.38148102798E+02  0.79777505732E+02  0.22175040116E+03  0.23873200159E+03  0.00000000000E+00 0. -1.
        -14    1    4    4    0    0  0.67264866344E+01  0.12378137552E+03  0.16095962078E+03  0.20316267883E+03  0.00000000000E+00 0.  1.
</event>
<event>
12    1  0.1061634E+000  0.1769102E+03  0.7818608E-02  0.1171160E+00
         21   -1    0    0  503  502  0.00000000000E+00  0.00000000000E+00  0.82354783578E+02  0.82354783578E+02  0.00000000000E+00 0. -1.
         21   -1    0    0  501  503 -0.00000000000E+00 -0.00000000000E+00 -0.39062413226E+03  0.39062413226E+03  0.00000000000E+00 0. -1.
          6    2    1    2  501    0 -0.39975582310E+02  0.70961659562E+01 -0.19748043252E+03  0.26424128241E+03  0.17081139116E+03 0.  0.
         24    2    3    3    0    0 -0.74872195408E+02 -0.39731790034E+02 -0.13771039635E+03  0.18054433927E+03  0.80297225320E+02 0.  0.
         -6    2    1    2    0  502  0.39975582310E+02 -0.70961659562E+01 -0.11078891616E+03  0.20873763342E+03  0.17218830655E+03 0.  0.
        -24    2    5    5    0    0  0.80992364581E+01 -0.21991543187E+02 -0.14113479186E+03  0.16203714242E+03  0.76077463457E+02 0.  0.
          5    1    3    3  501    0  0.34896613098E+02  0.46827955991E+02 -0.59770036176E+02  0.83696943149E+02  0.47000000000E+01 0. -1.
        -13    1    4    4    0    0 -0.74668818322E+02  0.28878943035E+00 -0.10507263632E+03  0.12890219056E+03  0.00000000000E+00 0.  1.
         14    1    4    4    0    0 -0.20337708650E+00 -0.40020579465E+02 -0.32637760027E+02  0.51642148701E+02  0.00000000000E+00 0. -1.
         -5    1    5    5    0  502  0.31876345852E+02  0.14895377231E+02  0.30345875705E+02  0.46700491004E+02  0.47000000000E+01 0.  1.
         11    1    6    6    0    0  0.32557067796E+02  0.98165871130E+01 -0.94959483423E+02  0.10086442157E+03  0.00000000000E+00 0. -1.
        -12    1    6    6    0    0 -0.24457831337E+02 -0.31808130300E+02 -0.46175308438E+02  0.61172720851E+02  0.00000000000E+00 0.  1.
</event>
<event>
12    1  0.1061634E+000  0.1951817E+03  0.7818608E-02  0.1153897E+00
         21   -1    0    0  503  502  0.00000000000E+00  0.00000000000E+00  0.34982996942E+03  0.34982996942E+03  0.00000000000E+00 0. -1.
         21   -1    0    0  501  503 -0.00000000000E+00 -0.00000000000E+00 -0.11641733754E+03  0.11641733754E+03  0.00000000000E+00 0. -1.
          6    2    1    2  501    0  0.59477408850E+02 -0.69299707466E+02  0.57216336324E+02  0.20339519354E+03  0.17249893911E+03 0.  0.
         24    2    3    3    0    0 -0.35576440099E+01 -0.76831234176E+02 -0.99301573802E+01  0.11087015152E+03  0.79233118687E+02 0.  0.
         -6    2    1    2    0  502 -0.59477408850E+02  0.69299707466E+02  0.17619629555E+03  0.26285211341E+03  0.17235453966E+03 0.  0.
        -24    2    5    5    0    0 -0.10130987403E+03  0.53761395891E+02  0.16389744823E+03  0.21632528335E+03  0.82342433890E+02 0.  0.
          5    1    3    3  501    0  0.63035052860E+02  0.75315267103E+01  0.67146493704E+02  0.92525042018E+02  0.47000000000E+01 0. -1.
        -13    1    4    4    0    0 -0.40875665809E+02 -0.31447754397E+02 -0.69395540732E+01  0.52037858552E+02  0.00000000000E+00 0.  1.
         14    1    4    4    0    0  0.37318021800E+02 -0.45383479780E+02 -0.29906033071E+01  0.58832292970E+02  0.00000000000E+00 0. -1.
         -5    1    5    5    0  502  0.41832465180E+02  0.15538311575E+02  0.12298847327E+02  0.46526830057E+02  0.47000000000E+01 0.  1.
         13    1    6    6    0    0 -0.39342125646E+02  0.37526881834E+02  0.13598100078E+03  0.14644760935E+03  0.00000000000E+00 0. -1.
        -14    1    6    6    0    0 -0.61967748384E+02  0.16234514057E+02  0.27916447446E+02  0.69877674006E+02  0.00000000000E+00 0.  1.
</event>
<event>
12    1  0.1061634E+000  0.2315809E+03  0.7818608E-02  0.1125572E+00
         21   -1    0    0  503  502  0.00000000000E+00  0.00000000000E+00  0.41909090320E+03  0.41909090320E+03  0.00000000000E+00 0.  1.
         21   -1    0    0  501  503 -0.00000000000E+00 -0.00000000000E+00 -0.14475432844E+03  0.14475432844E+03  0.00000000000E+00 0.  1.
          6    2    1    2  501    0  0.36114712460E+02 -0.15101916481E+03  0.23359933901E+03  0.32893519464E+03  0.17180992546E+03 0.  0.
         24    2    3    3    0    0  0.59277843069E+02 -0.14094889792E+03  0.24578017271E+03  0.30050275534E+03  0.80706617860E+02 0.  0.
         -6    2    1    2    0  502 -0.36114712460E+02  0.15101916481E+03  0.40737235740E+02  0.23491003700E+03  0.17149968663E+03 0.  0.
        -24    2    5    5    0    0 -0.85297510679E+02  0.13608920426E+03  0.20754534208E+02  0.17956340456E+03  0.77564996747E+02 0.  0.
          5    1    3    3  501    0 -0.23163130608E+02 -0.10070266886E+02 -0.12180833696E+02  0.28432439295E+02  0.47000000000E+01 0. -1.
        -13    1    4    4    0    0  0.10346905667E+02  0.35329994232E+01  0.55795446234E+02  0.56856594712E+02  0.00000000000E+00 0.  1.
         14    1    4    4    0    0  0.48930937402E+02 -0.14448189734E+03  0.18998472648E+03  0.24364616063E+03  0.00000000000E+00 0. -1.
         -5    1    5    5    0  502  0.49182798218E+02  0.14929960543E+02  0.19982701532E+02  0.55346632444E+02  0.47000000000E+01 0.  1.
         13    1    6    6    0    0 -0.49428640514E+02  0.78456393740E+02 -0.26983924954E+02  0.96574988623E+02  0.00000000000E+00 0. -1.
        -14    1    6    6    0    0 -0.35868870165E+02  0.57632810525E+02  0.47738459162E+02  0.82988415933E+02  0.00000000000E+00 0.  1.
</event>
<event>
12    1  0.1061634E+000  0.2191340E+03  0.7818608E-02  0.1135108E+00
         21   -1    0    0  503  502  0.00000000000E+00  0.00000000000E+00  0.10808440965E+03  0.10808440965E+03  0.00000000000E+00 0. -1.
         21   -1    0    0  501  503 -0.00000000000E+00 -0.00000000000E+00 -0.51038961652E+03  0.51038961652E+03  0.00000000000E+00 0. -1.
          6    2    1    2  501    0 -0.14648649089E+02  0.13379801381E+03 -0.83563000312E+02  0.23167137138E+03  0.16903359984E+03 0.  0.
         24    2    3    3    0    0 -0.32677510936E+02  0.13207233841E+03 -0.11631955416E+03  0.19394737855E+03  0.74662069849E+02 0.  0.
         -6    2    1    2    0  502  0.14648649089E+02 -0.13379801381E+03 -0.31874220656E+03  0.38680265480E+03  0.17292544086E+03 0.  0.
        -24    2    5    5    0    0  0.36500585588E+02 -0.42095745452E+01 -0.12014945582E+03  0.14861818560E+03  0.79381736508E+02 0.  0.
          5    1    3    3  501    0  0.18028861847E+02  0.17256754031E+01  0.32756553843E+02  0.37723992826E+02  0.47000000000E+01 0. -1.
        -11    1    4    4    0    0 -0.53522485754E+02  0.75635460814E+02 -0.86672414442E+02  0.12687587178E+03  0.00000000000E+00 0.  1.
         12    1    4    4    0    0  0.20844974818E+02  0.56436877594E+02 -0.29647139713E+02  0.67071506774E+02  0.00000000000E+00 0. -1.
         -5    1    5    5    0  502 -0.21851936499E+02 -0.12958843927E+03 -0.19859275074E+03  0.23818446920E+03  0.47000000000E+01 0.  1.
         13    1    6    6    0    0  0.27063337550E+02  0.27489273491E+02 -0.20627508768E+02  0.43744468386E+02  0.00000000000E+00 0. -1.
        -14    1    6    6    0    0  0.94372480377E+01 -0.31698848036E+02 -0.99521947049E+02  0.10487371721E+03  0.00000000000E+00 0.  1.
</event>
<event>
12    1  0.1061634E+000  0.1835450E+03  0.7818608E-02  0.1164705E+00
         21   -1    0    0  501  502  0.00000000000E+00  0.00000000000E+00  0.26508295394E+03  0.26508295394E+03  0.00000000000E+00 0. -1.
         21   -1    0    0  502  503 -0.00000000000E+00 -0.00000000000E+00 -0.19355109337E+03  0.19355109337E+03  0.00000000000E+00 0. -1.
         -6    2    1    2    0  503  0.63899958304E+02  0.75109552995E+01  0.17091825906E+03  0.24990835364E+03  0.17059166105E+03 0.  0.
        -24    2    3    3    0    0  0.10764199902E+03  0.29394933920E+02  0.10239990852E+03  0.16559270263E+03  0.66965213394E+02 0.  0.
          6    2    1    2  501    0 -0.63899958304E+02 -0.75109552995E+01 -0.99386398492E+02  0.20872569367E+03  0.17189863254E+03 0.  0.
         24    2    5    5    0    0 -0.92405092335E+02 -0.44016406466E+02 -0.97325467354E+02  0.16212603628E+03  0.79601883883E+02 0.  0.
          5    1    5    5  501    0  0.28505134031E+02  0.36505451167E+02 -0.20609311379E+01  0.46599657383E+02  0.47000000000E+01 0. -1.
        -11    1    6    6    0    0 -0.55374118233E+02 -0.13971948228E+02 -0.99132063115E+02  0.11440574393E+03  0.00000000000E+00 0.  1.
         12    1    6    6    0    0 -0.37030974102E+02 -0.30044458239E+02  0.18065957613E+01  0.47720292350E+02  0.00000000000E+00 0. -1.
         -5    1    3    3    0  503 -0.43742040715E+02 -0.21883978620E+02  0.68518350537E+02  0.84315651017E+02  0.47000000000E+01 0.  1.
         13    1    4    4    0    0  0.28783940547E+02  0.25795263393E+02  0.31525509390E+01  0.38779497474E+02  0.00000000000E+00 0. -1.
        -14    1    4    4    0    0  0.78858058471E+02  0.35996705271E+01  0.99247357582E+02  0.12681320515E+03  0.00000000000E+00 0.  1.
</event>
<event>
12    1  0.1061634E+000  0.1826070E+03  0.7818608E-02  0.1165355E+00
         21   -1    0    0  501  502  0.00000000000E+00  0.00000000000E+00  0.20804473259E+03  0.20804473259E+03  0.00000000000E+00 0.  1.
         21   -1    0    0  502  503 -0.00000000000E+00 -0.00000000000E+00 -0.18816938721E+03  0.18816938721E+03  0.00000000000E+00 0.  1.
         -6    2    1    2    0  503 -0.49934119210E+02 -0.30081611889E+02  0.86470366175E+02  0.20204559879E+03  0.17305195789E+03 0.  0.
        -24    2    3    3    0    0 -0.40891059854E+02 -0.86694422688E+02  0.60659334662E+02  0.13899731081E+03  0.80328673774E+02 0.  0.
          6    2    1    2  501    0  0.49934119210E+02  0.30081611889E+02 -0.66595020794E+02  0.19416852100E+03  0.17282418268E+03 0.  0.
         24    2    5    5    0    0  0.16165849006E+02  0.17302290748E+02 -0.11064488236E+03  0.13701882787E+03  0.77273315308E+02 0.  0.
          5    1    5    5  501    0  0.33768270203E+02  0.12779321141E+02  0.44049861567E+02  0.57149693135E+02  0.47000000000E+01 0. -1.
        -11    1    6    6    0    0  0.26010644726E+02 -0.22218027802E+02 -0.76762281390E+02  0.84039527858E+02  0.00000000000E+00 0.  1.
         12    1    6    6    0    0 -0.98447957199E+01  0.39520318550E+02 -0.33882600971E+02  0.52979300011E+02  0.00000000000E+00 0. -1.
         -5    1    3    3    0  503 -0.90430593552E+01  0.56612810799E+02  0.25811031514E+02  0.63048287977E+02  0.47000000000E+01 0.  1.
         13    1    4    4    0    0  0.15146720962E+02 -0.44560006867E+02  0.12177574070E+01  0.47079722822E+02  0.00000000000E+00 0. -1.
        -14    1    4    4    0    0 -0.56037780816E+02 -0.42134415821E+02  0.59441577255E+02  0.91917587990E+02  0.00000000000E+00 0.  1.
</event>
<event>
12    1  0.1061634E+000  0.2559403E+03  0.7818608E-02  0.1110174E+00
         21   -1    0    0  501  502  0.00000000000E+00  0.00000000000E+00  0.61926797418E+03  0.61926797418E+03  0.00000000000E+00 0. -1.
         21   -1    0    0  502  503 -0.00000000000E+00 -0.00000000000E+00 -0.10869651987E+03  0.10869651987E+03  0.00000000000E+00 0. -1.
         -6    2    1    2    0  503  0.25615959245E+02 -0.18734706072E+03  0.32698064171E+03  0.41298664722E+03  0.16699261121E+03 0.  0.
        -24    2    3    3    0    0  0.77433451184E+02 -0.80736083397E+02  0.17060897583E+03  0.21670842416E+03  0.73081214709E+02 0.  0.
          6    2    1    2  501    0 -0.25615959245E+02  0.18734706072E+03  0.18359081260E+03  0.31497784683E+03  0.17248292377E+03 0.  0.
         24    2    5    5    0    0  0.32163628073E+02  0.58009026901E+02  0.12248839963E+03  0.16063277054E+03  0.79999579724E+02 0.  0.
          5    1    5    5  501    0 -0.57779587318E+02  0.12933803382E+03  0.61102412976E+02  0.15434507629E+03  0.47000000000E+01 0. -1.
        -11    1    6    6    0    0 -0.14810550540E+02  0.54758174254E+02  0.70568440177E+02  0.90541232617E+02  0.00000000000E+00 0.  1.
         12    1    6    6    0    0  0.46974178613E+02  0.32508526471E+01  0.51919959449E+02  0.70091537924E+02  0.00000000000E+00 0. -1.
         -5    1    3    3    0  503 -0.51817491939E+02 -0.10661097732E+03  0.15637166588E+03  0.19627822306E+03  0.47000000000E+01 0.  1.
         11    1    4    4    0    0 -0.17515495664E+01  0.55764898317E+01 -0.35391021439E+01  0.68330380295E+01  0.00000000000E+00 0. -1.
        -12    1    4    4    0    0  0.79185000750E+02 -0.86312573229E+02  0.17414807797E+03  0.20987538613E+03  0.00000000000E+00 0.  1.
</event>
<event>
12    1  0.1061634E+000  0.2038663E+03  0.7818608E-02  0.1149049E+00
         21   -1    0    0  503  502  0.00000000000E+00  0.00000000000E+00  0.32665921833E+03  0.32665921833E+03  0.00000000000E+00 0.  1.
         21   -1    0    0  501  503 -0.00000000000E+00 -0.00000000000E+00 -0.13699245444E+03  0.13699245444E+03  0.00000000000E+00 0.  1.
          6    2    1    2  501    0  0.10682649138E+03 -0.23866531312E+02  0.17917502549E+03  0.27141322813E+03  0.17198819747E+03 0.  0.
         24    2    3    3    0    0  0.72178525239E+02 -0.41407485672E+02  0.34464304986E+02  0.12150842745E+03  0.81560960321E+02 0.  0.
         -6    2    1    2    0  502 -0.10682649138E+03  0.23866531312E+02  0.10491738395E+02  0.19223844464E+03  0.15768332964E+03 0.  0.
        -24    2    5    5    0    0 -0.93454698705E+02  0.47561613900E+02 -0.33629561308E+02  0.14018999735E+03  0.86754827733E+02 0.  0.
          5    1    3    3  501    0  0.34647966142E+02  0.17540954360E+02  0.14471072050E+03  0.14990480068E+03  0.47000000000E+01 0. -1.
        -11    1    4    4    0    0  0.77658095205E+02 -0.47851476026E+02  0.49850718898E+02  0.10395016923E+03  0.00000000000E+00 0.  1.
         12    1    4    4    0    0 -0.54795699658E+01  0.64439903538E+01 -0.15386413912E+02  0.17558258221E+02  0.00000000000E+00 0. -1.
         -5    1    5    5    0  502 -0.13371792676E+02 -0.23695082588E+02  0.44121299703E+02  0.52048447294E+02  0.47000000000E+01 0.  1.
         13    1    6    6    0    0 -0.37229691916E+02  0.41774092783E+01 -0.54531894017E+02  0.66160624042E+02  0.00000000000E+00 0. -1.
        -14    1    6    6    0    0 -0.56225006789E+02  0.43384204622E+02  0.20902332709E+02  0.74029373304E+02  0.00000000000E+00 0.  1.
</event>
<event>
12    1  0.1061634E+000  0.1782122E+03  0.7818608E-02  0.1169637E+00
         21   -1    0    0  503  502  0.00000000000E+00  0.00000000000E+00  0.56944908232E+03  0.56944908232E+03  0.00000000000E+00 0.  1.
         21   -1    0    0  501  503 -0.00000000000E+00 -0.00000000000E+00 -0.55956303061E+02  0.55956303061E+02  0.00000000000E+00 0.  1.
          6    2    1    2  501    0 -0.88089785345E+01 -0.49688497778E+02  0.23405823593E+03  0.29418168422E+03  0.17091828635E+03 0.  0.
         24    2    3    3    0    0  0.51666834000E+02 -0.57958420482E+02  0.11524005173E+03  0.16051954889E+03  0.80359292014E+02 0.  0.
         -6    2    1    2    0  502  0.88089785345E+01  0.49688497778E+02  0.27943454333E+03  0.33122370116E+03  0.17052545644E+03 0.  0.
        -24    2    5    5    0    0  0.91886853245E+01 -0.22858536082E+02  0.65300607858E+02  0.10508514050E+03  0.78560631092E+02 0.  0.
          5    1    3    3  501    0 -0.60475812535E+02  0.82699227048E+01  0.11881818420E+03  0.13366213533E+03  0.47000000000E+01 0. -1.
        -13    1    4    4    0    0  0.12247296357E+02  0.57905679768E+01  0.73481220058E+02  0.74719586768E+02  0.00000000000E+00 0.  1.
         14    1    4    4    0    0  0.39419537643E+02 -0.63748988459E+02  0.41758831669E+02  0.85799962121E+02  0.00000000000E+00 0. -1.
         -5    1    5    5    0  502 -0.37970678997E+00  0.72547033860E+02  0.21413393547E+03  0.22613856066E+03  0.47000000000E+01 0.  1.
         11    1    6    6    0    0  0.25631855237E+02 -0.36243163915E+02  0.70447722208E+02  0.83267283477E+02  0.00000000000E+00 0. -1.
        -12    1    6    6    0    0 -0.16443169912E+02  0.13384627833E+02 -0.51471143494E+01  0.21817857024E+02  0.00000000000E+00 0.  1.
</event>
<event>
12    1  0.1061634E+000  0.2420596E+03  0.7818608E-02  0.1119696E+00
         21   -1    0    0  503  502  0.00000000000E+00  0.00000000000E+00  0.53333918725E+02  0.53333918725E+02  0.00000000000E+00 0. -1.
         21   -1    0    0  501  503 -0.00000000000E+00 -0.00000000000E+00 -0.10646518666E+04  0.10646518666E+04  0.00000000000E+00 0. -1.
          6    2    1    2  501    0 -0.99367692691E+02 -0.12330200251E+03 -0.50386901618E+03  0.55576052086E+03  0.17294059358E+03 0.  0.
         24    2    3    3    0    0 -0.11915092005E+03 -0.41557500599E+02 -0.34849942083E+03  0.37902529281E+03  0.79273946927E+02 0.  0.
         -6    2    1    2    0  502  0.99367692691E+02  0.12330200251E+03 -0.50744893169E+03  0.56222526446E+03  0.18307241067E+03 0.  0.
        -24    2    5    5    0    0 -0.23494059097E+01  0.29052798317E+02 -0.11232637568E+03  0.14344942358E+03  0.84326375784E+02 0.  0.
          5    1    3    3  501    0  0.19783227361E+02 -0.81744501911E+02 -0.15536959534E+03  0.17673522805E+03  0.47000000000E+01 0. -1.
        -11    1    4    4    0    0 -0.66332126166E+02 -0.35082107801E+02 -0.29168177477E+03  0.30117928710E+03  0.00000000000E+00 0.  1.
         12    1    4    4    0    0 -0.52818793885E+02 -0.64753927976E+01 -0.56817646067E+02  0.77846005704E+02  0.00000000000E+00 0. -1.
         -5    1    5    5    0  502  0.10171709860E+03  0.94249204193E+02 -0.39512255601E+03  0.41877584088E+03  0.47000000000E+01 0.  1.
         13    1    6    6    0    0  0.23416514780E+02  0.37625212563E+02 -0.10694930447E+03  0.11576762721E+03  0.00000000000E+00 0. -1.
        -14    1    6    6    0    0 -0.25765920690E+02 -0.85724142464E+01 -0.53770712137E+01  0.27681796363E+02  0.00000000000E+00 0.  1.
</event>
<event>
12    1  0.1061634E+000  0.1776690E+03  0.7818608E-02  0.1170366E+00
         21   -1    0    0  501  502  0.00000000000E+00  0.00000000000E+00  0.98412592121E+03  0.98412592121E+03  0.00000000000E+00 0. -1.
         21   -1    0    0  502  503 -0.00000000000E+00 -0.00000000000E+00 -0.32451360085E+02  0.32451360085E+02  0.00000000000E+00 0. -1.
         -6    2    1    2    0  503  0.11098545943E+02  0.37375845184E+02  0.40601201935E+03  0.44271852375E+03  0.17214470624E+03 0.  0.
        -24    2    3    3    0    0 -0.34747230853E+02 -0.30774057488E+02  0.23969950188E+03  0.25717017977E+03  0.80785131660E+02 0.  0.
          6    2    1    2  501    0 -0.11098545943E+02 -0.37375845184E+02  0.54566254177E+03  0.57385875755E+03  0.17333820292E+03 0.  0.
         24    2    5    5    0    0 -0.22745708674E+02  0.37294499459E+02  0.37576702315E+03  0.38785366617E+03  0.85564967849E+02 0.  0.
          5    1    5    5  501    0  0.11647162731E+02 -0.74670344642E+02  0.16989551862E+03  0.18600509137E+03  0.47000000000E+01 0. -1.
        -11    1    6    6    0    0  0.62320560565E+01 -0.13883162319E+02  0.12045809153E+02  0.19408303296E+02  0.00000000000E+00 0.  1.
         12    1    6    6    0    0 -0.28977764730E+02  0.51177661778E+02  0.36372121400E+03  0.36844536288E+03  0.00000000000E+00 0. -1.
         -5    1    3    3    0  503  0.45845776796E+02  0.68149902672E+02  0.16631251747E+03  0.18554834397E+03  0.47000000000E+01 0.  1.
         11    1    4    4    0    0  0.25689541771E+02 -0.11522803380E+02  0.97112376516E+02  0.10111152865E+03  0.00000000000E+00 0. -1.
        -12    1    4    4    0    0 -0.60436772624E+02 -0.19251254109E+02  0.14258712536E+03  0.15605865112E+03  0.00000000000E+00 0.  1.
</event>
<event>
12    1  0.1061634E+000  0.1944284E+03  0.7818608E-02  0.1154788E+00
         21   -1    0    0  503  502  0.00000000000E+00  0.00000000000E+00  0.13684074075E+04  0.13684074075E+04  0.00000000000E+00 0.  1.
         21   -1    0    0  501  503 -0.00000000000E+00 -0.00000000000E+00 -0.32196898513E+02  0.32196898513E+02  0.00000000000E+00 0.  1.
          6    2    1    2  501    0 -0.51590550099E+02  0.73568347709E+02  0.93856359590E+03  0.95849049382E+03  0.17241959443E+03 0.  0.
         24    2    3    3    0    0  0.38770662724E+02  0.63268803238E+02  0.60393685309E+03  0.61169318067E+03  0.62631613521E+02 0.  0.
         -6    2    1    2    0  502  0.51590550099E+02 -0.73568347709E+02  0.39764691307E+03  0.44211381218E+03  0.17107796118E+03 0.  0.
        -24    2    5    5    0    0 -0.30515289454E+02 -0.25674982726E+01  0.16207447671E+03  0.18269339610E+03  0.78555496544E+02 0.  0.
          5    1    3    3  501    0 -0.90361212823E+02  0.10299544471E+02  0.33462674282E+03  0.34679731315E+03  0.47000000000E+01 0. -1.
        -13    1    4    4    0    0 -0.69787762140E+01 -0.30940597065E+01  0.17998825740E+03  0.18015007445E+03  0.00000000000E+00 0.  1.
         14    1    4    4    0    0  0.45749438938E+02  0.66362862944E+02  0.42394859569E+03  0.43154310623E+03  0.00000000000E+00 0. -1.
         -5    1    5    5    0  502  0.82105839554E+02 -0.71000849436E+02  0.23557243636E+03  0.25942041608E+03  0.47000000000E+01 0.  1.
         11    1    6    6    0    0 -0.47225963304E+02 -0.26955162852E+02  0.96582334559E+02  0.11083780837E+03  0.00000000000E+00 0. -1.
        -12    1    6    6    0    0  0.16710673850E+02  0.24387664579E+02  0.65492142155E+02  0.71855587732E+02  0.00000000000E+00 0.  1.
</event>
<event>
12    1  0.1061634E+000  0.4290083E+03  0.7818608E-02  0.1034275E+00
         21   -1    0    0  503  502  0.00000000000E+00  0.00000000000E+00  0.10377347683E+04  0.10377347683E+04  0.00000000000E+00 0.  1.
         21   -1    0    0  501  503 -0.00000000000E+00 -0.00000000000E+00 -0.17844898669E+03  0.17844898669E+03  0.00000000000E+00 0.  1.
          6    2    1    2  501    0  0.15030555342E+03  0.36379792830E+03  0.48826665533E+03  0.64996343224E+03  0.17060903996E+03 0.  0.
         24    2    3    3    0    0  0.67380535689E+02  0.16869448197E+03  0.33246363883E+03  0.38683117787E+03  0.78155768784E+02 0.  0.
         -6    2    1    2    0  502 -0.15030555342E+03 -0.36379792830E+03  0.37101912627E+03  0.56622032273E+03  0.16736059807E+03 0.  0.
        -24    2    5    5    0    0 -0.16744436586E+03 -0.24399241369E+03  0.26959139082E+03  0.40824318596E+03  0.80081628870E+02 0.  0.
          5    1    3    3  501    0  0.82925017731E+02  0.19510344634E+03  0.15580301650E+03  0.26313225437E+03  0.47000000000E+01 0. -1.
        -13    1    4    4    0    0 -0.13102953432E+02  0.10009288178E+02  0.53245005430E+02  0.55739607477E+02  0.00000000000E+00 0.  1.
         14    1    4    4    0    0  0.80483489122E+02  0.15868519379E+03  0.27921863340E+03  0.33109157040E+03  0.00000000000E+00 0. -1.
         -5    1    5    5    0  502  0.17138812435E+02 -0.11980551461E+03  0.10142773546E+03  0.15797713677E+03  0.47000000000E+01 0.  1.
         13    1    6    6    0    0 -0.46654553409E+02 -0.22283545784E+02  0.27996388368E+02  0.58796271380E+02  0.00000000000E+00 0. -1.
        -14    1    6    6    0    0 -0.12078981245E+03 -0.22170886791E+03  0.24159500245E+03  0.34944691458E+03  0.00000000000E+00 0.  1.
</event>
<event>
12    1  0.1061634E+000  0.2553573E+03  0.7818608E-02  0.1110066E+00
         21   -1    0    0  503  502  0.00000000000E+00  0.00000000000E+00  0.16889668061E+03  0.16889668061E+03  0.00000000000E+00 0. -1.
         21   -1    0    0  501  503 -0.00000000000E+00 -0.00000000000E+00 -0.53087058936E+03  0.53087058936E+03  0.00000000000E+00 0. -1.
          6    2    1    2  501    0  0.17122545209E+03 -0.78572448362E+02  0.25322613827E+01  0.25471435915E+03  0.17140947269E+03 0.  0.
         24    2    3    3    0    0  0.13820446011E+03 -0.97208158788E+02  0.51139622763E+02  0.19288846495E+03  0.77722583354E+02 0.  0.
         -6    2    1    2    0  502 -0.17122545209E+03  0.78572448362E+02 -0.36450617013E+03  0.44505291082E+03  0.17238201845E+03 0.  0.
        -24    2    5    5    0    0 -0.15661268953E+02  0.25120837751E+01 -0.12064277107E+03  0.14592611240E+03  0.80549153675E+02 0.  0.
          5    1    3    3  501    0  0.33020991971E+02  0.18635710426E+02 -0.48607361380E+02  0.61825894204E+02  0.47000000000E+01 0. -1.
        -11    1    4    4    0    0  0.74878428914E+02 -0.90255354871E+02  0.54021515361E+02  0.12911673912E+03  0.00000000000E+00 0.  1.
         12    1    4    4    0    0  0.63326031200E+02 -0.69528039168E+01 -0.28818925980E+01  0.63771725826E+02  0.00000000000E+00 0. -1.
         -5    1    5    5    0  502 -0.15556418313E+03  0.76060364587E+02 -0.24386339905E+03  0.29912679842E+03  0.47000000000E+01 0.  1.
         13    1    6    6    0    0 -0.14041229988E+02  0.20543924858E+02 -0.98176404998E+00  0.24903269842E+02  0.00000000000E+00 0. -1.
        -14    1    6    6    0    0 -0.16200389650E+01 -0.18031841083E+02 -0.11966100702E+03  0.12102284256E+03  0.00000000000E+00 0.  1.
</event>
<event>
12    1  0.1061634E+000  0.1850602E+03  0.7818608E-02  0.1163613E+00
         21   -1    0    0  501  502  0.00000000000E+00  0.00000000000E+00  0.80899516786E+03  0.80899516786E+03  0.00000000000E+00 0.  1.
         21   -1    0    0  502  503 -0.00000000000E+00 -0.00000000000E+00 -0.42496732755E+02  0.42496732755E+02  0.00000000000E+00 0.  1.
         -6    2    1    2    0  503  0.61213293348E+01 -0.61292504550E+02  0.32345355876E+03  0.37135019841E+03  0.17171058033E+03 0.  0.
        -24    2    3    3    0    0  0.58340021729E+02 -0.63865020268E+02  0.15442609205E+03  0.19435928290E+03  0.80285826848E+02 0.  0.
          6    2    1    2  501    0 -0.61213293348E+01  0.61292504550E+02  0.44304487635E+03  0.48014170221E+03  0.17450802260E+03 0.  0.
         24    2    5    5    0    0 -0.21157493446E+02  0.68030029864E+02  0.13939622527E+03  0.17601003042E+03  0.80451840866E+02 0.  0.
          5    1    5    5  501    0  0.15036164111E+02 -0.67375253141E+01  0.30364865108E+03  0.30413167178E+03  0.47000000000E+01 0. -1.
        -11    1    6    6    0    0 -0.23197466460E+02  0.23227403541E+02  0.12449498035E+03  0.12875028100E+03  0.00000000000E+00 0.  1.
         12    1    6    6    0    0  0.20399730142E+01  0.44802626322E+02  0.14901244915E+02  0.47259749421E+02  0.00000000000E+00 0. -1.
         -5    1    3    3    0  503 -0.52218692395E+02  0.25725157183E+01  0.16902746671E+03  0.17699091551E+03  0.47000000000E+01 0.  1.
         13    1    4    4    0    0  0.18481251752E+02 -0.17241269108E+02 -0.29551521226E+01  0.25447022435E+02  0.00000000000E+00 0. -1.
        -14    1    4    4    0    0  0.39858769977E+02 -0.46623751160E+02  0.15738124417E+03  0.16891226046E+03  0.00000000000E+00 0.  1.
</event>
<event>
12    1  0.1061634E+000  0.1827525E+03  0.7818608E-02  0.1165797E+00
         21   -1    0    0  501  502  0.00000000000E+00  0.00000000000E+00  0.34043481836E+02  0.34043481836E+02  0.00000000000E+00 0. -1.
         21   -1    0    0  502  503 -0.00000000000E+00 -0.00000000000E+00 -0.11305142639E+04  0.11305142639E+04  0.00000000000E+00 0. -1.
         -6    2    1    2    0  503 -0.35531180752E+02  0.43365032731E+02 -0.33014988945E+03  0.37735584590E+03  0.17394106492E+03 0.  0.
        -24    2    3    3    0    0  0.25243360086E+01 -0.39492341535E+02 -0.16450336906E+03  0.18821455865E+03  0.82446008663E+02 0.  0.
          6    2    1    2  501    0  0.35531180752E+02 -0.43365032731E+02 -0.76632089258E+03  0.78720189980E+03  0.17116112225E+03 0.  0.
         24    2    5    5    0    0 -0.19338898857E+02 -0.40992218575E+02 -0.21727858459E+03  0.23539948784E+03  0.78412885158E+02 0.  0.
          5    1    5    5  501    0  0.54870079609E+02 -0.23728141563E+01 -0.54904230799E+03  0.55180241196E+03  0.47000000000E+01 0. -1.
        -13    1    6    6    0    0 -0.40237073256E+02 -0.16818444254E+02 -0.55960010205E+02  0.70946493032E+02  0.00000000000E+00 0.  1.
         14    1    6    6    0    0  0.20898174399E+02 -0.24173774321E+02 -0.16131857439E+03  0.16445299480E+03  0.00000000000E+00 0. -1.
         -5    1    3    3    0  503 -0.38055516760E+02  0.82857374266E+02 -0.16564652039E+03  0.18914128725E+03  0.47000000000E+01 0.  1.
         13    1    4    4    0    0  0.14547067253E+02  0.13777053196E+02 -0.10720458822E+03  0.10906075415E+03  0.00000000000E+00 0. -1.
        -14    1    4    4    0    0 -0.12022731244E+02 -0.53269394731E+02 -0.57298780843E+02  0.79153804505E+02  0.00000000000E+00 0.  1.
</event>
<event>
12    1  0.1376693E+000  0.2211404E+03  0.7818608E-02  0.1133081E+00
         21   -1    0    0  501  502  0.00000000000E+00  0.00000000000E+00  0.14359013848E+03  0.14359013848E+03  0.00000000000E+00 0. -1.
         21   -1    0    0  502  503 -0.00000000000E+00 -0.00000000000E+00 -0.23822851914E+04  0.23822851914E+04  0.00000000000E+00 0. -1.
         -6    2    1    2    0  503 -0.13470216772E+03  0.29894648972E+02  0.49854093139E+02  0.22669031577E+03  0.17281407534E+03 0.  0.
        -24    2    3    3    0    0 -0.28499894984E+02 -0.19668450661E+01  0.74859263514E+02  0.11292992687E+03  0.79581069083E+02 0.  0.
          6    2    1    2  501    0  0.13470216772E+03 -0.29894648972E+02 -0.22885491460E+04  0.22991850141E+04  0.17249977141E+03 0.  0.
         24    2    5    5    0    0  0.10265755392E+03  0.23661284996E+02 -0.19786024434E+04  0.19829823199E+04  0.79074788688E+02 0.  0.
          5    1    5    5  501    0  0.32044613801E+02 -0.53555933968E+02 -0.30994670265E+03  0.31620269420E+03  0.47000000000E+01 0. -1.
        -13    1    6    6    0    0  0.99385435045E+02 -0.15257373598E+01 -0.12533104779E+04  0.12572457781E+04  0.00000000000E+00 0.  1.
         14    1    6    6    0    0  0.32721188704E+01  0.25187022355E+02 -0.72529196546E+03  0.72573654175E+03  0.00000000000E+00 0. -1.
         -5    1    3    3    0  503 -0.10620227273E+03  0.31861494038E+02 -0.25005170375E+02  0.11376038889E+03  0.47000000000E+01 0.  1.
         13    1    4    4    0    0  0.63610736148E+01  0.17415908559E+02 -0.85927067049E+01  0.20435550812E+02  0.00000000000E+00 0. -1.
        -14    1    4    4    0    0 -0.34860968599E+02 -0.19382753625E+02  0.83451970219E+02  0.92494376062E+02  0.00000000000E+00 0.  1.
</event>
<event>
12    1  0.1061634E+000  0.1882960E+03  0.7818608E-02  0.1160469E+00
         21   -1    0    0  503  502  0.00000000000E+00  0.00000000000E+00  0.54149740495E+02  0.54149740495E+02  0.00000000000E+00 0.  1.
         21   -1    0    0  501  503 -0.00000000000E+00 -0.00000000000E+00 -0.65526102692E+03  0.65526102692E+03  0.00000000000E+00 0.  1.
          6    2    1    2  501    0  0.72271240964E+02 -0.76314677042E+01 -0.26427510428E+03  0.32449458042E+03  0.17370673681E+03 0.  0.
         24    2    3    3    0    0  0.10361061949E+03 -0.23132901726E+02 -0.25554596948E+03  0.28815260885E+03  0.80361009558E+02 0.  0.
         -6    2    1    2    0  502 -0.72271240964E+02  0.76314677042E+01 -0.33683618215E+03  0.38491618700E+03  0.17152400950E+03 0.  0.
        -24    2    5    5    0    0 -0.45879896736E+02 -0.62386972211E+02 -0.18584082635E+03  0.21633157188E+03  0.79154513647E+02 0.  0.
          5    1    3    3  501    0 -0.31339378529E+02  0.15501434022E+02 -0.87291348021E+01  0.36341971572E+02  0.47000000000E+01 0. -1.
        -13    1    4    4    0    0  0.65169410091E+02 -0.24542072291E+02 -0.70288482629E+02  0.98943600674E+02  0.00000000000E+00 0.  1.
         14    1    4    4    0    0  0.38441209402E+02  0.14091705645E+01 -0.18525748685E+03  0.18920900818E+03  0.00000000000E+00 0. -1.
         -5    1    5    5    0  502 -0.26391344229E+02  0.70018439915E+02 -0.15099535580E+03  0.16858461511E+03  0.47000000000E+01 0.  1.
         11    1    6    6    0    0  0.69047131219E+01 -0.55725722889E+02 -0.11238839533E+03  0.12563511714E+03  0.00000000000E+00 0. -1.
        -12    1    6    6    0    0 -0.52784609857E+02 -0.66612493215E+01 -0.73452431018E+02  0.90696454742E+02  0.00000000000E+00 0.  1.
</event>
<event>
12    1  0.1061634E+000  0.2093220E+03  0.7818608E-02  0.1142331E+00
         21   -1    0    0  501  502  0.00000000000E+00  0.00000000000E+00  0.22599085174E+03  0.22599085174E+03  0.00000000000E+00 0. -1.
         21   -1    0    0  502  503 -0.00000000000E+00 -0.00000000000E+00 -0.19448438955E+03  0.19448438955E+03  0.00000000000E+00 0. -1.
         -6    2    1    2    0  503 -0.10708995647E+03  0.48913451647E+02 -0.35921115901E+01  0.20935283194E+03  0.17307489837E+03 0.  0.
        -24    2    3    3    0    0 -0.13230394430E+03  0.62231151135E+02  0.25377163401E+02  0.16843321323E+03  0.79678711395E+02 0.  0.
          6    2    1    2  501    0  0.10708995647E+03 -0.48913451647E+02  0.35098573782E+02  0.21112240936E+03  0.17169734221E+03 0.  0.
         24    2    5    5    0    0  0.79988070035E+02  0.28261944411E+02 -0.13589378742E+02  0.11581679186E+03  0.77666139420E+02 0.  0.
          5    1    5    5  501    0  0.27101886439E+02 -0.77175396058E+02  0.48687952524E+02  0.95305617496E+02  0.47000000000E+01 0. -1.
        -13    1    6    6    0    0  0.58246088596E+02  0.11783885506E+02  0.28305165369E+02  0.65822862145E+02  0.00000000000E+00 0.  1.
         14    1    6    6    0    0  0.21741981439E+02  0.16478058905E+02 -0.41894544111E+02  0.49993929716E+02  0.00000000000E+00 0. -1.
         -5    1    3    3    0  503  0.25213987823E+02 -0.13317699488E+02 -0.28969274991E+02  0.40919618707E+02  0.47000000000E+01 0.  1.
         13    1    4    4    0    0 -0.67825449207E+02  0.39282250532E+02  0.53012148727E+02  0.94623858934E+02  0.00000000000E+00 0. -1.
        -14    1    4    4    0    0 -0.64478495091E+02  0.22948900603E+02 -0.27634985326E+02  0.73809354299E+02  0.00000000000E+00 0.  1.
</event>
<event>
12    1  0.1061634E+000  0.1884562E+03  0.7818608E-02  0.1159977E+00
         21   -1    0    0  501  502  0.00000000000E+00  0.00000000000E+00  0.12782078942E+03  0.12782078942E+03  0.00000000000E+00 0.  1.
         21   -1    0    0  502  503 -0.00000000000E+00 -0.00000000000E+00 -0.29143741720E+03  0.29143741720E+03  0.00000000000E+00 0.  1.
         -6    2    1    2    0  503  0.73817795481E+02  0.10483495708E+02 -0.35224755616E+02  0.19122267547E+03  0.17252929488E+03 0.  0.
        -24    2    3    3    0    0 -0.13960803463E+01  0.12439088359E+02  0.35776472145E+02  0.87664885790E+02  0.79047430584E+02 0.  0.
          6    2    1    2  501    0 -0.73817795481E+02 -0.10483495708E+02 -0.12839187217E+03  0.22803553115E+03  0.17308021266E+03 0.  0.
         24    2    5    5    0    0 -0.86772767091E+02  0.35679054018E+02 -0.43384316391E+02  0.13032582423E+03  0.79373254617E+02 0.  0.
          5    1    5    5  501    0  0.12954971610E+02 -0.46162549726E+02 -0.85007555777E+02  0.97709706917E+02  0.47000000000E+01 0. -1.
        -13    1    6    6    0    0 -0.37637416924E+01  0.35734504369E+02  0.14913152616E+01  0.35963100189E+02  0.00000000000E+00 0.  1.
         14    1    6    6    0    0 -0.83009025399E+02 -0.55450350355E-01 -0.44875631653E+02  0.94362724042E+02  0.00000000000E+00 0. -1.
         -5    1    3    3    0  503  0.75213875827E+02 -0.19555926513E+01 -0.71001227761E+02  0.10355778968E+03  0.47000000000E+01 0.  1.
         11    1    4    4    0    0  0.27034294630E+02 -0.17490521336E+02 -0.12340932228E+01  0.32222576074E+02  0.00000000000E+00 0. -1.
        -12    1    4    4    0    0 -0.28430374976E+02  0.29929609696E+02  0.37010565368E+02  0.55442309716E+02  0.00000000000E+00 0.  1.
</event>
<event>
12    1  0.1061634E+000  0.1873470E+03  0.7818608E-02  0.1161790E+00
         21   -1    0    0  503  502  0.00000000000E+00  0.00000000000E+00  0.57265096235E+02  0.57265096235E+02  0.00000000000E+00 0. -1.
         21   -1    0    0  501  503 -0.00000000000E+00 -0.00000000000E+00 -0.61660035253E+03  0.61660035253E+03  0.00000000000E+00 0. -1.
          6    2    1    2  501    0 -0.59340070189E+02 -0.14346581666E+02 -0.33764892389E+03  0.38614206287E+03  0.17712094335E+03 0.  0.
         24    2    3    3    0    0 -0.73965281347E+02 -0.63094252561E+02 -0.29138389816E+03  0.31720169135E+03  0.79123886009E+02 0.  0.
         -6    2    1    2    0  502  0.59340070189E+02  0.14346581666E+02 -0.22168633241E+03  0.28772338590E+03  0.17295331302E+03 0.  0.
        -24    2    5    5    0    0 -0.23382564678E+02  0.30503849547E+01 -0.17280534839E+03  0.19086225346E+03  0.77528460481E+02 0.  0.
          5    1    3    3  501    0  0.14625211159E+02  0.48747670895E+02 -0.46265025733E+02  0.68940371519E+02  0.47000000000E+01 0. -1.
        -11    1    4    4    0    0 -0.23952543874E+01 -0.40791147572E+01 -0.13707392253E+03  0.13715551997E+03  0.00000000000E+00 0.  1.
         12    1    4    4    0    0 -0.71570026960E+02 -0.59015137803E+02 -0.15430997563E+03  0.18004617137E+03  0.00000000000E+00 0. -1.
         -5    1    5    5    0  502  0.82722634867E+02  0.11296196711E+02 -0.48880984019E+02  0.96861132443E+02  0.47000000000E+01 0.  1.
         11    1    6    6    0    0 -0.51710113923E+01  0.39403466212E+02 -0.73515243989E+02  0.83569513622E+02  0.00000000000E+00 0. -1.
        -12    1    6    6    0    0 -0.18211553286E+02 -0.36353081257E+02 -0.99290104402E+02  0.10729273984E+03  0.00000000000E+00 0.  1.
</event>
<event>
12    1  0.1061634E+000  0.1931116E+03  0.7818608E-02  0.1155780E+00
         21   -1    0    0  503  502  0.00000000000E+00  0.00000000000E+00  0.26423823549E+03  0.26423823549E+03  0.00000000000E+00 0. -1.
         21   -1    0    0  501  503 -0.00000000000E+00 -0.00000000000E+00 -0.84026898096E+03  0.84026898096E+03  0.00000000000E+00 0. -1.
          6    2    1    2  501    0 -0.17207044600E+02 -0.84755107797E+02  0.21578950372E+03  0.28958104781E+03  0.17266314793E+03 0.  0.
         24    2    3    3    0    0  0.14363718269E+02 -0.11889775971E+03  0.14965128185E+03  0.20859470242E+03  0.82299757303E+02 0.  0.
         -6    2    1    2    0  502  0.17207044600E+02  0.84755107797E+02 -0.79182024918E+03  0.81492616864E+03  0.17217968128E+03 0.  0.
        -24    2    5    5    0    0  0.28854773292E+02  0.29219632578E+02 -0.18881774278E+03  0.20924145585E+03  0.80271177803E+02 0.  0.
          5    1    3    3  501    0 -0.31570762869E+02  0.34142651912E+02  0.66138221870E+02  0.80986345391E+02  0.47000000000E+01 0. -1.
        -11    1    4    4    0    0  0.12561995742E+02 -0.10015342108E+03  0.60941577436E+02  0.11790838542E+03  0.00000000000E+00 0.  1.
         12    1    4    4    0    0  0.18017225272E+01 -0.18744338629E+02  0.88709704411E+02  0.90686317002E+02  0.00000000000E+00 0. -1.
         -5    1    5    5    0  502 -0.11647728691E+02  0.55535475220E+02 -0.60300250640E+03  0.60568471279E+03  0.47000000000E+01 0.  1.
         13    1    6    6    0    0  0.20502922019E+02 -0.19319959765E+02 -0.12758613781E+03  0.13065930207E+03  0.00000000000E+00 0. -1.
        -14    1    6    6    0    0  0.83518512725E+01  0.48539592343E+02 -0.61231604973E+02  0.78582153776E+02  0.00000000000E+00 0.  1.
</event>
<event>
12    1  0.1061634E+000  0.2317679E+03  0.7818608E-02  0.1125466E+00
         21   -1    0    0  501  502  0.00000000000E+00  0.00000000000E+00  0.27647176566E+03  0.27647176566E+03  0.00000000000E+00 0. -1.
         21   -1    0    0  502  503 -0.00000000000E+00 -0.00000000000E+00 -0.23446389117E+03  0.23446389117E+03  0.00000000000E+00 0. -1.
         -6    2    1    2    0  503 -0.26209857933E+02 -0.15164751990E+03  0.12716928305E+03  0.26436409437E+03  0.17329864655E+03 0.  0.
        -24    2    3    3    0    0  0.34138656288E+02 -0.14570083515E+03  0.82272402482E+02  0.18876564126E+03  0.80433437653E+02 0.  0.
          6    2    1    2  501    0  0.26209857933E+02  0.15164751990E+03 -0.85161408556E+02  0.24657156246E+03  0.17280377010E+03 0.  0.
         24    2    5    5    0    0 -0.95194915558E+01  0.15930510964E+03 -0.29550926763E+02  0.17986443554E+03  0.77519153910E+02 0.  0.
          5    1    5    5  501    0  0.35729349488E+02 -0.76575897437E+01 -0.55610481794E+02  0.66707126912E+02  0.47000000000E+01 0. -1.
        -13    1    6    6    0    0  0.29889088890E+02  0.31933764435E+02 -0.12220099238E+02  0.45414246344E+02  0.00000000000E+00 0.  1.
         14    1    6    6    0    0 -0.39408580446E+02  0.12737134521E+03 -0.17330827525E+02  0.13445018920E+03  0.00000000000E+00 0. -1.
         -5    1    3    3    0  503 -0.60348514220E+02 -0.59466847496E+01  0.44896880566E+02  0.75598453110E+02  0.47000000000E+01 0.  1.
         11    1    4    4    0    0 -0.98891178238E+01  0.61926388412E+01  0.42238210445E+01  0.12409032652E+02  0.00000000000E+00 0. -1.
        -12    1    4    4    0    0  0.44027774111E+02 -0.15189347399E+03  0.78048581437E+02  0.17635660861E+03  0.00000000000E+00 0.  1.
</event>
<event>
12    1  0.1061634E+000  0.2365995E+03  0.7818608E-02  0.1122429E+00
         21   -1    0    0  503  502  0.00000000000E+00  0.00000000000E+00  0.24663696652E+03  0.24663696652E+03  0.00000000000E+00 0. -1.
         21   -1    0    0  501  503 -0.00000000000E+00 -0.00000000000E+00 -0.24592749739E+03  0.24592749739E+03  0.00000000000E+00 0. -1.
          6    2    1    2  501    0  0.14603698217E+03  0.69713304415E+02 -0.71478345928E+02  0.24519756060E+03  0.16978205092E+03 0.  0.
         24    2    3    3    0    0  0.61822359925E+02 -0.20295827963E+02 -0.64766933303E+02  0.12166262801E+03  0.79831789311E+02 0.  0.
         -6    2    1    2    0  502 -0.14603698217E+03 -0.69713304415E+02  0.72187815059E+02  0.24736690332E+03  0.17260521209E+03 0.  0.
        -24    2    5    5    0    0 -0.64920129400E+02  0.23579730760E+02 -0.80877058627E+01  0.99888825375E+02  0.71705924056E+02 0.  0.
          5    1    3    3  501    0  0.84214622241E+02  0.90009132377E+02 -0.67114126246E+01  0.12353493259E+03  0.47000000000E+01 0. -1.
        -11    1    4    4    0    0  0.76378268309E+02 -0.72711331526E+01 -0.31196834340E+02  0.82823618130E+02  0.00000000000E+00 0.  1.
         12    1    4    4    0    0 -0.14555908385E+02 -0.13024694810E+02 -0.33570098964E+02  0.38839009877E+02  0.00000000000E+00 0. -1.
         -5    1    5    5    0  502 -0.81116852766E+02 -0.93293035174E+02  0.80275520922E+02  0.14747807794E+03  0.47000000000E+01 0.  1.
         13    1    6    6    0    0  0.25698088931E+01 -0.13268352128E+02  0.14425088513E+02  0.19767049971E+02  0.00000000000E+00 0. -1.
        -14    1    6    6    0    0 -0.67489938293E+02  0.36848082888E+02 -0.22512794376E+02  0.80121775404E+02  0.00000000000E+00 0.  1.
</event>
<event>
12    1  0.1061634E+000  0.2214975E+03  0.7818608E-02  0.1132853E+00
         21   -1    0    0  501  502  0.00000000000E+00  0.00000000000E+00  0.25214399990E+03  0.25214399990E+03  0.00000000000E+00 0. -1.
         21   -1    0    0  502  503 -0.00000000000E+00 -0.00000000000E+00 -0.47902863173E+03  0.47902863173E+03  0.00000000000E+00 0. -1.
         -6    2    1    2    0  503  0.84534752252E+02 -0.11073553941E+03  0.16842197368E+03  0.27825723433E+03  0.17219942861E+03 0.  0.
        -24    2    3    3    0    0  0.90418185728E+02 -0.59249935564E+02  0.18019818287E+03  0.22490790167E+03  0.80163432738E+02 0.  0.
          6    2    1    2  501    0 -0.84534752252E+02  0.11073553941E+03 -0.39530660551E+03  0.45291539729E+03  0.17162913715E+03 0.  0.
         24    2    5    5    0    0  0.20532465037E+02  0.47282786150E+02 -0.21309802049E+03  0.23317138600E+03  0.79378113645E+02 0.  0.
          5    1    5    5  501    0 -0.10506721729E+03  0.63452753263E+02 -0.18220858502E+03  0.21974401130E+03  0.47000000000E+01 0. -1.
        -13    1    6    6    0    0  0.87372894421E+01  0.66183650231E+02 -0.11874879126E+03  0.13622735118E+03  0.00000000000E+00 0.  1.
         14    1    6    6    0    0  0.11795175595E+02 -0.18900864081E+02 -0.94349229225E+02  0.96944034812E+02  0.00000000000E+00 0. -1.
         -5    1    3    3    0  503 -0.58834334761E+01 -0.51485603850E+02 -0.11776209191E+02  0.53349332669E+02  0.47000000000E+01 0.  1.
         13    1    4    4    0    0  0.48630269852E+01 -0.41168854913E+01  0.85969843692E+02  0.86205636718E+02  0.00000000000E+00 0. -1.
        -14    1    4    4    0    0  0.85555158743E+02 -0.55133050072E+02  0.94228339176E+02  0.13870226495E+03  0.00000000000E+00 0.  1.
</event>
<event>
12    1  0.1061634E+000  0.2233734E+03  0.7818608E-02  0.1131552E+00
         21   -1    0    0  501  502  0.00000000000E+00  0.00000000000E+00  0.10741224040E+03  0.10741224040E+03  0.00000000000E+00 0. -1.
         21   -1    0    0  502  503 -0.00000000000E+00 -0.00000000000E+00 -0.46788351865E+03  0.46788351865E+03  0.00000000000E+00 0. -1.
         -6    2    1    2    0  503 -0.11301351147E+03  0.85564714536E+02 -0.21079922462E+03  0.30713514706E+03  0.17263345941E+03 0.  0.
        -24    2    3    3    0    0  0.11461952123E+02  0.31071440094E+02 -0.67263449551E+02  0.10942761882E+03  0.79707097423E+02 0.  0.
          6    2    1    2  501    0  0.11301351147E+03 -0.85564714536E+02 -0.14967205364E+03  0.26816061199E+03  0.17150806406E+03 0.  0.
         24    2    5    5    0    0  0.13173145489E+03 -0.11418298744E+03 -0.12534134650E+03  0.22592981447E+03  0.70305740137E+02 0.  0.
          5    1    5    5  501    0 -0.18717943418E+02  0.28618272902E+02 -0.24330707135E+02  0.42230797522E+02  0.47000000000E+01 0. -1.
        -13    1    6    6    0    0  0.11282297750E+03 -0.12254800027E+03 -0.11736501707E+03  0.20376845647E+03  0.00000000000E+00 0.  1.
         14    1    6    6    0    0  0.18908477393E+02  0.83650128352E+01 -0.79763294342E+01  0.22161357997E+02  0.00000000000E+00 0. -1.
         -5    1    3    3    0  503 -0.12447546360E+03  0.54493274442E+02 -0.14353577507E+03  0.19770752824E+03  0.47000000000E+01 0.  1.
         13    1    4    4    0    0  0.33500161040E+02  0.38409036274E+02 -0.69397847325E+02  0.86102125819E+02  0.00000000000E+00 0. -1.
        -14    1    4    4    0    0 -0.22038208917E+02 -0.73375961803E+01  0.21343977744E+01  0.23325493003E+02  0.00000000000E+00 0.  1.
</event>
<event>
12    1  0.1061634E+000  0.2960747E+03  0.7818608E-02  0.1087629E+00
         21   -1    0    0  501  502  0.00000000000E+00  0.00000000000E+00  0.25135880730E+03  0.25135880730E+03  0.00000000000E+00 0. -1.
         21   -1    0    0  502  503 -0.00000000000E+00 -0.00000000000E+00 -0.47162920842E+03  0.47162920842E+03  0.00000000000E+00 0. -1.
         -6    2    1    2    0  503  0.28705272696E+02 -0.23901199088E+03  0.76751279959E+02  0.30586105025E+03  0.17236443549E+03 0.  0.
        -24    2    3    3    0    0  0.29927179086E+02 -0.14980733123E+03 -0.20412602821E+02  0.17386910173E+03  0.80473086458E+02 0.  0.
          6    2    1    2  501    0 -0.28705272696E+02  0.23901199088E+03 -0.29702168108E+03  0.41712696546E+03  0.16680018531E+03 0.  0.
         24    2    5    5    0    0 -0.44820766319E+02  0.25287228383E+03 -0.28673444647E+03  0.39304929840E+03  0.79484685059E+02 0.  0.
          5    1    5    5  501    0  0.16115493623E+02 -0.13860292946E+02 -0.10287234609E+02  0.24077667062E+02  0.47000000000E+01 0. -1.
        -11    1    6    6    0    0 -0.62828121641E+02  0.14678319490E+03 -0.15021352958E+03  0.21921857504E+03  0.00000000000E+00 0.  1.
         12    1    6    6    0    0  0.18007355322E+02  0.10608908892E+03 -0.13652091689E+03  0.17383072336E+03  0.00000000000E+00 0. -1.
         -5    1    3    3    0  503 -0.12219063898E+01 -0.89204659652E+02  0.97163882780E+02  0.13199194853E+03  0.47000000000E+01 0.  1.
         13    1    4    4    0    0 -0.16193035221E+01  0.92262553271E+01  0.34658944378E+01  0.99879104678E+01  0.00000000000E+00 0. -1.
        -14    1    4    4    0    0  0.31546482608E+02 -0.15903358656E+03 -0.23878497259E+02  0.16388119126E+03  0.00000000000E+00 0.  1.
</event>
<event>
12    1  0.1061634E+000  0.2401917E+03  0.7818608E-02  0.1119779E+00
         21   -1    0    0  503  502  0.00000000000E+00  0.00000000000E+00  0.31695298970E+03  0.31695298970E+03  0.00000000000E+00 0. -1.
         21   -1    0    0  501  503 -0.00000000000E+00 -0.00000000000E+00 -0.21560541791E+03  0.21560541791E+03  0.00000000000E+00 0.  1.
          6    2    1    2  501    0 -0.83311653339E+02  0.14584607359E+03  0.15663494279E+03  0.28675177575E+03  0.17169789407E+03 0.  0.
         24    2    3    3    0    0 -0.96212747357E+01  0.28277318815E+02  0.12208775768E+03  0.14368437207E+03  0.69624726312E+02 0.  0.
         -6    2    1    2    0  502  0.83311653339E+02 -0.14584607359E+03 -0.55287371002E+02  0.24580663185E+03  0.17074044075E+03 0.  0.
        -24    2    5    5    0    0  0.11777201570E+03 -0.88956428427E+02 -0.61081678851E+02  0.17887672595E+03  0.80513463189E+02 0.  0.
          5    1    3    3  501    0 -0.73690378603E+02  0.11756875477E+03  0.34547185115E+02  0.14306740369E+03  0.47000000000E+01 0. -1.
        -13    1    4    4    0    0 -0.22350194391E+02 -0.16861470908E+01  0.61206815742E+01  0.23234393133E+02  0.00000000000E+00 0.  1.
         14    1    4    4    0    0  0.12728919655E+02  0.29963465906E+02  0.11596707610E+03  0.12044997893E+03  0.00000000000E+00 0. -1.
         -5    1    5    5    0  502 -0.34460362360E+02 -0.56889645163E+02  0.57943078493E+01  0.66929905903E+02  0.47000000000E+01 0.  1.
         11    1    6    6    0    0  0.62100914024E+02  0.12270135186E+01 -0.20969640986E+02  0.65557264494E+02  0.00000000000E+00 0. -1.
        -12    1    6    6    0    0  0.55671101674E+02 -0.90183441946E+02 -0.40112037865E+02  0.11331946146E+03  0.00000000000E+00 0.  1.
</event>
<event>
12    1  0.1061634E+000  0.2133360E+03  0.7818608E-02  0.1139259E+00
         21   -1    0    0  503  502  0.00000000000E+00  0.00000000000E+00  0.12363461438E+03  0.12363461438E+03  0.00000000000E+00 0.  1.
         21   -1    0    0  501  503 -0.00000000000E+00 -0.00000000000E+00 -0.69346526650E+03  0.69346526650E+03  0.00000000000E+00 0.  1.
          6    2    1    2  501    0  0.10423248040E+03  0.69083863617E+02 -0.44685359549E+01  0.21338282520E+03  0.17284464728E+03 0.  0.
         24    2    3    3    0    0  0.12089503054E+03  0.36765304741E+02  0.41344533583E+02  0.15470525568E+03  0.79101514751E+02 0.  0.
         -6    2    1    2    0  502 -0.10423248040E+03 -0.69083863617E+02 -0.56536211617E+03  0.60371705568E+03  0.17088876717E+03 0.  0.
        -24    2    5    5    0    0  0.49899203773E+01 -0.66622815806E+01 -0.15853605192E+03  0.17785848375E+03  0.80191490717E+02 0.  0.
          5    1    3    3  501    0 -0.16662550135E+02  0.32318558876E+02 -0.45813069538E+02  0.58677569525E+02  0.47000000000E+01 0. -1.
        -13    1    4    4    0    0  0.21121650906E+02 -0.20008441747E+02  0.25755418978E+02  0.38856189789E+02  0.00000000000E+00 0.  1.
         14    1    4    4    0    0  0.99773379629E+02  0.56773746488E+02  0.15589114605E+02  0.11584906589E+03  0.00000000000E+00 0. -1.
         -5    1    5    5    0  502 -0.10922240078E+03 -0.62421582036E+02 -0.40682606425E+03  0.42585857193E+03  0.47000000000E+01 0.  1.
         13    1    6    6    0    0  0.15290219266E+02 -0.17433002382E+02 -0.16107935765E+03  0.16273985326E+03  0.00000000000E+00 0. -1.
        -14    1    6    6    0    0 -0.10300298888E+02  0.10770720802E+02  0.25433057375E+01  0.15118630489E+02  0.00000000000E+00 0.  1.
</event>
<event>
12    1  0.1061634E+000  0.2814774E+03  0.7818608E-02  0.1094898E+00
         21   -1    0    0  501  502  0.00000000000E+00  0.00000000000E+00  0.35272013675E+02  0.35272013675E+02  0.00000000000E+00 0.  1.
         21   -1    0    0  502  503 -0.00000000000E+00 -0.00000000000E+00 -0.23880498441E+04  0.23880498441E+04  0.00000000000E+00 0.  1.
         -6    2    1    2    0  503 -0.21845403265E+03 -0.42712877328E+02 -0.14726787360E+04  0.14993372475E+04  0.17228745762E+03 0.  0.
        -24    2    3    3    0    0 -0.22785939960E+03 -0.40388349075E+00 -0.11826200472E+04  0.12060206185E+04  0.63051464634E+02 0.  0.
          6    2    1    2  501    0  0.21845403265E+03  0.42712877328E+02 -0.88009909449E+03  0.92398461033E+03  0.17212376279E+03 0.  0.
         24    2    5    5    0    0  0.12687303572E+03 -0.85026996483E+01 -0.69815000382E+03  0.71389492490E+03  0.77868304653E+02 0.  0.
          5    1    5    5  501    0  0.91580996937E+02  0.51215576977E+02 -0.18194909067E+03  0.21008968542E+03  0.47000000000E+01 0. -1.
        -13    1    6    6    0    0  0.43815873172E+02  0.31259159684E+02 -0.19035282404E+03  0.19781598374E+03  0.00000000000E+00 0.  1.
         14    1    6    6    0    0  0.83057162545E+02 -0.39761859332E+02 -0.50779717979E+03  0.51607894116E+03  0.00000000000E+00 0. -1.
         -5    1    3    3    0  503  0.94053669486E+01 -0.42308993838E+02 -0.29005868877E+03  0.29331662895E+03  0.47000000000E+01 0.  1.
         13    1    4    4    0    0 -0.43619426676E+02  0.21892643792E+02 -0.31652074768E+03  0.32026134008E+03  0.00000000000E+00 0. -1.
        -14    1    4    4    0    0 -0.18423997293E+03 -0.22296527283E+02 -0.86609929951E+03  0.88575927845E+03  0.00000000000E+00 0.  1.
</event>
<event>
12    1  0.1061634E+000  0.2076651E+03  0.7818608E-02  0.1144172E+00
         21   -1    0    0  501  502  0.00000000000E+00  0.00000000000E+00  0.13579746189E+02  0.13579746189E+02  0.00000000000E+00 0.  1.
         21   -1    0    0  502  503 -0.00000000000E+00 -0.00000000000E+00 -0.38948755980E+04  0.38948755980E+04  0.00000000000E+00 0.  1.
         -6    2    1    2    0  503  0.16600623596E+02 -0.10776894646E+03 -0.27985140416E+04  0.28059394713E+04  0.17241156851E+03 0.  0.
        -24    2    3    3    0    0  0.66333524071E+02 -0.43144053850E+02 -0.20411940360E+04  0.20442273084E+04  0.78298468666E+02 0.  0.
          6    2    1    2  501    0 -0.16600623596E+02  0.10776894646E+03 -0.10827818102E+04  0.11025158729E+04  0.17673447586E+03 0.  0.
         24    2    5    5    0    0 -0.74346852621E+02  0.35984539367E+02 -0.64947521686E+03  0.65949857989E+03  0.79359800860E+02 0.  0.
          5    1    5    5  501    0  0.57746229025E+02  0.71784407096E+02 -0.43330659335E+03  0.44301729301E+03  0.47000000000E+01 0. -1.
        -11    1    6    6    0    0  0.16162458568E+02  0.13107773266E+02 -0.99012540644E+02  0.10117569862E+03  0.00000000000E+00 0.  1.
         12    1    6    6    0    0 -0.90509311189E+02  0.22876766101E+02 -0.55046267621E+03  0.55832288126E+03  0.00000000000E+00 0. -1.
         -5    1    3    3    0  503 -0.49732900476E+02 -0.64624892614E+02 -0.75732000560E+03  0.76171216284E+03  0.47000000000E+01 0.  1.
         11    1    4    4    0    0  0.58185212948E+02 -0.15893556033E+02 -0.66254402038E+03  0.66528392666E+03  0.00000000000E+00 0. -1.
        -12    1    4    4    0    0  0.81483111230E+01 -0.27250497817E+02 -0.13786500156E+04  0.13789433818E+04  0.00000000000E+00 0.  1.
</event>
<event>
12    1  0.1061634E+000  0.1796196E+03  0.7818608E-02  0.1168452E+00
         21   -1    0    0  503  502  0.00000000000E+00  0.00000000000E+00  0.13896251778E+03  0.13896251778E+03  0.00000000000E+00 0.  1.
         21   -1    0    0  501  503 -0.00000000000E+00 -0.00000000000E+00 -0.32543836332E+03  0.32543836332E+03  0.00000000000E+00 0.  1.
          6    2    1    2  501    0  0.49735490442E+02  0.90159714448E+01 -0.21873991096E+03  0.28303772600E+03  0.17236095539E+03 0.  0.
         24    2    3    3    0    0 -0.60877128976E+01  0.52178462370E+02 -0.15844840590E+03  0.19010556668E+03  0.90964701759E+02 0.  0.
         -6    2    1    2    0  502 -0.49735490442E+02 -0.90159714448E+01  0.32264065410E+02  0.18136315510E+03  0.17116283873E+03 0.  0.
        -24    2    5    5    0    0  0.33425149642E+02  0.11571158327E+02 -0.69773907773E+01  0.87015373703E+02  0.79195068943E+02 0.  0.
          5    1    3    3  501    0  0.55823203340E+02 -0.43162490925E+02 -0.60291505054E+02  0.92932159319E+02  0.47000000000E+01 0. -1.
        -11    1    4    4    0    0  0.16748288142E+02  0.33032303052E+02 -0.95400899894E+01  0.38244627304E+02  0.00000000000E+00 0.  1.
         12    1    4    4    0    0 -0.22836001040E+02  0.19146159318E+02 -0.14890831591E+03  0.15186093938E+03  0.00000000000E+00 0. -1.
         -5    1    5    5    0  502 -0.83160640084E+02 -0.20587129772E+02  0.39241456187E+02  0.94347781400E+02  0.47000000000E+01 0.  1.
         11    1    6    6    0    0  0.10168891787E+02  0.68574274342E+01  0.35939806396E+02  0.37974996445E+02  0.00000000000E+00 0. -1.
        -12    1    6    6    0    0  0.23256257855E+02  0.47137308924E+01 -0.42917197174E+02  0.49040377258E+02  0.00000000000E+00 0.  1.
</event>
<event>
12    1  0.1061634E+000  0.2046064E+03  0.7818608E-02  0.1146363E+00
         21   -1    0    0  501  502  0.00000000000E+00  0.00000000000E+00  0.15010024993E+04  0.15010024993E+04  0.00000000000E+00 0.  1.
         21   -1    0    0  502  503 -0.00000000000E+00 -0.00000000000E+00 -0.27637166051E+02  0.27637166051E+02  0.00000000000E+00 0.  1.
         -6    2    1    2    0  503 -0.68783611456E+02  0.85177962163E+02  0.77171155400E+03  0.79837492049E+03  0.17285057319E+03 0.  0.
        -24    2    3    3    0    0 -0.38427576113E+02  0.12925363315E+03  0.58869561297E+03  0.60763667491E+03  0.66907575663E+02 0.  0.
          6    2    1    2  501    0  0.68783611456E+02 -0.85177962163E+02  0.70165377926E+03  0.73026474487E+03  0.17024130288E+03 0.  0.
         24    2    5    5    0    0  0.42648339034E+02 -0.40373681660E+01  0.52200132726E+03  0.53135787730E+03  0.89557952955E+02 0.  0.
          5    1    5    5  501    0  0.26135272423E+02 -0.81140593997E+02  0.17965245200E+03  0.19890686757E+03  0.47000000000E+01 0. -1.
        -11    1    6    6    0    0  0.27723667233E+02 -0.10511588878E+02  0.51067497762E+03  0.51153497240E+03  0.00000000000E+00 0.  1.
         12    1    6    6    0    0  0.14924671800E+02  0.64742207123E+01  0.11326349645E+02  0.19822904894E+02  0.00000000000E+00 0. -1.
         -5    1    3    3    0  503 -0.30356035344E+02 -0.44075670991E+02  0.18301594103E+03  0.19073824558E+03  0.47000000000E+01 0.  1.
         13    1    4    4    0    0 -0.38015153463E+02  0.75689120430E+02  0.46779367525E+03  0.47539974490E+03  0.00000000000E+00 0. -1.
        -14    1    4    4    0    0 -0.41242264932E+00  0.53564512724E+02  0.12090193772E+03  0.13223693001E+03  0.00000000000E+00 0.  1.
</event>
<event>
12    1  0.1061634E+000  0.2967119E+03  0.7818608E-02  0.1087104E+00
         21   -1    0    0  501  502  0.00000000000E+00  0.00000000000E+00  0.19170570904E+04  0.19170570904E+04  0.00000000000E+00 0. -1.
         21   -1    0    0  502  503 -0.00000000000E+00 -0.00000000000E+00 -0.45746303930E+02  0.45746303930E+02  0.00000000000E+00 0. -1.
         -6    2    1    2    0  503  0.24051115538E+03 -0.88507147923E+00  0.97820104279E+03  0.10222109420E+04  0.17375710242E+03 0.  0.
        -24    2    3    3    0    0  0.15662791373E+03  0.28752174110E+02  0.40535841965E+03  0.44248210416E+03  0.78204688110E+02 0.  0.
          6    2    1    2  501    0 -0.24051115538E+03  0.88507147923E+00  0.89310974372E+03  0.94059245236E+03  0.17094662292E+03 0.  0.
         24    2    5    5    0    0 -0.23057864379E+03  0.36804312289E+02  0.84115572161E+03  0.87648194573E+03  0.78463907714E+02 0.  0.
          5    1    5    5  501    0 -0.99325115905E+01 -0.35919240810E+02  0.51954022112E+02  0.64110506631E+02  0.47000000000E+01 0. -1.
        -11    1    6    6    0    0 -0.16309997608E+03  0.53378966980E+02  0.67299874121E+03  0.69453453621E+03  0.00000000000E+00 0.  1.
         12    1    6    6    0    0 -0.67478667711E+02 -0.16574654691E+02  0.16815698040E+03  0.18194740952E+03  0.00000000000E+00 0. -1.
         -5    1    3    3    0  503  0.83883241651E+02 -0.29637245589E+02  0.57284262314E+03  0.57972883785E+03  0.47000000000E+01 0.  1.
         13    1    4    4    0    0  0.31169926916E+01 -0.13526513784E+02  0.68437888431E+02  0.69831416937E+02  0.00000000000E+00 0. -1.
        -14    1    4    4    0    0  0.15351092104E+03  0.42278687894E+02  0.33692053122E+03  0.37265068722E+03  0.00000000000E+00 0.  1.
</event>
<event>
12    1  0.1061634E+000  0.2192215E+03  0.7818608E-02  0.1134847E+00
         21   -1    0    0  503  502  0.00000000000E+00  0.00000000000E+00  0.10081118066E+03  0.10081118066E+03  0.00000000000E+00 0. -1.
         21   -1    0    0  501  503 -0.00000000000E+00 -0.00000000000E+00 -0.47349423576E+03  0.47349423576E+03  0.00000000000E+00 0. -1.
          6    2    1    2  501    0 -0.12760594750E+03  0.46155385992E+02 -0.19982684952E+03  0.29513285015E+03  0.16958488126E+03 0.  0.
         24    2    3    3    0    0 -0.14188214023E+03 -0.42683616310E+01 -0.17009549434E+03  0.23469769908E+03  0.77471105139E+02 0.  0.
         -6    2    1    2    0  502  0.12760594750E+03 -0.46155385992E+02 -0.17285620558E+03  0.27917256627E+03  0.17217565582E+03 0.  0.
        -24    2    5    5    0    0  0.75140525442E+02 -0.24476312757E+02 -0.16556069981E+02  0.11281624654E+03  0.78792217760E+02 0.  0.
          5    1    3    3  501    0  0.14276192735E+02  0.50423747623E+02 -0.29731355181E+02  0.60435151065E+02  0.47000000000E+01 0. -1.
        -13    1    4    4    0    0 -0.63545507543E+02 -0.19754428710E+02 -0.29035337203E+02  0.72603855194E+02  0.00000000000E+00 0.  1.
         14    1    4    4    0    0 -0.78336632691E+02  0.15486067079E+02 -0.14106015714E+03  0.16209384389E+03  0.00000000000E+00 0. -1.
         -5    1    5    5    0  502  0.52465422058E+02 -0.21679073235E+02 -0.15630013559E+03  0.16635631973E+03  0.47000000000E+01 0.  1.
         13    1    6    6    0    0  0.19582687622E+02  0.28199480577E+02  0.68562154494E+00  0.34338934698E+02  0.00000000000E+00 0. -1.
        -14    1    6    6    0    0  0.55557837820E+02 -0.52675793334E+02 -0.17241691526E+02  0.78477311838E+02  0.00000000000E+00 0.  1.
</event>
<event>
12    1  0.1061634E+000  0.1898186E+03  0.7818608E-02  0.1161511E+00
         21   -1    0    0  501  502  0.00000000000E+00  0.00000000000E+00  0.15135474463E+04  0.15135474463E+04  0.00000000000E+00 0. -1.
         21   -1    0    0  502  503 -0.00000000000E+00 -0.00000000000E+00 -0.24495241258E+02  0.24495241258E+02  0.00000000000E+00 0. -1.
         -6    2    1    2    0  503 -0.35413096313E+02 -0.72582225488E+02  0.49086996227E+03  0.52197237007E+03  0.15804925945E+03 0.  0.
        -24    2    3    3    0    0 -0.40603418720E+02 -0.89710251082E+02  0.24406019056E+03  0.27446992136E+03  0.77921719396E+02 0.  0.
          6    2    1    2  501    0  0.35413096313E+02  0.72582225488E+02  0.99818224277E+03  0.10160703175E+04  0.17178135360E+03 0.  0.
         24    2    5    5    0    0  0.12359382628E+02  0.43728141347E+02  0.95162230993E+03  0.95645530904E+03  0.84598065832E+02 0.  0.
          5    1    5    5  501    0  0.23053713684E+02  0.28854084141E+02  0.46559932839E+02  0.59615008448E+02  0.47000000000E+01 0. -1.
        -13    1    6    6    0    0 -0.10551922159E+02  0.61019226355E+02  0.77951773085E+03  0.78197351730E+03  0.00000000000E+00 0.  1.
         14    1    6    6    0    0  0.22911304787E+02 -0.17291085008E+02  0.17210457908E+03  0.17448179174E+03  0.00000000000E+00 0. -1.
         -5    1    3    3    0  503  0.51903224076E+01  0.17128025593E+02  0.24680977170E+03  0.24750244871E+03  0.47000000000E+01 0.  1.
         11    1    4    4    0    0 -0.69182845976E+01 -0.73608700539E+02  0.21439190393E+03  0.22678181569E+03  0.00000000000E+00 0. -1.
        -12    1    4    4    0    0 -0.33685134123E+02 -0.16101550543E+02  0.29668286630E+02  0.47688105669E+02  0.00000000000E+00 0.  1.
</event>
<event>
12    1  0.1061634E+000  0.3011337E+03  0.7818608E-02  0.1084934E+00
         21   -1    0    0  503  502  0.00000000000E+00  0.00000000000E+00  0.12263677356E+03  0.12263677356E+03  0.00000000000E+00 0.  1.
         21   -1    0    0  501  503 -0.00000000000E+00 -0.00000000000E+00 -0.73454679927E+03  0.73454679927E+03  0.00000000000E+00 0.  1.
          6    2    1    2  501    0 -0.19797773661E+03  0.14777291838E+03 -0.31417881824E+03  0.43518941112E+03  0.17219022655E+03 0.  0.
         24    2    3    3    0    0 -0.10546131837E+03  0.35613809853E+02 -0.15325479056E+03  0.21826180579E+03  0.10844700047E+03 0.  0.
         -6    2    1    2    0  502  0.19797773661E+03 -0.14777291838E+03 -0.29773120747E+03  0.42199416171E+03  0.16853243314E+03 0.  0.
        -24    2    5    5    0    0  0.15734120291E+03 -0.11886890610E+03 -0.13696946224E+03  0.25361008133E+03  0.81678447556E+02 0.  0.
          5    1    3    3  501    0 -0.92516418236E+02  0.11215910853E+03 -0.16092402768E+03  0.21692760533E+03  0.47000000000E+01 0. -1.
        -13    1    4    4    0    0  0.40289507632E+01  0.11785468396E+02 -0.87413730647E+02  0.88296602512E+02  0.00000000000E+00 0.  1.
         14    1    4    4    0    0 -0.10949026914E+03  0.23828341457E+02 -0.65841059915E+02  0.12996520328E+03  0.00000000000E+00 0. -1.
         -5    1    5    5    0  502  0.40636533696E+02 -0.28904012284E+02 -0.16076174523E+03  0.16838408038E+03  0.47000000000E+01 0.  1.
         11    1    6    6    0    0  0.14895829337E+03 -0.82997423478E+02 -0.13358855816E+03  0.21661728541E+03  0.00000000000E+00 0. -1.
        -12    1    6    6    0    0  0.83829095470E+01 -0.35871482620E+02 -0.33809040823E+01  0.36992795923E+02  0.00000000000E+00 0.  1.
</event>
<event>
12    1  0.1061634E+000  0.1752820E+03  0.7818608E-02  0.1173136E+00
         21   -1    0    0  503  502  0.00000000000E+00  0.00000000000E+00  0.13992925704E+03  0.13992925704E+03  0.00000000000E+00 0. -1.
         21   -1    0    0  501  503 -0.00000000000E+00 -0.00000000000E+00 -0.21670478861E+03  0.21670478861E+03  0.00000000000E+00 0. -1.
          6    2    1    2  501    0  0.22024068851E+01 -0.48293709147E+02 -0.47536778258E+02  0.18161371197E+03  0.16848341803E+03 0.  0.
         24    2    3    3    0    0 -0.49800294557E+02 -0.71835831854E+02 -0.66474524386E+02  0.12128759220E+03  0.51491373570E+02 0.  0.
         -6    2    1    2    0  502 -0.22024068851E+01  0.48293709147E+02 -0.29238753312E+02  0.17502033368E+03  0.16565047409E+03 0.  0.
        -24    2    5    5    0    0  0.52760906579E+02  0.33231729342E+02  0.17043012525E+02  0.10145457458E+03  0.78195302476E+02 0.  0.
          5    1    3    3  501    0  0.52002701442E+02  0.23542122707E+02  0.18937746128E+02  0.60326119776E+02  0.47000000000E+01 0. -1.
        -13    1    4    4    0    0 -0.69431139855E+01 -0.54792486441E+02 -0.38848889945E+02  0.67525251959E+02  0.00000000000E+00 0.  1.
         14    1    4    4    0    0 -0.42857180571E+02 -0.17043345413E+02 -0.27625634441E+02  0.53762340236E+02  0.00000000000E+00 0. -1.
         -5    1    5    5    0  502 -0.54963313464E+02  0.15061979805E+02 -0.46281765837E+02  0.73565759097E+02  0.47000000000E+01 0.  1.
         13    1    6    6    0    0  0.37773458987E+02  0.27980276042E+02 -0.27295483181E+02  0.54357827893E+02  0.00000000000E+00 0. -1.
        -14    1    6    6    0    0  0.14987447592E+02  0.52514533006E+01  0.44338495706E+02  0.47096746688E+02  0.00000000000E+00 0.  1.
</event>
<event>
12    1  0.1061634E+000  0.2212025E+03  0.7818608E-02  0.1133436E+00
         21   -1    0    0  503  502  0.00000000000E+00  0.00000000000E+00  0.26743060872E+03  0.26743060872E+03  0.00000000000E+00 0.  1.
         21   -1    0    0  501  503 -0.00000000000E+00 -0.00000000000E+00 -0.18112740404E+03  0.18112740404E+03  0.00000000000E+00 0.  1.
          6    2    1    2  501    0 -0.30385110584E+01  0.13607008779E+03  0.36642988584E+02  0.22184969017E+03  0.17131921981E+03 0.  0.
         24    2    3    3    0    0  0.52155318589E+02  0.72290257075E+02 -0.19510054097E+02  0.12041261687E+03  0.78565244008E+02 0.  0.
         -6    2    1    2    0  502  0.30385110584E+01 -0.13607008779E+03  0.49660216099E+02  0.22670832259E+03  0.17437380861E+03 0.  0.
        -24    2    5    5    0    0 -0.36364216428E+02 -0.26001663932E+02  0.49994596027E+02  0.10970475566E+03  0.86817227665E+02 0.  0.
          5    1    3    3  501    0 -0.55193829647E+02  0.63779830712E+02  0.56153042681E+02  0.10143707330E+03  0.47000000000E+01 0. -1.
        -13    1    4    4    0    0 -0.29555582949E+01 -0.48865350899E+01 -0.24782785007E+02  0.25432262635E+02  0.00000000000E+00 0.  1.
         14    1    4    4    0    0  0.55110876884E+02  0.77176792165E+02  0.52727309101E+01  0.94980354237E+02  0.00000000000E+00 0. -1.
         -5    1    5    5    0  502  0.39402727487E+02 -0.11006842386E+03 -0.33437992801E+00  0.11700356693E+03  0.47000000000E+01 0.  1.
         11    1    6    6    0    0 -0.81593667330E+00 -0.45013706523E+02 -0.58548664238E+00  0.45024907797E+02  0.00000000000E+00 0. -1.
        -12    1    6    6    0    0 -0.35548279755E+02  0.19012042591E+02  0.50580082670E+02  0.64679847865E+02  0.00000000000E+00 0.  1.
</event>
<event>
12    1  0.1061634E+000  0.2634298E+03  0.7818608E-02  0.1107302E+00
         21   -1    0    0  503  502  0.00000000000E+00  0.00000000000E+00  0.21713000612E+03  0.21713000612E+03  0.00000000000E+00 0. -1.
         21   -1    0    0  501  503 -0.00000000000E+00 -0.00000000000E+00 -0.32688279334E+03  0.32688279334E+03  0.00000000000E+00 0. -1.
          6    2    1    2  501    0  0.17842594137E+03 -0.18756169861E+02  0.18275224283E+02  0.26406291970E+03  0.19289279736E+03 0.  0.
         24    2    3    3    0    0  0.19711968340E+03  0.13860031030E+02 -0.13651024761E+02  0.21451851608E+03  0.82362450311E+02 0.  0.
         -6    2    1    2    0  502 -0.17842594137E+03  0.18756169861E+02 -0.12802801150E+03  0.27994987976E+03  0.17260693203E+03 0.  0.
        -24    2    5    5    0    0 -0.18452594110E+02  0.24153517870E+02 -0.22033287267E+02  0.87914532061E+02  0.79495965589E+02 0.  0.
          5    1    3    3  501    0 -0.18693742030E+02 -0.32616200891E+02  0.31926249044E+02  0.49544403616E+02  0.47000000000E+01 0. -1.
        -11    1    4    4    0    0  0.82896634552E+02  0.32716522986E+02  0.24843735607E+02  0.92517209725E+02  0.00000000000E+00 0.  1.
         12    1    4    4    0    0  0.11422304885E+03 -0.18856491956E+02 -0.38494760368E+02  0.12200130636E+03  0.00000000000E+00 0. -1.
         -5    1    5    5    0  502 -0.15997334726E+03 -0.53973480089E+01 -0.10599472423E+03  0.19203534769E+03  0.47000000000E+01 0.  1.
         11    1    6    6    0    0  0.93250384604E+01  0.46836556464E+02 -0.20639244880E+02  0.52024972782E+02  0.00000000000E+00 0. -1.
        -12    1    6    6    0    0 -0.27777632571E+02 -0.22683038594E+02 -0.13940423874E+01  0.35889559280E+02  0.00000000000E+00 0.  1.
</event>
<event>
12    1  0.1061634E+000  0.1908384E+03  0.7818608E-02  0.1157744E+00
         21   -1    0    0  501  502  0.00000000000E+00  0.00000000000E+00  0.18229897091E+03  0.18229897091E+03  0.00000000000E+00 0. -1.
         21   -1    0    0  502  503 -0.00000000000E+00 -0.00000000000E+00 -0.25094101196E+03  0.25094101196E+03  0.00000000000E+00 0. -1.
         -6    2    1    2    0  503  0.23125700472E+02 -0.82212266381E+02  0.63666723911E+02  0.20102261744E+03  0.17047869727E+03 0.  0.
        -24    2    3    3    0    0  0.29646639294E+02 -0.57407033804E+02  0.10751668217E+03  0.15000564923E+03  0.82264008561E+02 0.  0.
          6    2    1    2  501    0 -0.23125700472E+02  0.82212266381E+02 -0.13230876496E+03  0.23221736542E+03  0.17066235892E+03 0.  0.
         24    2    5    5    0    0 -0.66382059031E+02  0.87953006774E+02 -0.12975193653E+03  0.18825492659E+03  0.80386834699E+02 0.  0.
          5    1    5    5  501    0  0.43256358559E+02 -0.57407403935E+01 -0.25568284335E+01  0.43962438828E+02  0.47000000000E+01 0. -1.
        -13    1    6    6    0    0 -0.82020607702E+02  0.58374779991E+02 -0.81443322338E+02  0.12949135021E+03  0.00000000000E+00 0.  1.
         14    1    6    6    0    0  0.15638548671E+02  0.29578226783E+02 -0.48308614189E+02  0.58763576380E+02  0.00000000000E+00 0. -1.
         -5    1    3    3    0  503 -0.65209388223E+01 -0.24805232577E+02 -0.43849958257E+02  0.51016968212E+02  0.47000000000E+01 0.  1.
         11    1    4    4    0    0 -0.19523603369E+01  0.93591463163E+01 -0.82851555427E+01  0.12651052645E+02  0.00000000000E+00 0. -1.
        -12    1    4    4    0    0  0.31598999631E+02 -0.66766180120E+02  0.11580183771E+03  0.13735459658E+03  0.00000000000E+00 0.  1.
</event>
<event>
12    1  0.1061634E+000  0.1817919E+03  0.7818608E-02  0.1166692E+00
         21   -1    0    0  501  502  0.00000000000E+00  0.00000000000E+00  0.34333039846E+03  0.34333039846E+03  0.00000000000E+00 0.  1.
         21   -1    0    0  502  503 -0.00000000000E+00 -0.00000000000E+00 -0.10147319905E+03  0.10147319905E+03  0.00000000000E+00 0.  1.
         -6    2    1    2    0  503 -0.52798884809E+02 -0.69501087097E+01  0.65195485703E+02  0.19312881691E+03  0.17381674924E+03 0.  0.
        -24    2    3    3    0    0  0.25024420810E+02  0.30576817333E+02  0.56079398044E+02  0.10612347150E+03  0.80969926045E+02 0.  0.
          6    2    1    2  501    0  0.52798884809E+02  0.69501087097E+01  0.17666171371E+03  0.25167478059E+03  0.17115726057E+03 0.  0.
         24    2    5    5    0    0  0.86785983301E+02 -0.33862265005E+02  0.10436249633E+03  0.16184138176E+03  0.81379618584E+02 0.  0.
          5    1    5    5  501    0 -0.33987098492E+02  0.40812373715E+02  0.72299217376E+02  0.89833398830E+02  0.47000000000E+01 0. -1.
        -11    1    6    6    0    0  0.70747692421E+01 -0.34487700468E+02  0.68036485764E+01  0.35857265335E+02  0.00000000000E+00 0.  1.
         12    1    6    6    0    0  0.79711214059E+02  0.62543546225E+00  0.97558847754E+02  0.12598411642E+03  0.00000000000E+00 0. -1.
         -5    1    3    3    0  503 -0.77823305619E+02 -0.37526926042E+02  0.91160876597E+01  0.87005345410E+02  0.47000000000E+01 0.  1.
         11    1    4    4    0    0 -0.55036564667E+01  0.50523596218E+02  0.19395228885E+02  0.54397600249E+02  0.00000000000E+00 0. -1.
        -12    1    4    4    0    0  0.30528077277E+02 -0.19946778885E+02  0.36684169158E+02  0.51725871254E+02  0.00000000000E+00 0.  1.
</event>
<event>
12    1  0.1061634E+000  0.4035320E+03  0.7818608E-02  0.1042568E+00
         21   -1    0    0  503  502  0.00000000000E+00  0.00000000000E+00  0.44695200710E+03  0.44695200710E+03  0.00000000000E+00 0. -1.
         21   -1    0    0  501  503 -0.00000000000E+00 -0.00000000000E+00 -0.95308792912E+03  0.95308792912E+03  0.00000000000E+00 0.  1.
          6    2    1    2  501    0  0.35902544484E+03 -0.58389746209E+02  0.29715107589E+03  0.50109162343E+03  0.17460074648E+03 0.  0.
         24    2    3    3    0    0  0.14554601509E+03 -0.23731552765E+02  0.20946628561E+03  0.26767060951E+03  0.77618305053E+02 0.  0.
         -6    2    1    2    0  502 -0.35902544484E+03  0.58389746209E+02 -0.80328699791E+03  0.89894831279E+03  0.17472674540E+03 0.  0.
        -24    2    5    5    0    0 -0.32844192924E+03  0.76546648057E+00 -0.66209364142E+03  0.74334123404E+03  0.79457620131E+02 0.  0.
          5    1    3    3  501    0  0.21347942975E+03 -0.34658193444E+02  0.87684790278E+02  0.23342101393E+03  0.47000000000E+01 0. -1.
        -11    1    4    4    0    0  0.42284057776E+02  0.22547039303E+02  0.33529730612E+02  0.58485496991E+02  0.00000000000E+00 0.  1.
         12    1    4    4    0    0  0.10326195732E+03 -0.46278592069E+02  0.17593655500E+03  0.20918511251E+03  0.00000000000E+00 0. -1.
         -5    1    5    5    0  502 -0.30583515597E+02  0.57624279728E+02 -0.14119335649E+03  0.15560707875E+03  0.47000000000E+01 0.  1.
         13    1    6    6    0    0 -0.16915347986E+03  0.96764890700E+01 -0.25554465240E+03  0.30660985561E+03  0.00000000000E+00 0. -1.
        -14    1    6    6    0    0 -0.15928844937E+03 -0.89110225894E+01 -0.40654898902E+03  0.43673137843E+03  0.00000000000E+00 0.  1.
</event>
<event>
12    1  0.1061634E+000  0.2139377E+03  0.7818608E-02  0.1141329E+00
         21   -1    0    0  503  502  0.00000000000E+00  0.00000000000E+00  0.13625616257E+03  0.13625616257E+03  0.00000000000E+00 0. -1.
         21   -1    0    0  501  503 -0.00000000000E+00 -0.00000000000E+00 -0.36102864254E+03  0.36102864254E+03  0.00000000000E+00 0. -1.
          6    2    1    2  501    0 -0.80764664763E+02  0.66461210665E+02 -0.19339944405E+02  0.20068428380E+03  0.17017674552E+03 0.  0.
         24    2    3    3    0    0 -0.10101384213E+03  0.87961949999E+02  0.11580714344E+02  0.15766698363E+03  0.82363000385E+02 0.  0.
         -6    2    1    2    0  502  0.80764664763E+02 -0.66461210665E+02 -0.20543253556E+03  0.29660052132E+03  0.18662614763E+03 0.  0.
        -24    2    5    5    0    0  0.82397184048E+02 -0.14731166639E+02 -0.21448504492E+03  0.24384921328E+03  0.80326216850E+02 0.  0.
          5    1    3    3  501    0  0.20249177370E+02 -0.21500739335E+02 -0.30920658749E+02  0.43017300166E+02  0.47000000000E+01 0. -1.
        -11    1    4    4    0    0 -0.12878262125E+02 -0.11538591674E+02 -0.14070292967E+02  0.22292641776E+02  0.00000000000E+00 0.  1.
         12    1    4    4    0    0 -0.88135580009E+02  0.99500541673E+02  0.25651007311E+02  0.13537434186E+03  0.00000000000E+00 0. -1.
         -5    1    5    5    0  502 -0.16325192843E+01 -0.51730044025E+02  0.90525093564E+01  0.52751308038E+02  0.47000000000E+01 0.  1.
         11    1    6    6    0    0  0.61535266064E+02 -0.46573007520E+02 -0.12993873043E+03  0.15112811673E+03  0.00000000000E+00 0. -1.
        -12    1    6    6    0    0  0.20861917983E+02  0.31841840881E+02 -0.84546314486E+02  0.92721096552E+02  0.00000000000E+00 0.  1.
</event>
<event>
12    1  0.1061634E+000  0.2515306E+03  0.7818608E-02  0.1112397E+00
         21   -1    0    0  503  502  0.00000000000E+00  0.00000000000E+00  0.12082916571E+03  0.12082916571E+03  0.00000000000E+00 0.  1.
         21   -1    0    0  501  503 -0.00000000000E+00 -0.00000000000E+00 -0.61858022674E+03  0.61858022674E+03  0.00000000000E+00 0.  1.
          6    2    1    2  501    0  0.13401941651E+03 -0.12684647235E+03 -0.39414505749E+03  0.46737656082E+03  0.17040918905E+03 0.  0.
         24    2    3    3    0    0 -0.63920908661E+01 -0.51073520038E+02 -0.16165524482E+03  0.18536497471E+03  0.74688636332E+02 0.  0.
         -6    2    1    2    0  502 -0.13401941651E+03  0.12684647235E+03 -0.10360600354E+03  0.27203283162E+03  0.17092813099E+03 0.  0.
        -24    2    5    5    0    0 -0.12525925842E+03  0.13957713333E+03 -0.40389490313E+02  0.20678539763E+03  0.77183105517E+02 0.  0.
          5    1    3    3  501    0  0.14041150738E+03 -0.75772952313E+02 -0.23248981267E+03  0.28201158611E+03  0.47000000000E+01 0. -1.
        -13    1    4    4    0    0 -0.15993139954E+02 -0.55695079834E+01  0.22526537135E+00  0.16936667006E+02  0.00000000000E+00 0.  1.
         14    1    4    4    0    0  0.96010490881E+01 -0.45504012055E+02 -0.16188051019E+03  0.16842830771E+03  0.00000000000E+00 0. -1.
         -5    1    5    5    0  502 -0.87601580919E+01 -0.12730660976E+02 -0.63216513225E+02  0.65247433995E+02  0.47000000000E+01 0.  1.
         11    1    6    6    0    0 -0.37864673903E+02  0.72525572093E+02 -0.50538507613E+02  0.96165653375E+02  0.00000000000E+00 0. -1.
        -12    1    6    6    0    0 -0.87394584516E+02  0.67051561233E+02  0.10149017300E+02  0.11061974425E+03  0.00000000000E+00 0.  1.
</event>
<event>
12    1  0.1061634E+000  0.1927467E+03  0.7818608E-02  0.1156086E+00
         21   -1    0    0  503  502  0.00000000000E+00  0.00000000000E+00  0.74721260656E+03  0.74721260656E+03  0.00000000000E+00 0.  1.
         21   -1    0    0  501  503 -0.00000000000E+00 -0.00000000000E+00 -0.51008395425E+02  0.51008395425E+02  0.00000000000E+00 0.  1.
          6    2    1    2  501    0  0.65701677807E+02 -0.58323362748E+02  0.41406343884E+03  0.45672730956E+03  0.17156042319E+03 0.  0.
         24    2    3    3    0    0  0.54308523206E+02 -0.22918382129E+02  0.10119852204E+03  0.14162436957E+03  0.79634497936E+02 0.  0.
         -6    2    1    2    0  502 -0.65701677807E+02  0.58323362748E+02  0.28214077230E+03  0.34149369243E+03  0.17116133169E+03 0.  0.
        -24    2    5    5    0    0  0.26590072148E+02  0.52730025455E+02  0.16363735592E+03  0.19111350016E+03  0.79118254353E+02 0.  0.
          5    1    3    3  501    0  0.11393154601E+02 -0.35404980619E+02  0.31286491680E+03  0.31510293998E+03  0.47000000000E+01 0. -1.
        -11    1    4    4    0    0  0.54127304480E+02  0.10632774666E+02  0.91252700833E+02  0.10662962251E+03  0.00000000000E+00 0.  1.
         12    1    4    4    0    0  0.18121872573E+00 -0.33551156795E+02  0.99458212080E+01  0.34994747063E+02  0.00000000000E+00 0. -1.
         -5    1    5    5    0  502 -0.92291749955E+02  0.55933372930E+01  0.11850341638E+03  0.15038019227E+03  0.47000000000E+01 0.  1.
         11    1    6    6    0    0 -0.14478439265E+02  0.51595594401E+02  0.11864270873E+03  0.13018380429E+03  0.00000000000E+00 0. -1.
        -12    1    6    6    0    0  0.41068511413E+02  0.11344310540E+01  0.44994647187E+02  0.60929695871E+02  0.00000000000E+00 0.  1.
</event>
<event>
12    1  0.1061634E+000  0.2005372E+03  0.7818608E-02  0.1149616E+00
         21   -1    0    0  503  502  0.00000000000E+00  0.00000000000E+00  0.36078391789E+03  0.36078391789E+03  0.00000000000E+00 0. -1.
         21   -1    0    0  501  503 -0.00000000000E+00 -0.00000000000E+00 -0.16175525168E+03  0.16175525168E+03  0.00000000000E+00 0. -1.
          6    2    1    2  501    0 -0.99037339375E+02 -0.20027406744E+02 -0.47680757825E+02  0.20460721807E+03  0.17140935625E+03 0.  0.
         24    2    3    3    0    0 -0.83992374318E+01  0.11500680322E+02  0.23630756063E+02  0.84954772169E+02  0.80349784349E+02 0.  0.
         -6    2    1    2    0  502  0.99037339375E+02  0.20027406744E+02  0.24670942404E+03  0.31793195149E+03  0.17322151788E+03 0.  0.
        -24    2    5    5    0    0 -0.75407912373E+01 -0.10038828396E+02  0.14710413009E+03  0.16891456659E+03  0.82066217826E+02 0.  0.
          5    1    3    3  501    0 -0.90638101943E+02 -0.31528087066E+02 -0.71311513888E+02  0.11965244590E+03  0.47000000000E+01 0. -1.
        -11    1    4    4    0    0 -0.30123003136E+02 -0.11428831468E+02  0.38366912417E+02  0.50100234281E+02  0.00000000000E+00 0.  1.
         12    1    4    4    0    0  0.21723765704E+02  0.22929511790E+02 -0.14736156354E+02  0.34854537888E+02  0.00000000000E+00 0. -1.
         -5    1    5    5    0  502  0.10657813061E+03  0.30066235140E+02  0.99605293950E+02  0.14901738490E+03  0.47000000000E+01 0.  1.
         13    1    6    6    0    0  0.69299241802E+00  0.22902307895E+02  0.12783747673E+03  0.12987461801E+03  0.00000000000E+00 0. -1.
        -14    1    6    6    0    0 -0.82337836553E+01 -0.32941136291E+02  0.19266653354E+02  0.39039948577E+02  0.00000000000E+00 0.  1.
</event>
<event>
12    1  0.1061634E+000  0.1790383E+03  0.7818608E-02  0.1169369E+00
         21   -1    0    0  503  502  0.00000000000E+00  0.00000000000E+00  0.27230466091E+03  0.27230466091E+03  0.00000000000E+00 0. -1.
         21   -1    0    0  501  503 -0.00000000000E+00 -0.00000000000E+00 -0.12847984683E+03  0.12847984683E+03  0.00000000000E+00 0. -1.
          6    2    1    2  501    0  0.94611679787E+01 -0.39868116693E+02  0.13382260296E+03  0.22146704127E+03  0.17163968328E+03 0.  0.
         24    2    3    3    0    0  0.50228420281E+02  0.20024796117E+02  0.44209320360E+02  0.10613378378E+03  0.79912635978E+02 0.  0.
         -6    2    1    2    0  502 -0.94611679787E+01  0.39868116693E+02  0.10002211117E+02  0.17931746648E+03  0.17428634234E+03 0.  0.
        -24    2    5    5    0    0 -0.60366153058E+02 -0.45055038171E+00 -0.29755654634E+02  0.10303057173E+03  0.78010411472E+02 0.  0.
          5    1    3    3  501    0 -0.40767252303E+02 -0.59892912811E+02  0.89613282604E+02  0.11533325749E+03  0.47000000000E+01 0. -1.
        -11    1    4    4    0    0  0.66163734021E+02 -0.52076763076E+01  0.34163634048E+02  0.74645250911E+02  0.00000000000E+00 0.  1.
         12    1    4    4    0    0 -0.15935313740E+02  0.25232472425E+02  0.10045686312E+02  0.31488532867E+02  0.00000000000E+00 0. -1.
         -5    1    5    5    0  502  0.50904985079E+02  0.40318667075E+02  0.39757865751E+02  0.76286894744E+02  0.47000000000E+01 0.  1.
         11    1    6    6    0    0  0.19198439522E+01 -0.11326406561E+02  0.19668281988E+02  0.22777502118E+02  0.00000000000E+00 0. -1.
        -12    1    6    6    0    0 -0.62285997010E+02  0.10875856179E+02 -0.49423936623E+02  0.80253069614E+02  0.00000000000E+00 0.  1.
</event>
<event>
12    1  0.1061634E+000  0.2690538E+03  0.7818608E-02  0.1101842E+00
         21   -1    0    0  503  502  0.00000000000E+00  0.00000000000E+00  0.64824493328E+03  0.64824493328E+03  0.00000000000E+00 0. -1.
         21   -1    0    0  501  503 -0.00000000000E+00 -0.00000000000E+00 -0.16827603851E+03  0.16827603851E+03  0.00000000000E+00 0. -1.
          6    2    1    2  501    0  0.17240035663E+03 -0.11503228077E+03  0.47684935346E+03  0.54744905497E+03  0.17135008988E+03 0.  0.
         24    2    3    3    0    0  0.18382726959E+03 -0.11740741937E+03  0.35380856150E+03  0.42376663054E+03  0.82587479717E+02 0.  0.
         -6    2    1    2    0  502 -0.17240035663E+03  0.11503228077E+03  0.31195413090E+01  0.26907191682E+03  0.17156822636E+03 0.  0.
        -24    2    5    5    0    0 -0.11653610894E+02  0.18612121501E+02 -0.34886717789E+01  0.81449631738E+02  0.78355944037E+02 0.  0.
          5    1    3    3  501    0 -0.11426912961E+02  0.23751385981E+01  0.12304079197E+03  0.12368242442E+03  0.47000000000E+01 0. -1.
        -13    1    4    4    0    0  0.17100296456E+03 -0.86282261282E+02  0.33310290931E+03  0.38424496183E+03  0.00000000000E+00 0.  1.
         14    1    4    4    0    0  0.12824305032E+02 -0.31125158087E+02  0.20705652185E+02  0.39521668714E+02  0.00000000000E+00 0. -1.
         -5    1    5    5    0  502 -0.16074674574E+03  0.96420159271E+02  0.66082130879E+01  0.18762228508E+03  0.47000000000E+01 0.  1.
         13    1    6    6    0    0 -0.28702223265E+02  0.16205166736E+01 -0.32738708477E+02  0.43569102899E+02  0.00000000000E+00 0. -1.
        -14    1    6    6    0    0  0.17048612371E+02  0.16991604827E+02  0.29250036698E+02  0.37880528840E+02  0.00000000000E+00 0.  1.
</event>
<event>
12    1  0.1061634E+000  0.1738126E+03  0.7818608E-02  0.1174186E+00
         21   -1    0    0  501  502  0.00000000000E+00  0.00000000000E+00  0.72263604668E+02  0.72263604668E+02  0.00000000000E+00 0. -1.
         21   -1    0    0  502  503 -0.00000000000E+00 -0.00000000000E+00 -0.49667730481E+03  0.49667730481E+03  0.00000000000E+00 0. -1.
         -6    2    1    2    0  503  0.25276549763E+02 -0.23075230401E+01 -0.32659489386E+03  0.36949331709E+03  0.17092939492E+03 0.  0.
        -24    2    3    3    0    0  0.20272461882E+02  0.49032341303E+02 -0.10765091665E+03  0.14450581138E+03  0.80486436520E+02 0.  0.
          6    2    1    2  501    0 -0.25276549763E+02  0.23075230401E+01 -0.97818806288E+02  0.19944759240E+03  0.17194939552E+03 0.  0.
         24    2    5    5    0    0  0.33433535706E+02 -0.43647161095E+02 -0.59873200969E+02  0.11565817724E+03  0.82274770047E+02 0.  0.
          5    1    5    5  501    0 -0.58710085468E+02  0.45954684135E+02 -0.37945605318E+02  0.83789415159E+02  0.47000000000E+01 0. -1.
        -11    1    6    6    0    0  0.21874718356E+02 -0.60269886175E+02 -0.68343517308E+02  0.93711252476E+02  0.00000000000E+00 0.  1.
         12    1    6    6    0    0  0.11558817350E+02  0.16622725079E+02  0.84703163392E+01  0.21946924761E+02  0.00000000000E+00 0. -1.
         -5    1    3    3    0  503  0.50040878813E+01 -0.51339864343E+02 -0.21894397721E+03  0.22498750570E+03  0.47000000000E+01 0.  1.
         11    1    4    4    0    0  0.47392883883E+02  0.35322408445E+02 -0.94344925850E+02  0.11133159037E+03  0.00000000000E+00 0. -1.
        -12    1    4    4    0    0 -0.27120422002E+02  0.13709932858E+02 -0.13305990799E+02  0.33174221011E+02  0.00000000000E+00 0.  1.
</event>
<event>
12    1  0.1229907E+000  0.2361034E+03  0.7818608E-02  0.1122471E+00
         21   -1    0    0  501  502  0.00000000000E+00  0.00000000000E+00  0.43067390157E+03  0.43067390157E+03  0.00000000000E+00 0. -1.
         21   -1    0    0  502  503 -0.00000000000E+00 -0.00000000000E+00 -0.23756491306E+03  0.23756491306E+03  0.00000000000E+00 0. -1.
         -6    2    1    2    0  503  0.67196874439E+02 -0.14664759576E+03  0.32218710378E+03  0.39943630948E+03  0.17240620121E+03 0.  0.
        -24    2    3    3    0    0  0.23014881250E+02 -0.15074027998E+03  0.18338388382E+03  0.25363774139E+03  0.86314183339E+02 0.  0.
          6    2    1    2  501    0 -0.67196874439E+02  0.14664759576E+03 -0.12907811526E+03  0.26880250515E+03  0.17196711795E+03 0.  0.
         24    2    5    5    0    0 -0.61233919153E+02  0.85612091953E+02 -0.75512295793E+01  0.13259764655E+03  0.80287556072E+02 0.  0.
          5    1    5    5  501    0 -0.59629552867E+01  0.61035503806E+02 -0.12152688568E+03  0.13620485859E+03  0.47000000000E+01 0. -1.
        -11    1    6    6    0    0  0.18419383191E+02  0.29812819815E+02  0.96761992722E-01  0.35044076037E+02  0.00000000000E+00 0.  1.
         12    1    6    6    0    0 -0.79653302344E+02  0.55799272138E+02 -0.76479915720E+01  0.97553570516E+02  0.00000000000E+00 0. -1.
         -5    1    3    3    0  503  0.44181993190E+02  0.40926842204E+01  0.13880321996E+03  0.14579856809E+03  0.47000000000E+01 0.  1.
         13    1    4    4    0    0  0.26317831670E+02 -0.43474717277E+02  0.11671390388E+03  0.12729813300E+03  0.00000000000E+00 0. -1.
        -14    1    4    4    0    0 -0.33029504206E+01 -0.10726556270E+03  0.66669979939E+02  0.12633960839E+03  0.00000000000E+00 0.  1.
</event>
<event>
12    1  0.1061634E+000  0.1968287E+03  0.7818608E-02  0.1152488E+00
         21   -1    0    0  503  502  0.00000000000E+00  0.00000000000E+00  0.34208995637E+02  0.34208995637E+02  0.00000000000E+00 0. -1.
         21   -1    0    0  501  503 -0.00000000000E+00 -0.00000000000E+00 -0.14979376870E+04  0.14979376870E+04  0.00000000000E+00 0. -1.
          6    2    1    2  501    0 -0.52181864666E+02 -0.80842876366E+02 -0.35256294661E+03  0.40368274937E+03  0.17146606999E+03 0.  0.
         24    2    3    3    0    0 -0.95970317124E+02 -0.35017433442E+02 -0.21799688766E+03  0.25486234080E+03  0.83639986322E+02 0.  0.
         -6    2    1    2    0  502  0.52181864666E+02  0.80842876366E+02 -0.11111657448E+04  0.11284639333E+04  0.17170619881E+03 0.  0.
        -24    2    5    5    0    0 -0.23256738475E+02  0.16343229109E+02 -0.72920791742E+03  0.73379310942E+03  0.76812522237E+02 0.  0.
          5    1    3    3  501    0  0.43788452458E+02 -0.45825442924E+02 -0.13456605895E+03  0.14882040858E+03  0.47000000000E+01 0. -1.
        -11    1    4    4    0    0 -0.71199212687E+01  0.64879094438E+01  0.52897277196E+01  0.10989425243E+02  0.00000000000E+00 0.  1.
         12    1    4    4    0    0 -0.88850395856E+02 -0.41505342885E+02 -0.22328661538E+03  0.24387291555E+03  0.00000000000E+00 0. -1.
         -5    1    5    5    0  502  0.75438603141E+02  0.64499647256E+02 -0.38195782738E+03  0.39467082390E+03  0.47000000000E+01 0.  1.
         11    1    6    6    0    0 -0.12111077638E+00 -0.29831489887E+02 -0.23201663904E+03  0.23392659799E+03  0.00000000000E+00 0. -1.
        -12    1    6    6    0    0 -0.23135627698E+02  0.46174718997E+02 -0.49719127838E+03  0.49986651143E+03  0.00000000000E+00 0.  1.
</event>
<event>
12    1  0.1061634E+000  0.2359368E+03  0.7818608E-02  0.1122648E+00
         21   -1    0    0  501  502  0.00000000000E+00  0.00000000000E+00  0.87539503924E+03  0.87539503924E+03  0.00000000000E+00 0.  1.
         21   -1    0    0  502  503 -0.00000000000E+00 -0.00000000000E+00 -0.63414488066E+02  0.63414488066E+02  0.00000000000E+00 0.  1.
         -6    2    1    2    0  503 -0.14871402646E+03  0.59897309679E+02  0.41310317953E+03  0.47573146121E+03  0.17309718911E+03 0.  0.
        -24    2    3    3    0    0 -0.70416645981E+02  0.90816830977E+02  0.33118624649E+03  0.35817734386E+03  0.73487951223E+02 0.  0.
          6    2    1    2  501    0  0.14871402646E+03 -0.59897309679E+02  0.39887737165E+03  0.46307806610E+03  0.17214699624E+03 0.  0.
         24    2    5    5    0    0  0.12795865391E+03  0.11867648708E+02  0.20018039033E+03  0.25074913466E+03  0.79301208454E+02 0.  0.
          5    1    5    5  501    0  0.20755372545E+02 -0.71764958387E+02  0.19869698131E+03  0.21232893144E+03  0.47000000000E+01 0. -1.
        -13    1    6    6    0    0 -0.10527572260E+02  0.40810860493E+01  0.23974392706E+02  0.26500123521E+02  0.00000000000E+00 0.  1.
         14    1    6    6    0    0  0.13848622617E+03  0.77865626587E+01  0.17620599763E+03  0.22424901114E+03  0.00000000000E+00 0. -1.
         -5    1    3    3    0  503 -0.78297380475E+02 -0.30919521298E+02  0.81916933045E+02  0.11755411735E+03  0.47000000000E+01 0.  1.
         13    1    4    4    0    0 -0.71585858006E+02  0.43215118824E+02  0.25475522938E+03  0.26812741087E+03  0.00000000000E+00 0. -1.
        -14    1    4    4    0    0  0.11692120250E+01  0.47601712153E+02  0.76431017102E+02  0.90049932992E+02  0.00000000000E+00 0.  1.
</event>
<event>
12    1  0.1061634E+000  0.2354053E+03  0.7818608E-02  0.1122972E+00
         21   -1    0    0  503  502  0.00000000000E+00  0.00000000000E+00  0.35640382549E+03  0.35640382549E+03  0.00000000000E+00 0.  1.
         21   -1    0    0  501  503 -0.00000000000E+00 -0.00000000000E+00 -0.15695966020E+03  0.15695966020E+03  0.00000000000E+00 0. -1.
          6    2    1    2  501    0  0.82995802551E+01  0.15970943159E+03  0.72284064353E+02  0.24580914462E+03  0.17210800112E+03 0.  0.
         24    2    3    3    0    0  0.23124599687E+02  0.10239760847E+02  0.39738828928E+02  0.92048792053E+02  0.79083536725E+02 0.  0.
         -6    2    1    2    0  502 -0.82995802551E+01 -0.15970943159E+03  0.12716010093E+03  0.26755434107E+03  0.17274156588E+03 0.  0.
        -24    2    5    5    0    0 -0.31515053483E+02 -0.17793643059E+02  0.21063083704E+02  0.88787128477E+02  0.78292326308E+02 0.  0.
          5    1    3    3  501    0 -0.14825019432E+02  0.14946967074E+03  0.32545235425E+02  0.15376035257E+03  0.47000000000E+01 0. -1.
        -13    1    4    4    0    0  0.53087694457E+01 -0.30031979998E+02  0.36969260591E+02  0.47925244749E+02  0.00000000000E+00 0.  1.
         14    1    4    4    0    0  0.17815830242E+02  0.40271740845E+02  0.27695683375E+01  0.44123547304E+02  0.00000000000E+00 0. -1.
         -5    1    5    5    0  502  0.23215473228E+02 -0.14191578853E+03  0.10609701723E+03  0.17876721259E+03  0.47000000000E+01 0.  1.
         11    1    6    6    0    0 -0.38635373582E+02 -0.43968887485E+02  0.19185683135E+02  0.61595824500E+02  0.00000000000E+00 0. -1.
        -12    1    6    6    0    0  0.71203200989E+01  0.26175244426E+02  0.18774005689E+01  0.27191303977E+02  0.00000000000E+00 0.  1.
</event>
<event>
12    1  0.1061634E+000  0.2041871E+03  0.7818608E-02  0.1146375E+00
         21   -1    0    0  503  502  0.00000000000E+00  0.00000000000E+00  0.31457433082E+03  0.31457433082E+03  0.00000000000E+00 0.  1.
         21   -1    0    0  501  503 -0.00000000000E+00 -0.00000000000E+00 -0.13319120874E+03  0.13319120874E+03  0.00000000000E+00 0.  1.
          6    2    1    2  501    0  0.32637395349E+02  0.10288735758E+03  0.11060083324E+03  0.23221738692E+03  0.17332444301E+03 0.  0.
         24    2    3    3    0    0  0.88998896211E+01  0.12937671552E+03  0.12127973647E+03  0.19478365566E+03  0.80089671495E+02 0.  0.
         -6    2    1    2    0  502 -0.32637395349E+02 -0.10288735758E+03  0.70782288830E+02  0.21554815265E+03  0.17262637623E+03 0.  0.
        -24    2    5    5    0    0 -0.50837191417E+02 -0.15244296841E+01  0.61063221956E+02  0.11199997067E+03  0.78921051931E+02 0.  0.
          5    1    3    3  501    0  0.23737505728E+02 -0.26489357932E+02 -0.10678903226E+02  0.37433731259E+02  0.47000000000E+01 0. -1.
        -13    1    4    4    0    0 -0.27547775024E+02  0.19862914857E+02  0.12523780269E+02  0.36197518805E+02  0.00000000000E+00 0.  1.
         14    1    4    4    0    0  0.36447664645E+02  0.10951380066E+03  0.10875595620E+03  0.15858613685E+03  0.00000000000E+00 0. -1.
         -5    1    5    5    0  502  0.18199796067E+02 -0.10136292790E+03  0.97190668741E+01  0.10354818197E+03  0.47000000000E+01 0.  1.
         11    1    6    6    0    0 -0.28791733216E+02 -0.35058271845E+02  0.89747854578E+01  0.46244925131E+02  0.00000000000E+00 0. -1.
        -12    1    6    6    0    0 -0.22045458200E+02  0.33533842160E+02  0.52088436498E+02  0.65755045541E+02  0.00000000000E+00 0.  1.
</event>
<event>
12    1  0.1061634E+000  0.2691219E+03  0.7818608E-02  0.1101873E+00
         21   -1    0    0  501  502  0.00000000000E+00  0.00000000000E+00  0.56242277694E+02  0.56242277694E+02  0.00000000000E+00 0.  1.
         21   -1    0    0  502  503 -0.00000000000E+00 -0.00000000000E+00 -0.14653030042E+04  0.14653030042E+04  0.00000000000E+00 0. -1.
         -6    2    1    2    0  503 -0.17370244392E+03  0.11402244593E+03 -0.43820898736E+03  0.51425061394E+03  0.17103485065E+03 0.  0.
        -24    2    3    3    0    0 -0.29091604376E+02  0.54222741920E+02 -0.10307946301E+03  0.14435578077E+03  0.80167253675E+02 0.  0.
          6    2    1    2  501    0  0.17370244392E+03 -0.11402244593E+03 -0.97085173917E+03  0.10072946680E+04  0.17004643919E+03 0.  0.
         24    2    5    5    0    0  0.10426277828E+03 -0.13247470646E+03 -0.80745391269E+03  0.82873573434E+03  0.80005133992E+02 0.  0.
          5    1    5    5  501    0  0.69439665640E+02  0.18452260530E+02 -0.16339782648E+03  0.17855893364E+03  0.47000000000E+01 0. -1.
        -11    1    6    6    0    0  0.13535664738E+02 -0.77085746947E+02 -0.40415810079E+03  0.41166636617E+03  0.00000000000E+00 0.  1.
         12    1    6    6    0    0  0.90727113543E+02 -0.55388959511E+02 -0.40329581191E+03  0.41706936817E+03  0.00000000000E+00 0. -1.
         -5    1    3    3    0  503 -0.14461083955E+03  0.59799704007E+02 -0.33512952435E+03  0.36989483317E+03  0.47000000000E+01 0.  1.
         11    1    4    4    0    0 -0.54670658744E+01  0.53914259050E+02 -0.10743755800E+03  0.12033064866E+03  0.00000000000E+00 0. -1.
        -12    1    4    4    0    0 -0.23624538501E+02  0.30848287010E+00  0.43580949901E+01  0.24025132113E+02  0.00000000000E+00 0.  1.
</event>
<event>
12    1  0.1061634E+000  0.2171489E+03  0.7818608E-02  0.1137216E+00
         21   -1    0    0  503  502  0.00000000000E+00  0.00000000000E+00  0.18019488869E+03  0.18019488869E+03  0.00000000000E+00 0.  1.
         21   -1    0    0  501  503 -0.00000000000E+00 -0.00000000000E+00 -0.25533105380E+03  0.25533105380E+03  0.00000000000E+00 0.  1.
          6    2    1    2  501    0  0.64906373017E+01  0.12976596681E+03 -0.50953979007E+02  0.21703474041E+03  0.16621202139E+03 0.  0.
         24    2    3    3    0    0 -0.57394053754E+02  0.84749221476E+02 -0.40809860885E+02  0.13808694599E+03  0.83222905267E+02 0.  0.
         -6    2    1    2    0  502 -0.64906373017E+01 -0.12976596681E+03 -0.24182186100E+02  0.21849120207E+03  0.17398934664E+03 0.  0.
        -24    2    5    5    0    0 -0.45538454360E+02 -0.70900946482E+02  0.40111479491E+02  0.12285863403E+03  0.79903805485E+02 0.  0.
          5    1    3    3  501    0  0.63884691055E+02  0.45016745334E+02 -0.10144118123E+02  0.78947794423E+02  0.47000000000E+01 0. -1.
        -11    1    4    4    0    0 -0.27194116019E+02 -0.32729563845E+01  0.13290994731E+02  0.30444748817E+02  0.00000000000E+00 0.  1.
         12    1    4    4    0    0 -0.30199937734E+02  0.88022177860E+02 -0.54100855616E+02  0.10764219718E+03  0.00000000000E+00 0. -1.
         -5    1    5    5    0  502  0.39047817058E+02 -0.58865020328E+02 -0.64293665591E+02  0.95632568042E+02  0.47000000000E+01 0.  1.
         11    1    6    6    0    0  0.12244443652E+02 -0.14390936390E+02 -0.15759670527E+02  0.24604728522E+02  0.00000000000E+00 0. -1.
        -12    1    6    6    0    0 -0.57782898011E+02 -0.56510010093E+02  0.55871150018E+02  0.98253905508E+02  0.00000000000E+00 0.  1.
</event>
<event>
12    1  0.1061634E+000  0.2428765E+03  0.7818608E-02  0.1118619E+00
         21   -1    0    0  501  502  0.00000000000E+00  0.00000000000E+00  0.38010097234E+02  0.38010097234E+02  0.00000000000E+00 0. -1.
         21   -1    0    0  502  503 -0.00000000000E+00 -0.00000000000E+00 -0.15537649841E+04  0.15537649841E+04  0.00000000000E+00 0. -1.
         -6    2    1    2    0  503  0.14957281617E+03  0.77700586530E+02 -0.86130582787E+03  0.89371164244E+03  0.16871088354E+03 0.  0.
        -24    2    3    3    0    0  0.13441769065E+03  0.93107324990E+02 -0.84929710258E+03  0.86854529779E+03  0.79550464116E+02 0.  0.
          6    2    1    2  501    0 -0.14957281617E+03 -0.77700586530E+02 -0.65444905901E+03  0.69806343891E+03  0.17487019591E+03 0.  0.
         24    2    5    5    0    0 -0.17714041413E+03 -0.85391515649E+02 -0.54907965745E+03  0.58877517955E+03  0.80605859395E+02 0.  0.
          5    1    5    5  501    0  0.27567597958E+02  0.76909291183E+01 -0.10536940156E+03  0.10928825935E+03  0.47000000000E+01 0. -1.
        -13    1    6    6    0    0 -0.15252454231E+03 -0.44290703225E+02 -0.47214828464E+03  0.49814596765E+03  0.00000000000E+00 0.  1.
         14    1    6    6    0    0 -0.24615871825E+02 -0.41100812424E+02 -0.76931372809E+02  0.90629211902E+02  0.00000000000E+00 0. -1.
         -5    1    3    3    0  503  0.15155125526E+02 -0.15406738459E+02 -0.12008725285E+02  0.25166344642E+02  0.47000000000E+01 0.  1.
         13    1    4    4    0    0  0.31956966522E+01  0.16591054974E+02 -0.24017289115E+03  0.24076647031E+03  0.00000000000E+00 0. -1.
        -14    1    4    4    0    0  0.13122199399E+03  0.76516270015E+02 -0.60912421144E+03  0.62777882749E+03  0.00000000000E+00 0.  1.
</event>
<event>
12    1  0.1061634E+000  0.9364542E+03  0.7818608E-02  0.9381257E-01
         21   -1    0    0  503  502  0.00000000000E+00  0.00000000000E+00  0.60245317322E+03  0.60245317322E+03  0.00000000000E+00 0. -1.
         21   -1    0    0  501  503 -0.00000000000E+00 -0.00000000000E+00 -0.14558697697E+04  0.14558697697E+04  0.00000000000E+00 0. -1.
          6    2    1    2  501    0  0.68196521287E+03  0.61840726229E+03 -0.40078102631E+03  0.10186126935E+04  0.17158757149E+03 0.  0.
         24    2    3    3    0    0  0.67101581044E+03  0.57167372655E+03 -0.39735139329E+03  0.97026225235E+03  0.80297204818E+02 0.  0.
         -6    2    1    2    0  502 -0.68196521287E+03 -0.61840726229E+03 -0.45263557020E+03  0.10397102494E+04  0.16915776595E+03 0.  0.
        -24    2    5    5    0    0 -0.67011455608E+03 -0.59272454293E+03 -0.46140833639E+03  0.10097253938E+04  0.79194797672E+02 0.  0.
          5    1    3    3  501    0  0.10949402429E+02  0.46733535740E+02 -0.34296330187E+01  0.48350441145E+02  0.47000000000E+01 0. -1.
        -13    1    4    4    0    0  0.59659254636E+03  0.47178876171E+03 -0.34001330826E+03  0.83313645452E+03  0.00000000000E+00 0.  1.
         14    1    4    4    0    0  0.74423264076E+02  0.99884964837E+02 -0.57338085031E+02  0.13712579783E+03  0.00000000000E+00 0. -1.
         -5    1    5    5    0  502 -0.11850656792E+02 -0.25682719365E+02  0.87727661938E+01  0.29984855629E+02  0.47000000000E+01 0.  1.
         11    1    6    6    0    0 -0.20425462028E+02 -0.42528578716E+01 -0.17077387689E+02  0.26961518306E+02  0.00000000000E+00 0. -1.
        -12    1    6    6    0    0 -0.64968909405E+03 -0.58847168506E+03 -0.44433094871E+03  0.98276387551E+03  0.00000000000E+00 0.  1.
</event>
<event>
12    1  0.1061634E+000  0.2134100E+03  0.7818608E-02  0.1139001E+00
         21   -1    0    0  503  502  0.00000000000E+00  0.00000000000E+00  0.15737448769E+03  0.15737448769E+03  0.00000000000E+00 0. -1.
         21   -1    0    0  501  503 -0.00000000000E+00 -0.00000000000E+00 -0.30725935825E+03  0.30725935825E+03  0.00000000000E+00 0. -1.
          6    2    1    2  501    0  0.90072217453E+02 -0.86783649125E+02 -0.17675765711E+02  0.21358984395E+03  0.17223177010E+03 0.  0.
         24    2    3    3    0    0  0.64175579808E+00 -0.91914740695E+02 -0.16822370952E-01  0.12216739675E+03  0.80474475070E+02 0.  0.
         -6    2    1    2    0  502 -0.90072217453E+02  0.86783649125E+02 -0.13220910485E+03  0.25104400199E+03  0.17291453790E+03 0.  0.
        -24    2    5    5    0    0 -0.72490458418E+02  0.13395075543E+02 -0.10107367596E+02  0.10742671465E+03  0.77485776307E+02 0.  0.
          5    1    3    3  501    0  0.89430461655E+02  0.51310915694E+01 -0.17658943340E+02  0.91422447202E+02  0.47000000000E+01 0. -1.
        -11    1    4    4    0    0  0.38695402827E+02 -0.63879418599E+02 -0.35494300959E+01  0.74769731673E+02  0.00000000000E+00 0.  1.
         12    1    4    4    0    0 -0.38053647029E+02 -0.28035322095E+02  0.35326077249E+01  0.47397665075E+02  0.00000000000E+00 0. -1.
         -5    1    5    5    0  502 -0.17581759035E+02  0.73388573583E+02 -0.12210173725E+03  0.14361728734E+03  0.47000000000E+01 0.  1.
         13    1    6    6    0    0  0.22148166711E+01 -0.22866519913E+02 -0.81063262343E+01  0.24361766579E+02  0.00000000000E+00 0. -1.
        -14    1    6    6    0    0 -0.74705275089E+02  0.36261595456E+02 -0.20010413621E+01  0.83064948069E+02  0.00000000000E+00 0.  1.
</event>
<event>
12    1  0.1061634E+000  0.3265454E+03  0.7818608E-02  0.1072757E+00
         21   -1    0    0  503  502  0.00000000000E+00  0.00000000000E+00  0.12708852945E+04  0.12708852945E+04  0.00000000000E+00 0.  1.
         21   -1    0    0  501  503 -0.00000000000E+00 -0.00000000000E+00 -0.83741497052E+02  0.83741497052E+02  0.00000000000E+00 0.  1.
          6    2    1    2  501    0  0.68887672323E+02  0.26905385490E+03  0.58258455476E+03  0.66785976512E+03  0.17174520136E+03 0.  0.
         24    2    3    3    0    0  0.77334796636E+02  0.12369314408E+03  0.40906617593E+03  0.44129452518E+03  0.78262743365E+02 0.  0.
         -6    2    1    2    0  502 -0.68887672323E+02 -0.26905385490E+03  0.60455924266E+03  0.68676702640E+03  0.17035722008E+03 0.  0.
        -24    2    5    5    0    0 -0.71721245868E+02 -0.27644744542E+03  0.49700156142E+03  0.57881593046E+03  0.80313150351E+02 0.  0.
          5    1    3    3  501    0 -0.84471243125E+01  0.14536071082E+03  0.17351837883E+03  0.22656523995E+03  0.47000000000E+01 0. -1.
        -11    1    4    4    0    0  0.25889369144E+01  0.67217561433E+02  0.22377628638E+03  0.23366798990E+03  0.00000000000E+00 0.  1.
         12    1    4    4    0    0  0.74745859721E+02  0.56475582649E+02  0.18528988955E+03  0.20762653527E+03  0.00000000000E+00 0. -1.
         -5    1    5    5    0  502  0.28335735449E+01  0.73935905201E+01  0.10755768124E+03  0.10795109594E+03  0.47000000000E+01 0.  1.
         13    1    6    6    0    0 -0.73241581193E+01 -0.17488796596E+03  0.32158559977E+03  0.36613759969E+03  0.00000000000E+00 0. -1.
        -14    1    6    6    0    0 -0.64397087749E+02 -0.10155947946E+03  0.17541596165E+03  0.21267833077E+03  0.00000000000E+00 0.  1.
</event>
<event>
12    1  0.1061634E+000  0.2162313E+03  0.7818608E-02  0.1137119E+00
         21   -1    0    0  501  502  0.00000000000E+00  0.00000000000E+00  0.27515255330E+04  0.27515255330E+04  0.00000000000E+00 0. -1.
         21   -1    0    0  502  503 -0.00000000000E+00 -0.00000000000E+00 -0.77644926195E+02  0.77644926195E+02  0.00000000000E+00 0. -1.
         -6    2    1    2    0  503  0.13234309610E+03  0.81993135197E+00  0.83646862526E+02  0.22992694939E+03  0.16838716421E+03 0.  0.
        -24    2    3    3    0    0  0.11093296696E+03 -0.38622575776E+02  0.10816116865E+03  0.17857379755E+03  0.79949585681E+02 0.  0.
          6    2    1    2  501    0 -0.13234309610E+03 -0.81993135197E+00  0.25902337443E+04  0.25992435098E+04  0.17099884763E+03 0.  0.
         24    2    5    5    0    0 -0.12938067752E+03 -0.66865976682E+01  0.25851725123E+04  0.25897093729E+04  0.81814714196E+02 0.  0.
          5    1    5    5  501    0 -0.29624185797E+01  0.58666663162E+01  0.50612320040E+01  0.95341369251E+01  0.47000000000E+01 0. -1.
        -11    1    6    6    0    0 -0.18693782195E+02 -0.33775202185E+02  0.55457738680E+03  0.55591932843E+03  0.00000000000E+00 0.  1.
         12    1    6    6    0    0 -0.11068689533E+03  0.27088604516E+02  0.20305951255E+04  0.20337900445E+04  0.00000000000E+00 0. -1.
         -5    1    3    3    0  503  0.21410129145E+02  0.39442507128E+02 -0.24514306128E+02  0.51353151836E+02  0.47000000000E+01 0.  1.
         11    1    4    4    0    0 -0.12662705223E+02 -0.24755520348E+01  0.61604622641E+01  0.14297683614E+02  0.00000000000E+00 0. -1.
        -12    1    4    4    0    0  0.12359567218E+03 -0.36147023741E+02  0.10200070639E+03  0.16427611394E+03  0.00000000000E+00 0.  1.
</event>
<event>
12    1  0.1061634E+000  0.1775954E+03  0.7818608E-02  0.1170333E+00
         21   -1    0    0  501  502  0.00000000000E+00  0.00000000000E+00  0.67928357607E+03  0.67928357607E+03  0.00000000000E+00 0. -1.
         21   -1    0    0  502  503 -0.00000000000E+00 -0.00000000000E+00 -0.78405811924E+02  0.78405811924E+02  0.00000000000E+00 0. -1.
         -6    2    1    2    0  503 -0.15539702896E+02 -0.42449868495E+02  0.58150514222E+02  0.18687323237E+03  0.17174588487E+03 0.  0.
        -24    2    3    3    0    0 -0.61825741310E+01  0.66987766236E+00 -0.31086556110E+02  0.87212743264E+02  0.81246634748E+02 0.  0.
          6    2    1    2  501    0  0.15539702896E+02  0.42449868495E+02  0.54272724993E+03  0.57081615563E+03  0.17098170081E+03 0.  0.
         24    2    5    5    0    0  0.32543292051E+02  0.91579437031E+02  0.34400420743E+03  0.36535137965E+03  0.75477657209E+02 0.  0.
          5    1    5    5  501    0 -0.17003589155E+02 -0.49129568535E+02  0.19872304250E+03  0.20546477598E+03  0.47000000000E+01 0. -1.
        -13    1    6    6    0    0 -0.11962192217E+02  0.44327493551E+02  0.22653312680E+03  0.23113908857E+03  0.00000000000E+00 0.  1.
         14    1    6    6    0    0  0.44505484268E+02  0.47251943480E+02  0.11747108064E+03  0.13421229109E+03  0.00000000000E+00 0. -1.
         -5    1    3    3    0  503 -0.93571287650E+01 -0.43119746158E+02  0.89237070331E+02  0.99660489106E+02  0.47000000000E+01 0.  1.
         11    1    4    4    0    0  0.14182109833E+01  0.33052629423E+02 -0.40831468199E+02  0.52551845158E+02  0.00000000000E+00 0. -1.
        -12    1    4    4    0    0 -0.76007851144E+01 -0.32382751760E+02  0.97449120896E+01  0.34660898107E+02  0.00000000000E+00 0.  1.
</event>
<event>
12    1  0.1061634E+000  0.1885749E+03  0.7818608E-02  0.1159889E+00
         21   -1    0    0  503  502  0.00000000000E+00  0.00000000000E+00  0.38437875728E+03  0.38437875728E+03  0.00000000000E+00 0. -1.
         21   -1    0    0  501  503 -0.00000000000E+00 -0.00000000000E+00 -0.95027101182E+02  0.95027101182E+02  0.00000000000E+00 0. -1.
          6    2    1    2  501    0 -0.39792383348E+02  0.65698502821E+02  0.10326484485E+03  0.21447420683E+03  0.17156873308E+03 0.  0.
         24    2    3    3    0    0  0.16495179780E+02  0.73674069638E+02  0.16463086426E+02  0.11060633550E+03  0.79137656942E+02 0.  0.
         -6    2    1    2    0  502  0.39792383348E+02 -0.65698502821E+02  0.18608681125E+03  0.26493165163E+03  0.17222297079E+03 0.  0.
        -24    2    5    5    0    0  0.44356557969E+02 -0.15538185206E+02  0.58285896708E+02  0.12748328710E+03  0.10317850213E+03 0.  0.
          5    1    3    3  501    0 -0.56287563128E+02 -0.79755668165E+01  0.86801758424E+02  0.10386787133E+03  0.47000000000E+01 0. -1.
        -13    1    4    4    0    0  0.22124006288E+02  0.61391192958E+02  0.44840104969E+02  0.79176923663E+02  0.00000000000E+00 0.  1.
         14    1    4    4    0    0 -0.56288265080E+01  0.12282876679E+02 -0.28377018543E+02  0.31429411842E+02  0.00000000000E+00 0. -1.
         -5    1    5    5    0  502 -0.45641746214E+01 -0.50160317615E+02  0.12780091454E+03  0.13744836452E+03  0.47000000000E+01 0.  1.
         13    1    6    6    0    0  0.67953957045E+01  0.30732892620E+02  0.60116440398E+02  0.67857751935E+02  0.00000000000E+00 0. -1.
        -14    1    6    6    0    0  0.37561162264E+02 -0.46271077826E+02 -0.18305436900E+01  0.59625535168E+02  0.00000000000E+00 0.  1.
</event>
<event>
12    1  0.1061634E+000  0.2093651E+03  0.7818608E-02  0.1143688E+00
         21   -1    0    0  503  502  0.00000000000E+00  0.00000000000E+00  0.84687068875E+02  0.84687068875E+02  0.00000000000E+00 0. -1.
         21   -1    0    0  501  503 -0.00000000000E+00 -0.00000000000E+00 -0.52798902555E+03  0.52798902555E+03  0.00000000000E+00 0. -1.
          6    2    1    2  501    0 -0.51904309827E+01  0.11654327381E+03 -0.29861297945E+03  0.36469636895E+03  0.17385181848E+03 0.  0.
         24    2    3    3    0    0 -0.75764123826E+01  0.15185934456E+03 -0.23304391698E+03  0.29003506898E+03  0.81805937697E+02 0.  0.
         -6    2    1    2    0  502  0.51904309827E+01 -0.11654327381E+03 -0.14468897723E+03  0.24797972548E+03  0.16416384764E+03 0.  0.
        -24    2    5    5    0    0  0.76121526453E+00 -0.48563791292E+02 -0.63550792519E+01  0.93709879669E+02  0.79888254719E+02 0.  0.
          5    1    3    3  501    0  0.23859813999E+01 -0.35316070754E+02 -0.65569062469E+02  0.74661299974E+02  0.47000000000E+01 0. -1.
        -11    1    4    4    0    0 -0.35101859041E+02  0.47313596418E+02 -0.49175999737E+02  0.76739793226E+02  0.00000000000E+00 0.  1.
         12    1    4    4    0    0  0.27525446659E+02  0.10454574814E+03 -0.18386791724E+03  0.21329527575E+03  0.00000000000E+00 0. -1.
         -5    1    5    5    0  502  0.44292157182E+01 -0.67979482514E+02 -0.13833389798E+03  0.15426984581E+03  0.47000000000E+01 0.  1.
         11    1    6    6    0    0  0.19027547045E+02  0.16847127226E+02  0.75447863023E+00  0.25425233142E+02  0.00000000000E+00 0. -1.
        -12    1    6    6    0    0 -0.18266331781E+02 -0.65410918518E+02 -0.71095578822E+01  0.68284646527E+02  0.00000000000E+00 0.  1.
</event>
<event>
12    1  0.1061634E+000  0.2682359E+03  0.7818608E-02  0.1102351E+00
         21   -1    0    0  503  502  0.00000000000E+00  0.00000000000E+00  0.82903570649E+03  0.82903570649E+03  0.00000000000E+00 0.  1.
         21   -1    0    0  501  503 -0.00000000000E+00 -0.00000000000E+00 -0.11368550383E+03  0.11368550383E+03  0.00000000000E+00 0.  1.
          6    2    1    2  501    0  0.87305835599E+02  0.18536316822E+03  0.58729544674E+03  0.64548643991E+03  0.17249634569E+03 0.  0.
         24    2    3    3    0    0  0.52062187557E+02  0.15424156837E+03  0.56486117743E+03  0.59317912546E+03  0.79324601067E+02 0.  0.
         -6    2    1    2    0  502 -0.87305835599E+02 -0.18536316822E+03  0.12805475591E+03  0.29723477041E+03  0.17311463014E+03 0.  0.
        -24    2    5    5    0    0  0.14940880438E+02 -0.12219358518E+03  0.81645871040E+02  0.16831362491E+03  0.80677914608E+02 0.  0.
          5    1    3    3  501    0  0.35243648043E+02  0.31121599849E+02  0.22434269317E+02  0.52307314444E+02  0.47000000000E+01 0. -1.
        -11    1    4    4    0    0  0.28657490232E+02  0.20046092744E+02  0.21332318695E+03  0.21617095011E+03  0.00000000000E+00 0.  1.
         12    1    4    4    0    0  0.23404697325E+02  0.13419547562E+03  0.35153799048E+03  0.37700817536E+03  0.00000000000E+00 0. -1.
         -5    1    5    5    0  502 -0.10224671604E+03 -0.63169583036E+02  0.46408884873E+02  0.12892114550E+03  0.47000000000E+01 0.  1.
         13    1    6    6    0    0 -0.20981760389E+02 -0.41019612917E+02  0.62259778510E+02  0.77454005274E+02  0.00000000000E+00 0. -1.
        -14    1    6    6    0    0  0.35922640827E+02 -0.81173972263E+02  0.19386092530E+02  0.90859619637E+02  0.00000000000E+00 0.  1.
</event>
<event>
12    1  0.1061634E+000  0.1921743E+03  0.7818608E-02  0.1156835E+00
         21   -1    0    0  501  502  0.00000000000E+00  0.00000000000E+00  0.13821914280E+03  0.13821914280E+03  0.00000000000E+00 0. -1.
         21   -1    0    0  502  503 -0.00000000000E+00 -0.00000000000E+00 -0.29156277248E+03  0.29156277248E+03  0.00000000000E+00 0. -1.
         -6    2    1    2    0  503 -0.61336035637E+02  0.54127556405E+02 -0.11795357077E+02  0.19110453646E+03  0.17230760800E+03 0.  0.
        -24    2    3    3    0    0 -0.16334030275E+02  0.44744474700E+02 -0.70505703164E+02  0.11639029788E+03  0.79415229648E+02 0.  0.
          6    2    1    2  501    0  0.61336035637E+02 -0.54127556405E+02 -0.14154827260E+03  0.23867737882E+03  0.17389386433E+03 0.  0.
         24    2    5    5    0    0  0.10111058871E+03 -0.78828491002E+01 -0.11331866996E+03  0.17130091044E+03  0.78850431187E+02 0.  0.
          5    1    5    5  501    0 -0.39774553069E+02 -0.46244707305E+02 -0.28229602641E+02  0.67376468376E+02  0.47000000000E+01 0. -1.
        -13    1    6    6    0    0  0.74781164907E+02 -0.41575804107E+02 -0.79307004485E+02  0.11666349503E+03  0.00000000000E+00 0.  1.
         14    1    6    6    0    0  0.26329423799E+02  0.33692955007E+02 -0.34011665479E+02  0.54637415416E+02  0.00000000000E+00 0. -1.
         -5    1    3    3    0  503 -0.45002005362E+02  0.93830817048E+01  0.58710346087E+02  0.74714238580E+02  0.47000000000E+01 0.  1.
         11    1    4    4    0    0 -0.46203848120E+02  0.35692309473E+02 -0.59327705827E+02  0.83237691074E+02  0.00000000000E+00 0. -1.
        -12    1    4    4    0    0  0.29869817845E+02  0.90521652276E+01 -0.11177997337E+02  0.33152606804E+02  0.00000000000E+00 0.  1.
</event>
<event>
12    1  0.1061634E+000  0.3188061E+03  0.7818608E-02  0.1076253E+00
         21   -1    0    0  503  502  0.00000000000E+00  0.00000000000E+00  0.14930214819E+03  0.14930214819E+03  0.00000000000E+00 0.  1.
         21   -1    0    0  501  503 -0.00000000000E+00 -0.00000000000E+00 -0.10650876118E+04  0.10650876118E+04  0.00000000000E+00 0.  1.
          6    2    1    2  501    0 -0.26688994682E+03  0.22382529372E+02 -0.92890947880E+02  0.33206330567E+03  0.17293377183E+03 0.  0.
         24    2    3    3    0    0 -0.68587950528E+02 -0.56118108817E+01 -0.77690977976E+02  0.13116409237E+03  0.80201818487E+02 0.  0.
         -6    2    1    2    0  502  0.26688994682E+03 -0.22382529372E+02 -0.82289451575E+03  0.88232645435E+03  0.17208534698E+03 0.  0.
        -24    2    5    5    0    0  0.26683639355E+03 -0.52410283357E+02 -0.68642351761E+03  0.74251196220E+03  0.78729091016E+02 0.  0.
          5    1    3    3  501    0 -0.19830199629E+03  0.27994340254E+02 -0.15199969904E+02  0.20089921330E+03  0.47000000000E+01 0. -1.
        -11    1    4    4    0    0 -0.14685244742E+02  0.44801545113E+01  0.16270063595E+02  0.22370587094E+02  0.00000000000E+00 0.  1.
         12    1    4    4    0    0 -0.53902705786E+02 -0.10091965393E+02 -0.93961041571E+02  0.10879350527E+03  0.00000000000E+00 0. -1.
         -5    1    5    5    0  502  0.53553273912E-01  0.30027753984E+02 -0.13647099815E+03  0.13981449214E+03  0.47000000000E+01 0.  1.
         13    1    6    6    0    0  0.15105477886E+03  0.62845599410E+01 -0.32384960356E+03  0.35740118583E+03  0.00000000000E+00 0. -1.
        -14    1    6    6    0    0  0.11578161468E+03 -0.58694843298E+02 -0.36257391405E+03  0.38511077637E+03  0.00000000000E+00 0.  1.
</event>
<event>
12    1  0.1061634E+000  0.2181235E+03  0.7818608E-02  0.1138257E+00
         21   -1    0    0  501  502  0.00000000000E+00  0.00000000000E+00  0.75235510320E+02  0.75235510320E+02  0.00000000000E+00 0. -1.
         21   -1    0    0  502  503 -0.00000000000E+00 -0.00000000000E+00 -0.68071714704E+03  0.68071714704E+03  0.00000000000E+00 0. -1.
         -6    2    1    2    0  503 -0.85772096734E+02 -0.73348252220E+02 -0.45066444637E+03  0.50067583356E+03  0.18665751634E+03 0.  0.
        -24    2    3    3    0    0 -0.12371210981E+03 -0.88797898340E+02 -0.40030137173E+03  0.43558616123E+03  0.79400017514E+02 0.  0.
          6    2    1    2  501    0  0.85772096734E+02  0.73348252220E+02 -0.15481719035E+03  0.25527682380E+03  0.16870410682E+03 0.  0.
         24    2    5    5    0    0  0.77317740129E+01  0.56828572703E+02 -0.21415895101E+02  0.99773809822E+02  0.78783916877E+02 0.  0.
          5    1    5    5  501    0  0.78040322721E+02  0.16519679516E+02 -0.13340129525E+03  0.15550301398E+03  0.47000000000E+01 0. -1.
        -13    1    6    6    0    0  0.31555065933E+02  0.33822410490E+02 -0.40559709346E+02  0.61520465372E+02  0.00000000000E+00 0.  1.
         14    1    6    6    0    0 -0.23823291920E+02  0.23006162214E+02  0.19143814246E+02  0.38253344449E+02  0.00000000000E+00 0. -1.
         -5    1    3    3    0  503  0.37940013073E+02  0.15449646121E+02 -0.50363074636E+02  0.65089672330E+02  0.47000000000E+01 0.  1.
         13    1    4    4    0    0 -0.78880466358E+02 -0.20919263144E+02 -0.13167683896E+03  0.15491460055E+03  0.00000000000E+00 0. -1.
        -14    1    4    4    0    0 -0.44831643449E+02 -0.67878635196E+02 -0.26862453277E+03  0.28067156068E+03  0.00000000000E+00 0.  1.
</event>
<event>
12    1  0.1061634E+000  0.2020303E+03  0.7818608E-02  0.1148271E+00
         21   -1    0    0  501  502  0.00000000000E+00  0.00000000000E+00  0.13571673750E+03  0.13571673750E+03  0.00000000000E+00 0.  1.
         21   -1    0    0  502  503 -0.00000000000E+00 -0.00000000000E+00 -0.96908443104E+03  0.96908443104E+03  0.00000000000E+00 0.  1.
         -6    2    1    2    0  503  0.34054863938E+02  0.10088512381E+03 -0.87564170850E+03  0.89839537700E+03  0.17037696376E+03 0.  0.
        -24    2    3    3    0    0  0.32663528503E+02  0.10469507407E+03 -0.38017167812E+03  0.40288645423E+03  0.75888243694E+02 0.  0.
          6    2    1    2  501    0 -0.34054863938E+02 -0.10088512381E+03  0.42274014969E+02  0.20640579154E+03  0.17169367045E+03 0.  0.
         24    2    5    5    0    0  0.24592488791E+02 -0.34755839835E+02  0.69129173844E+02  0.11390777134E+03  0.79896049894E+02 0.  0.
          5    1    5    5  501    0 -0.58647352729E+02 -0.66129283976E+02 -0.26855158875E+02  0.92498020192E+02  0.47000000000E+01 0. -1.
        -11    1    6    6    0    0  0.42617007311E+02 -0.34953003720E+02  0.15389440730E+02  0.57225489663E+02  0.00000000000E+00 0.  1.
         12    1    6    6    0    0 -0.18024518520E+02  0.19716388485E+00  0.53739733114E+02  0.56682281681E+02  0.00000000000E+00 0. -1.
         -5    1    3    3    0  503  0.13913354349E+01 -0.38099502540E+01 -0.49547003039E+03  0.49550892277E+03  0.47000000000E+01 0.  1.
         11    1    4    4    0    0  0.31784454153E+02  0.90842349262E+02 -0.37639033886E+03  0.38850002720E+03  0.00000000000E+00 0. -1.
        -12    1    4    4    0    0  0.87907434993E+00  0.13852724803E+02 -0.37813392590E+01  0.14386427033E+02  0.00000000000E+00 0.  1.
</event>
<event>
12    1  0.1061634E+000  0.3168011E+03  0.7818608E-02  0.1077150E+00
         21   -1    0    0  503  502  0.00000000000E+00  0.00000000000E+00  0.11822462062E+04  0.11822462062E+04  0.00000000000E+00 0. -1.
         21   -1    0    0  501  503 -0.00000000000E+00 -0.00000000000E+00 -0.12196480593E+03  0.12196480593E+03  0.00000000000E+00 0. -1.
          6    2    1    2  501    0 -0.10704892354E+03  0.24227484704E+03  0.88996556358E+03  0.94467013607E+03  0.17379985065E+03 0.  0.
         24    2    3    3    0    0 -0.10360556299E+03  0.24431292492E+03  0.89484890540E+03  0.93679946134E+03  0.80098372582E+02 0.  0.
         -6    2    1    2    0  502  0.10704892354E+03 -0.24227484704E+03  0.17031583671E+03  0.35954087608E+03  0.17350960723E+03 0.  0.
        -24    2    5    5    0    0  0.53832417204E+02 -0.66869023082E+02  0.15341107849E+02  0.11946077235E+03  0.81646378667E+02 0.  0.
          5    1    3    3  501    0 -0.34433605563E+01 -0.20380778830E+01 -0.48833418249E+01  0.78706747333E+01  0.47000000000E+01 0. -1.
        -11    1    4    4    0    0  0.54440655393E+00  0.43444985145E+02  0.24158627391E+03  0.24546219843E+03  0.00000000000E+00 0.  1.
         12    1    4    4    0    0 -0.10414996954E+03  0.20086793978E+03  0.65326263149E+03  0.69133726291E+03  0.00000000000E+00 0. -1.
         -5    1    5    5    0  502  0.53216506340E+02 -0.17540582396E+03  0.15497472886E+03  0.24008010374E+03  0.47000000000E+01 0.  1.
         13    1    6    6    0    0  0.70854843580E+02 -0.53635862679E+02  0.29536523724E+02  0.93646253837E+02  0.00000000000E+00 0. -1.
        -14    1    6    6    0    0 -0.17022426376E+02 -0.13233160403E+02 -0.14195415875E+02  0.25814518509E+02  0.00000000000E+00 0.  1.
</event>
<event>
12    1  0.1061634E+000  0.1944590E+03  0.7818608E-02  0.1154969E+00
         21   -1    0    0  503  502  0.00000000000E+00  0.00000000000E+00  0.53942657493E+02  0.53942657493E+02  0.00000000000E+00 0. -1.
         21   -1    0    0  501  503 -0.00000000000E+00 -0.00000000000E+00 -0.73086267267E+03  0.73086267267E+03  0.00000000000E+00 0. -1.
          6    2    1    2  501    0  0.70317155394E+02 -0.44278020725E+02 -0.25131994310E+03  0.31776726282E+03  0.17581033547E+03 0.  0.
         24    2    3    3    0    0  0.27741152609E+02  0.33217789335E+02 -0.15859660457E+03  0.18955640486E+03  0.94370305533E+02 0.  0.
         -6    2    1    2    0  502 -0.70317155394E+02  0.44278020725E+02 -0.42560007208E+03  0.46703806735E+03  0.17344765647E+03 0.  0.
        -24    2    5    5    0    0 -0.35502887423E+02  0.84841886326E+02 -0.18938622076E+03  0.22480567067E+03  0.78815279347E+02 0.  0.
          5    1    3    3  501    0  0.42576002785E+02 -0.77495810060E+02 -0.92723338527E+02  0.12821085796E+03  0.47000000000E+01 0. -1.
        -11    1    4    4    0    0  0.42085852984E+02 -0.17356679770E+02 -0.10518580227E+03  0.11461468646E+03  0.00000000000E+00 0.  1.
         12    1    4    4    0    0 -0.14344700375E+02  0.50574469105E+02 -0.53410802307E+02  0.74941718403E+02  0.00000000000E+00 0. -1.
         -5    1    5    5    0  502 -0.34814267971E+02 -0.40563865601E+02 -0.23621385132E+03  0.24223239668E+03  0.47000000000E+01 0.  1.
         13    1    6    6    0    0 -0.26435037352E+02  0.92303433968E+02 -0.19017283441E+03  0.21303624591E+03  0.00000000000E+00 0. -1.
        -14    1    6    6    0    0 -0.90678500703E+01 -0.74615476414E+01  0.78661365102E+00  0.11769424758E+02  0.00000000000E+00 0.  1.
</event>
<event>
12    1  0.1061634E+000  0.1796385E+03  0.7818608E-02  0.1168192E+00
         21   -1    0    0  503  502  0.00000000000E+00  0.00000000000E+00  0.17407911371E+03  0.17407911371E+03  0.00000000000E+00 0.  1.
         21   -1    0    0  501  503 -0.00000000000E+00 -0.00000000000E+00 -0.20542296838E+03  0.20542296838E+03  0.00000000000E+00 0.  1.
          6    2    1    2  501    0 -0.36336082543E+02  0.45551947691E+02  0.43854665108E+02  0.18475917852E+03  0.16975697795E+03 0.  0.
         24    2    3    3    0    0  0.31198649288E+02  0.88217281309E+01 -0.92084197699E+01  0.91229343656E+02  0.84775111587E+02 0.  0.
         -6    2    1    2    0  502  0.36336082543E+02 -0.45551947691E+02 -0.75198519769E+02  0.19474290357E+03  0.16992554335E+03 0.  0.
        -24    2    5    5    0    0  0.17330757093E+02  0.35754182208E+02 -0.65792965520E+02  0.11058564836E+03  0.79509462479E+02 0.  0.
          5    1    3    3  501    0 -0.67534731832E+02  0.36730219561E+02  0.53063084878E+02  0.93529834862E+02  0.47000000000E+01 0. -1.
        -13    1    4    4    0    0 -0.11011633291E+02  0.37918472488E+02 -0.47163029738E+01  0.39765690454E+02  0.00000000000E+00 0.  1.
         14    1    4    4    0    0  0.42210282579E+02 -0.29096744357E+02 -0.44921167960E+01  0.51463653202E+02  0.00000000000E+00 0. -1.
         -5    1    5    5    0  502  0.19005325450E+02 -0.81306129899E+02 -0.94055542491E+01  0.84157255215E+02  0.47000000000E+01 0.  1.
         13    1    6    6    0    0 -0.27389468827E+02  0.53373644064E+01 -0.44365694645E+02  0.52411690707E+02  0.00000000000E+00 0. -1.
        -14    1    6    6    0    0  0.44720225920E+02  0.30416817801E+02 -0.21427270875E+02  0.58173957650E+02  0.00000000000E+00 0.  1.
</event>
<event>
12    1  0.1061634E+000  0.1839629E+03  0.7818608E-02  0.1164447E+00
         21   -1    0    0  501  502  0.00000000000E+00  0.00000000000E+00  0.72913140135E+03  0.72913140135E+03  0.00000000000E+00 0.  1.
         21   -1    0    0  502  503 -0.00000000000E+00 -0.00000000000E+00 -0.46048625481E+02  0.46048625481E+02  0.00000000000E+00 0.  1.
         -6    2    1    2    0  503  0.32391248624E+02  0.53035134012E+02  0.36000168538E+03  0.40428152962E+03  0.17314855844E+03 0.  0.
        -24    2    3    3    0    0  0.75076037970E+02  0.70884119440E+02  0.20703207952E+03  0.24439917337E+03  0.78788984822E+02 0.  0.
          6    2    1    2  501    0 -0.32391248624E+02 -0.53035134012E+02  0.32308109050E+03  0.37089849722E+03  0.17123780475E+03 0.  0.
         24    2    5    5    0    0  0.22673271386E+02  0.40732643855E+01  0.56696458694E+02  0.92912287861E+02  0.69910915378E+02 0.  0.
          5    1    5    5  501    0 -0.55064520010E+02 -0.57108398397E+02  0.26638463180E+03  0.27798620936E+03  0.47000000000E+01 0. -1.
        -13    1    6    6    0    0  0.43646619222E+02 -0.38364468166E+01  0.55160432452E+02  0.70444439113E+02  0.00000000000E+00 0.  1.
         14    1    6    6    0    0 -0.20973347836E+02  0.79097112021E+01  0.15360262427E+01  0.22467848748E+02  0.00000000000E+00 0. -1.
         -5    1    3    3    0  503 -0.42684789346E+02 -0.17848985428E+02  0.15296960586E+03  0.15988235624E+03  0.47000000000E+01 0.  1.
         11    1    4    4    0    0  0.35159527433E+02  0.81025550997E+02  0.14956551793E+03  0.17369852169E+03  0.00000000000E+00 0. -1.
        -12    1    4    4    0    0  0.39916510537E+02 -0.10141431557E+02  0.57466561591E+02  0.70700651684E+02  0.00000000000E+00 0.  1.
</event>
<event>
12    1  0.1061634E+000  0.3146739E+03  0.7818608E-02  0.1079722E+00
         21   -1    0    0  503  502  0.00000000000E+00  0.00000000000E+00  0.61008426907E+03  0.61008426907E+03  0.00000000000E+00 0. -1.
         21   -1    0    0  501  503 -0.00000000000E+00 -0.00000000000E+00 -0.15712053506E+03  0.15712053506E+03  0.00000000000E+00 0. -1.
          6    2    1    2  501    0 -0.25224681550E+03  0.65440266567E+01  0.19282602110E+03  0.36905488434E+03  0.18801157686E+03 0.  0.
         24    2    3    3    0    0 -0.33456907741E+02 -0.92981772736E+01  0.97923883966E+02  0.12999734986E+03  0.78130679912E+02 0.  0.
         -6    2    1    2    0  502  0.25224681550E+03 -0.65440266567E+01  0.26013771291E+03  0.39814991978E+03  0.16486494088E+03 0.  0.
        -24    2    5    5    0    0  0.18200934481E+03 -0.39488216054E+01  0.98192740962E+02  0.22154782094E+03  0.79363894773E+02 0.  0.
          5    1    3    3  501    0 -0.21878990776E+03  0.15842203930E+02  0.94902137131E+02  0.23905753448E+03  0.47000000000E+01 0. -1.
        -11    1    4    4    0    0 -0.36717728610E+02 -0.37724368740E+02  0.81448778935E+02  0.96980529907E+02  0.00000000000E+00 0.  1.
         12    1    4    4    0    0  0.32608208690E+01  0.28426191466E+02  0.16475105031E+02  0.33016819953E+02  0.00000000000E+00 0. -1.
         -5    1    5    5    0  502  0.70237470683E+02 -0.25952050513E+01  0.16194497195E+03  0.17660209884E+03  0.47000000000E+01 0.  1.
         11    1    6    6    0    0  0.75309690839E+02 -0.35787502656E+02  0.20771880226E+02  0.85928842007E+02  0.00000000000E+00 0. -1.
        -12    1    6    6    0    0  0.10669965397E+03  0.31838681050E+02  0.77420860736E+02  0.13561897893E+03  0.00000000000E+00 0.  1.
</event>
<event>
12    1  0.1061634E+000  0.2865613E+03  0.7818608E-02  0.1092351E+00
         21   -1    0    0  501  502  0.00000000000E+00  0.00000000000E+00  0.84475223654E+03  0.84475223654E+03  0.00000000000E+00 0. -1.
         21   -1    0    0  502  503 -0.00000000000E+00 -0.00000000000E+00 -0.10346734144E+03  0.10346734144E+03  0.00000000000E+00 0. -1.
         -6    2    1    2    0  503 -0.57300231076E+02  0.22066194113E+03  0.49085077014E+03  0.56764814112E+03  0.17121601802E+03 0.  0.
        -24    2    3    3    0    0 -0.29402847840E+02  0.13286854172E+03  0.16319899444E+03  0.22726053693E+03  0.80590712966E+02 0.  0.
          6    2    1    2  501    0  0.57300231076E+02 -0.22066194113E+03  0.25043412496E+03  0.38057143686E+03  0.17361554903E+03 0.  0.
         24    2    5    5    0    0  0.63962432986E+02 -0.94658460505E+02  0.20155060601E+03  0.24517221054E+03  0.80220627380E+02 0.  0.
          5    1    5    5  501    0 -0.66622019101E+01 -0.12600348062E+03  0.48883518945E+02  0.13539922632E+03  0.47000000000E+01 0. -1.
        -13    1    6    6    0    0  0.37981716722E+02 -0.22690716994E+02  0.20789599379E+02  0.48884423748E+02  0.00000000000E+00 0.  1.
         14    1    6    6    0    0  0.25980716264E+02 -0.71967743510E+02  0.18076100663E+03  0.19628778679E+03  0.00000000000E+00 0. -1.
         -5    1    3    3    0  503 -0.27897383236E+02  0.87793399407E+02  0.32765177570E+03  0.34038760420E+03  0.47000000000E+01 0.  1.
         11    1    4    4    0    0 -0.28317209582E+02  0.22392644901E+02  0.83687868876E+02  0.91142494486E+02  0.00000000000E+00 0. -1.
        -12    1    4    4    0    0 -0.10856382582E+01  0.11047589682E+03  0.79511125566E+02  0.13611804244E+03  0.00000000000E+00 0.  1.
</event>
<event>
12    1  0.1061634E+000  0.1952511E+03  0.7818608E-02  0.1153818E+00
         21   -1    0    0  503  502  0.00000000000E+00  0.00000000000E+00  0.13588739387E+04  0.13588739387E+04  0.00000000000E+00 0.  1.
         21   -1    0    0  501  503 -0.00000000000E+00 -0.00000000000E+00 -0.30215271807E+02  0.30215271807E+02  0.00000000000E+00 0.  1.
          6    2    1    2  501    0  0.27560108138E+02 -0.88790238258E+02  0.47841044472E+03  0.51671998930E+03  0.17169661546E+03 0.  0.
         24    2    3    3    0    0  0.17260747089E+01 -0.27452483008E+02  0.41770657581E+03  0.42651595834E+03  0.81734087655E+02 0.  0.
         -6    2    1    2    0  502 -0.27560108138E+02  0.88790238258E+02  0.85024822215E+03  0.87236922118E+03  0.17164717538E+03 0.  0.
        -24    2    5    5    0    0 -0.31714588175E+02  0.11655214021E+03  0.81224119863E+03  0.82488652179E+03  0.78177954621E+02 0.  0.
          5    1    3    3  501    0  0.25834033429E+02 -0.61337755250E+02  0.60703868907E+02  0.90204030966E+02  0.47000000000E+01 0. -1.
        -11    1    4    4    0    0  0.26540548869E+02 -0.12909071598E+02  0.52889747654E+02  0.60567072496E+02  0.00000000000E+00 0.  1.
         12    1    4    4    0    0 -0.24814474160E+02 -0.14543411411E+02  0.36481682816E+03  0.36594888584E+03  0.00000000000E+00 0. -1.
         -5    1    5    5    0  502  0.41544800365E+01 -0.27761901950E+02  0.38007023525E+02  0.47482699391E+02  0.47000000000E+01 0.  1.
         13    1    6    6    0    0 -0.99092420650E+01  0.10469690334E+03  0.75770255361E+03  0.76496587793E+03  0.00000000000E+00 0. -1.
        -14    1    6    6    0    0 -0.21805346110E+02  0.11855236869E+02  0.54538645017E+02  0.59920643859E+02  0.00000000000E+00 0.  1.
</event>
<event>
12    1  0.1061634E+000  0.2136220E+03  0.7818608E-02  0.1139174E+00
         21   -1    0    0  501  502  0.00000000000E+00  0.00000000000E+00  0.11141393586E+03  0.11141393586E+03  0.00000000000E+00 0.  1.
         21   -1    0    0  502  503 -0.00000000000E+00 -0.00000000000E+00 -0.99923637078E+03  0.99923637078E+03  0.00000000000E+00 0.  1.
         -6    2    1    2    0  503  0.54329990527E+02  0.11316230504E+03 -0.14780832464E+02  0.21185333945E+03  0.17001737934E+03 0.  0.
        -24    2    3    3    0    0  0.83514196046E+02  0.94776862978E+02  0.32477049493E+02  0.15315802671E+03  0.80282922862E+02 0.  0.
          6    2    1    2  501    0 -0.54329990527E+02 -0.11316230504E+03 -0.87304160245E+03  0.89879696718E+03  0.17284933746E+03 0.  0.
         24    2    5    5    0    0  0.20895356529E+02 -0.10365874133E+03 -0.43560186959E+03  0.45480960200E+03  0.76948259879E+02 0.  0.
          5    1    5    5  501    0 -0.75225347056E+02 -0.95035637039E+01 -0.43743973286E+03  0.44398736519E+03  0.47000000000E+01 0. -1.
        -13    1    6    6    0    0  0.29073356175E+02 -0.26795170681E+02 -0.63801296758E+02  0.75058954689E+02  0.00000000000E+00 0.  1.
         14    1    6    6    0    0 -0.81779996459E+01 -0.76863570654E+02 -0.37180057283E+03  0.37975064731E+03  0.00000000000E+00 0. -1.
         -5    1    3    3    0  503 -0.29184205519E+02  0.18385442060E+02 -0.47257881957E+02  0.58695312748E+02  0.47000000000E+01 0.  1.
         11    1    4    4    0    0  0.35375221032E+02  0.49536482058E+02 -0.24795074508E+02  0.65727201656E+02  0.00000000000E+00 0. -1.
        -12    1    4    4    0    0  0.48138975014E+02  0.45240380921E+02  0.57272124000E+02  0.87430825049E+02  0.00000000000E+00 0.  1.
</event>
<event>
12    1  0.1061634E+000  0.2775630E+03  0.7818608E-02  0.1097082E+00
         21   -1    0    0  503  502  0.00000000000E+00  0.00000000000E+00  0.13844620311E+03  0.13844620311E+03  0.00000000000E+00 0. -1.
         21   -1    0    0  501  503 -0.00000000000E+00 -0.00000000000E+00 -0.59056887601E+03  0.59056887601E+03  0.00000000000E+00 0. -1.
          6    2    1    2  501    0  0.14764342831E+03  0.15874839673E+03 -0.31480875345E+03  0.41969721464E+03  0.17332502803E+03 0.  0.
         24    2    3    3    0    0  0.97290383521E+02  0.23347314573E+02 -0.11641981985E+03  0.17424020997E+03  0.82435189651E+02 0.  0.
         -6    2    1    2    0  502 -0.14764342831E+03 -0.15874839673E+03 -0.13731391945E+03  0.30931786448E+03  0.17269277178E+03 0.  0.
        -24    2    5    5    0    0 -0.13580517411E+03 -0.53211035562E+02 -0.10939642251E+03  0.19940992346E+03  0.80760638288E+02 0.  0.
          5    1    3    3  501    0  0.50353044788E+02  0.13540108215E+03 -0.19838893360E+03  0.24545700467E+03  0.47000000000E+01 0. -1.
        -11    1    4    4    0    0  0.62607415111E+02  0.28837108222E+02 -0.12056837131E+03  0.13888124206E+03  0.00000000000E+00 0.  1.
         12    1    4    4    0    0  0.34682968411E+02 -0.54897936487E+01  0.41485514588E+01  0.35358967905E+02  0.00000000000E+00 0. -1.
         -5    1    5    5    0  502 -0.11838254205E+02 -0.10553736116E+03 -0.27917496935E+02  0.10990794102E+03  0.47000000000E+01 0.  1.
         11    1    6    6    0    0 -0.69628420305E+02 -0.40130130451E+02 -0.10442580345E+03  0.13176984750E+03  0.00000000000E+00 0. -1.
        -12    1    6    6    0    0 -0.66176753800E+02 -0.13080905111E+02 -0.49706190628E+01  0.67640075960E+02  0.00000000000E+00 0.  1.
</event>
<event>
12    1  0.1061634E+000  0.2418393E+03  0.7818608E-02  0.1118669E+00
         21   -1    0    0  503  502  0.00000000000E+00  0.00000000000E+00  0.91566839100E+03  0.91566839100E+03  0.00000000000E+00 0.  1.
         21   -1    0    0  501  503 -0.00000000000E+00 -0.00000000000E+00 -0.76246249702E+02  0.76246249702E+02  0.00000000000E+00 0. -1.
          6    2    1    2  501    0  0.13809969600E+03 -0.98366479939E+02  0.62031220784E+03  0.66557826125E+03  0.17163827150E+03 0.  0.
         24    2    3    3    0    0  0.11656689675E+03 -0.13485583216E+03  0.53037010990E+03  0.56604532575E+03  0.85679171536E+02 0.  0.
         -6    2    1    2    0  502 -0.13809969600E+03  0.98366479939E+02  0.21910993346E+03  0.32633637945E+03  0.17244935257E+03 0.  0.
        -24    2    5    5    0    0 -0.67836755068E+02  0.82820703934E+02  0.36934051366E+02  0.13040604990E+03  0.64656935920E+02 0.  0.
          5    1    3    3  501    0  0.21532799252E+02  0.36489352221E+02  0.89942097936E+02  0.99532935505E+02  0.47000000000E+01 0. -1.
        -13    1    4    4    0    0  0.11974022657E+03 -0.12758251191E+03  0.41467231664E+03  0.45007571518E+03  0.00000000000E+00 0.  1.
         14    1    4    4    0    0 -0.31733298260E+01 -0.72733202552E+01  0.11569779326E+03  0.11596961057E+03  0.00000000000E+00 0. -1.
         -5    1    5    5    0  502 -0.70262940933E+02  0.15545776005E+02  0.18217588209E+03  0.19593032955E+03  0.47000000000E+01 0.  1.
         13    1    6    6    0    0 -0.27975734487E+02  0.80377756756E+02  0.23957416152E+02  0.88414836367E+02  0.00000000000E+00 0. -1.
        -14    1    6    6    0    0 -0.39861020581E+02  0.24429471786E+01  0.12976635214E+02  0.41991213535E+02  0.00000000000E+00 0.  1.
</event>
<event>
12    1  0.1061634E+000  0.2697285E+03  0.7818608E-02  0.1101559E+00
         21   -1    0    0  501  502  0.00000000000E+00  0.00000000000E+00  0.16712322457E+03  0.16712322457E+03  0.00000000000E+00 0. -1.
         21   -1    0    0  502  503 -0.00000000000E+00 -0.00000000000E+00 -0.49352546237E+03  0.49352546237E+03  0.00000000000E+00 0. -1.
         -6    2    1    2    0  503  0.19902315272E+03 -0.55932424965E+02 -0.48649076605E+02  0.27408064102E+03  0.17324783879E+03 0.  0.
        -24    2    3    3    0    0  0.50420720798E+02  0.19634750891E+02  0.83642286126E+01  0.97826030268E+02  0.81069102310E+02 0.  0.
          6    2    1    2  501    0 -0.19902315272E+03  0.55932424965E+02 -0.27775316120E+03  0.38656804592E+03  0.17189934288E+03 0.  0.
         24    2    5    5    0    0 -0.65156593691E+02  0.81015004335E+02 -0.15458770119E+03  0.20288023480E+03  0.80338158317E+02 0.  0.
          5    1    5    5  501    0 -0.13386655903E+03 -0.25082579370E+02 -0.12316546001E+03  0.18368781112E+03  0.47000000000E+01 0. -1.
        -11    1    6    6    0    0 -0.27531521626E+02  0.37123729381E+01 -0.93168265605E+02  0.97221870542E+02  0.00000000000E+00 0.  1.
         12    1    6    6    0    0 -0.37625072064E+02  0.77302631397E+02 -0.61419435589E+02  0.10565836425E+03  0.00000000000E+00 0. -1.
         -5    1    3    3    0  503  0.14860243192E+03 -0.75567175856E+02 -0.57013305218E+02  0.17625461075E+03  0.47000000000E+01 0.  1.
         11    1    4    4    0    0 -0.71455079221E+01 -0.91513920967E+01 -0.23347741289E+02  0.26075338618E+02  0.00000000000E+00 0. -1.
        -12    1    4    4    0    0  0.57566228720E+02  0.28786142988E+02  0.31711969901E+02  0.71750691649E+02  0.00000000000E+00 0.  1.
</event>
<event>
12    1  0.1061634E+000  0.1741010E+03  0.7818608E-02  0.1174529E+00
         21   -1    0    0  503  502  0.00000000000E+00  0.00000000000E+00  0.80268517247E+03  0.80268517247E+03  0.00000000000E+00 0.  1.
         21   -1    0    0  501  503 -0.00000000000E+00 -0.00000000000E+00 -0.58819918867E+02  0.58819918867E+02  0.00000000000E+00 0.  1.
          6    2    1    2  501    0 -0.13068358814E+02 -0.17552943277E+02  0.11200756807E+03  0.20701899002E+03  0.17272023362E+03 0.  0.
         24    2    3    3    0    0  0.37736623728E+02 -0.59371695569E+02  0.84783754745E+02  0.13565246911E+03  0.79147054910E+02 0.  0.
         -6    2    1    2    0  502  0.13068358814E+02  0.17552943277E+02  0.63185768552E+03  0.65448610132E+03  0.16920116501E+03 0.  0.
        -24    2    5    5    0    0 -0.53543126239E+01  0.51292537006E+01  0.15959678024E+03  0.18167938018E+03  0.86494433432E+02 0.  0.
          5    1    3    3  501    0 -0.50804982542E+02  0.41818752292E+02  0.27223813329E+02  0.71366520908E+02  0.47000000000E+01 0. -1.
        -13    1    4    4    0    0  0.97518318905E+01 -0.55265638982E+02  0.11754524858E+02  0.57337229895E+02  0.00000000000E+00 0.  1.
         14    1    4    4    0    0  0.27984791838E+02 -0.41060565864E+01  0.73029229887E+02  0.78315239212E+02  0.00000000000E+00 0. -1.
         -5    1    5    5    0  502  0.18422671438E+02  0.12423689576E+02  0.47226090529E+03  0.47280672113E+03  0.47000000000E+01 0.  1.
         13    1    6    6    0    0  0.63038638252E+01 -0.31330175029E+02  0.21851381922E+02  0.38714357264E+02  0.00000000000E+00 0. -1.
        -14    1    6    6    0    0 -0.11658176449E+02  0.36459428730E+02  0.13774539831E+03  0.14296502292E+03  0.00000000000E+00 0.  1.
</event>
<event>
12    1  0.1061634E+000  0.2164239E+03  0.7818608E-02  0.1136611E+00
         21   -1    0    0  501  502  0.00000000000E+00  0.00000000000E+00  0.12817827544E+03  0.12817827544E+03  0.00000000000E+00 0. -1.
         21   -1    0    0  502  503 -0.00000000000E+00 -0.00000000000E+00 -0.47280823736E+03  0.47280823736E+03  0.00000000000E+00 0. -1.
         -6    2    1    2    0  503 -0.72007474364E+02 -0.10812791278E+03 -0.28859884146E+02  0.21816793727E+03  0.17288040390E+03 0.  0.
        -24    2    3    3    0    0 -0.45146905869E+02 -0.14124098339E+03 -0.10583252108E+02  0.17154078998E+03  0.85597773942E+02 0.  0.
          6    2    1    2  501    0  0.72007474364E+02  0.10812791278E+03 -0.31577007777E+03  0.38281857554E+03  0.17309707644E+03 0.  0.
         24    2    5    5    0    0  0.97348721318E+02  0.19497279669E+02 -0.16596639356E+03  0.20686175774E+03  0.73416793509E+02 0.  0.
          5    1    5    5  501    0 -0.25341246955E+02  0.88630633109E+02 -0.14980368421E+03  0.17595681779E+03  0.47000000000E+01 0. -1.
        -13    1    6    6    0    0  0.59560702578E+02  0.76543091219E+01 -0.33841064533E+02  0.68929553810E+02  0.00000000000E+00 0.  1.
         14    1    6    6    0    0  0.37788018740E+02  0.11842970547E+02 -0.13212532903E+03  0.13793220393E+03  0.00000000000E+00 0. -1.
         -5    1    3    3    0  503 -0.26860568495E+02  0.33113070614E+02 -0.18276632038E+02  0.46627147286E+02  0.47000000000E+01 0.  1.
         11    1    4    4    0    0  0.24380313233E+02 -0.22610524870E+02  0.29024788495E+01  0.33377535734E+02  0.00000000000E+00 0. -1.
        -12    1    4    4    0    0 -0.69527219102E+02 -0.11863045852E+03 -0.13485730958E+02  0.13816325425E+03  0.00000000000E+00 0.  1.
</event>
<event>
12    1  0.1061634E+000  0.2265003E+03  0.7818608E-02  0.1129154E+00
         21   -1    0    0  503  502  0.00000000000E+00  0.00000000000E+00  0.48082052727E+02  0.48082052727E+02  0.00000000000E+00 0. -1.
         21   -1    0    0  501  503 -0.00000000000E+00 -0.00000000000E+00 -0.15248218097E+04  0.15248218097E+04  0.00000000000E+00 0. -1.
          6    2    1    2  501    0  0.12645885811E+03 -0.75496073200E+02 -0.30693510528E+03  0.38137320796E+03  0.17188619792E+03 0.  0.
         24    2    3    3    0    0  0.37498731482E+02 -0.51877015900E+02 -0.25681163305E+03  0.27646269150E+03  0.79887578988E+02 0.  0.
         -6    2    1    2    0  502 -0.12645885811E+03  0.75496073200E+02 -0.11698046516E+04  0.11915306544E+04  0.17207811465E+03 0.  0.
        -24    2    5    5    0    0 -0.28020590578E+02 -0.18274519200E+02 -0.38205442737E+03  0.39212117088E+03  0.81696484845E+02 0.  0.
          5    1    3    3  501    0  0.88960126624E+02 -0.23619057300E+02 -0.50123472224E+02  0.10491051646E+03  0.47000000000E+01 0. -1.
        -13    1    4    4    0    0  0.49091773833E+01 -0.23760267166E+02 -0.10530864364E+02  0.26448996628E+02  0.00000000000E+00 0.  1.
         14    1    4    4    0    0  0.32589554099E+02 -0.28116748734E+02 -0.24628076869E+03  0.25001369487E+03  0.00000000000E+00 0. -1.
         -5    1    5    5    0  502 -0.98438267528E+02  0.93770592399E+02 -0.78775022428E+03  0.79940948354E+03  0.47000000000E+01 0.  1.
         13    1    6    6    0    0 -0.36515724868E+02  0.19269576868E+02 -0.11259977817E+03  0.11993091678E+03  0.00000000000E+00 0. -1.
        -14    1    6    6    0    0  0.84951342897E+01 -0.37544096067E+02 -0.26945464920E+03  0.27219025411E+03  0.00000000000E+00 0.  1.
</event>
<event>
12    1  0.1061634E+000  0.2014283E+03  0.7818608E-02  0.1149707E+00
         21   -1    0    0  503  502  0.00000000000E+00  0.00000000000E+00  0.38448270386E+03  0.38448270386E+03  0.00000000000E+00 0.  1.
         21   -1    0    0  501  503 -0.00000000000E+00 -0.00000000000E+00 -0.10593153912E+03  0.10593153912E+03  0.00000000000E+00 0.  1.
          6    2    1    2  501    0 -0.95731988792E+02  0.14984354865E+02  0.18046642059E+03  0.26637410369E+03  0.17028766715E+03 0.  0.
         24    2    3    3    0    0 -0.86679258360E+02 -0.21800004730E+02  0.48020096606E+02  0.12853666401E+03  0.78912675032E+02 0.  0.
         -6    2    1    2    0  502  0.95731988792E+02 -0.14984354865E+02  0.98084744151E+02  0.22404013930E+03  0.17659055018E+03 0.  0.
        -24    2    5    5    0    0  0.93704834533E+02 -0.18216911299E+02 -0.34570460935E+01  0.12231804759E+03  0.76402236398E+02 0.  0.
          5    1    3    3  501    0 -0.90527304316E+01  0.36784359595E+02  0.13244632399E+03  0.13783743968E+03  0.47000000000E+01 0. -1.
        -11    1    4    4    0    0 -0.28239200194E+02 -0.47598220661E+02  0.21767155865E+02  0.59471439466E+02  0.00000000000E+00 0.  1.
         12    1    4    4    0    0 -0.58440058166E+02  0.25798215932E+02  0.26252940741E+02  0.69065224544E+02  0.00000000000E+00 0. -1.
         -5    1    5    5    0  502  0.20271542591E+01  0.32325564336E+01  0.10154179024E+03  0.10172209171E+03  0.47000000000E+01 0.  1.
         13    1    6    6    0    0  0.13424407776E+02 -0.37308756756E+02 -0.34317384240E+01  0.39798679418E+02  0.00000000000E+00 0. -1.
        -14    1    6    6    0    0  0.80280426757E+02  0.19091845457E+02 -0.25307669499E-01  0.82519368173E+02  0.00000000000E+00 0.  1.
</event>
<event>
12    1  0.1061634E+000  0.2915540E+03  0.7818608E-02  0.1089651E+00
         21   -1    0    0  503  502  0.00000000000E+00  0.00000000000E+00  0.91827494581E+02  0.91827494581E+02  0.00000000000E+00 0.  1.
         21   -1    0    0  501  503 -0.00000000000E+00 -0.00000000000E+00 -0.10956848432E+04  0.10956848432E+04  0.00000000000E+00 0. -1.
          6    2    1    2  501    0 -0.17596290732E+03 -0.15637532748E+03 -0.26682424809E+03  0.39522009429E+03  0.17201033622E+03 0.  0.
         24    2    3    3    0    0 -0.74892020416E+02 -0.65327996114E+01 -0.82799350889E+02  0.13723683878E+03  0.79540714207E+02 0.  0.
         -6    2    1    2    0  502  0.17596290732E+03  0.15637532748E+03 -0.73703310057E+03  0.79229224353E+03  0.17056676121E+03 0.  0.
        -24    2    5    5    0    0  0.17309449673E+03  0.10155409959E+03 -0.43880062881E+03  0.48901301243E+03  0.79453096487E+02 0.  0.
          5    1    3    3  501    0 -0.10107088690E+03 -0.14984252786E+03 -0.18402489720E+03  0.25798325551E+03  0.47000000000E+01 0. -1.
        -11    1    4    4    0    0 -0.28572585015E+02  0.36406741574E+02 -0.35603259177E+02  0.58390371727E+02  0.00000000000E+00 0.  1.
         12    1    4    4    0    0 -0.46319435400E+02 -0.42939541185E+02 -0.47196091712E+02  0.78846467048E+02  0.00000000000E+00 0. -1.
         -5    1    5    5    0  502  0.28684105935E+01  0.54821227886E+02 -0.29823247176E+03  0.30327923111E+03  0.47000000000E+01 0.  1.
         13    1    6    6    0    0  0.18078667108E+03  0.99328729218E+02 -0.40789438588E+03  0.45708625764E+03  0.00000000000E+00 0. -1.
        -14    1    6    6    0    0 -0.76921743544E+01  0.22253703724E+01 -0.30906242921E+02  0.31926754785E+02  0.00000000000E+00 0.  1.
</event>
<event>
12    1  0.1061634E+000  0.2155985E+03  0.7818608E-02  0.1137291E+00
         21   -1    0    0  501  502  0.00000000000E+00  0.00000000000E+00  0.17071070656E+03  0.17071070656E+03  0.00000000000E+00 0. -1.
         21   -1    0    0  502  503 -0.00000000000E+00 -0.00000000000E+00 -0.27415408435E+03  0.27415408435E+03  0.00000000000E+00 0. -1.
         -6    2    1    2    0  503  0.92221862821E+02 -0.89926731180E+02 -0.30914895929E+02  0.21780370532E+03  0.17289023771E+03 0.  0.
        -24    2    3    3    0    0  0.10074721883E+03 -0.34541346492E+01 -0.25509595145E+02  0.13061712996E+03  0.79045316402E+02 0.  0.
          6    2    1    2  501    0 -0.92221862821E+02  0.89926731180E+02 -0.72528481855E+02  0.22706108560E+03  0.17235041906E+03 0.  0.
         24    2    5    5    0    0 -0.67140715630E+01  0.19032025643E+02  0.17756308031E+02  0.83844204873E+02  0.79418306825E+02 0.  0.
          5    1    5    5  501    0 -0.85507791258E+02  0.70894705538E+02 -0.90284789886E+02  0.14321688072E+03  0.47000000000E+01 0. -1.
        -13    1    6    6    0    0 -0.34061622971E+02  0.34019250611E+02  0.20939194581E+02  0.52497175555E+02  0.00000000000E+00 0.  1.
         14    1    6    6    0    0  0.27347551408E+02 -0.14987224968E+02 -0.31828865498E+01  0.31347029318E+02  0.00000000000E+00 0. -1.
         -5    1    3    3    0  503 -0.85253560136E+01 -0.86472596531E+02 -0.54053007840E+01  0.87186575357E+02  0.47000000000E+01 0.  1.
         11    1    4    4    0    0  0.12935261769E+02  0.29820273138E+02 -0.16007526072E+02  0.36232727996E+02  0.00000000000E+00 0. -1.
        -12    1    4    4    0    0  0.87811957066E+02 -0.33274407787E+02 -0.95020690728E+01  0.94384401963E+02  0.00000000000E+00 0.  1.
</event>
<event>
12    1  0.1061634E+000  0.1852941E+03  0.7818608E-02  0.1162804E+00
         21   -1    0    0  501  502  0.00000000000E+00  0.00000000000E+00  0.69630219135E+02  0.69630219135E+02  0.00000000000E+00 0.  1.
         21   -1    0    0  502  503 -0.00000000000E+00 -0.00000000000E+00 -0.49278097229E+03  0.49278097229E+03  0.00000000000E+00 0.  1.
         -6    2    1    2    0  503 -0.55754555788E+02 -0.40468366273E+02 -0.21011671229E+03  0.28014806380E+03  0.17201059766E+03 0.  0.
        -24    2    3    3    0    0 -0.34503672086E+02  0.12012132848E+02 -0.20545658489E+03  0.22314271639E+03  0.79028278974E+02 0.  0.
          6    2    1    2  501    0  0.55754555788E+02  0.40468366273E+02 -0.21303404087E+03  0.28226312763E+03  0.17187993336E+03 0.  0.
         24    2    5    5    0    0 -0.80579406312E+00  0.51989475215E+02 -0.43357702849E+02  0.10297576385E+03  0.77592285104E+02 0.  0.
          5    1    5    5  501    0  0.56560349851E+02 -0.11521108942E+02 -0.16967633802E+03  0.17928736378E+03  0.47000000000E+01 0. -1.
        -13    1    6    6    0    0 -0.16470006840E+02 -0.13182516100E+02 -0.26479002017E+02  0.33855241896E+02  0.00000000000E+00 0.  1.
         14    1    6    6    0    0  0.15664212777E+02  0.65171991315E+02 -0.16878700832E+02  0.69120521957E+02  0.00000000000E+00 0. -1.
         -5    1    3    3    0  503 -0.21250883702E+02 -0.52480499120E+02 -0.46601273957E+01  0.57005347410E+02  0.47000000000E+01 0.  1.
         11    1    4    4    0    0 -0.27247964136E+02  0.19477484065E+02 -0.23563479836E+02  0.40951941554E+02  0.00000000000E+00 0. -1.
        -12    1    4    4    0    0 -0.72557079504E+01 -0.74653512178E+01 -0.18189310506E+03  0.18219077483E+03  0.00000000000E+00 0.  1.
</event>
<event>
12    1  0.1061634E+000  0.2167493E+03  0.7818608E-02  0.1136536E+00
         21   -1    0    0  501  502  0.00000000000E+00  0.00000000000E+00  0.41294056306E+03  0.41294056306E+03  0.00000000000E+00 0. -1.
         21   -1    0    0  502  503 -0.00000000000E+00 -0.00000000000E+00 -0.11524669607E+03  0.11524669607E+03  0.00000000000E+00 0. -1.
         -6    2    1    2    0  503 -0.11082544266E+03 -0.70244559013E+02  0.11403625883E+03  0.24491737171E+03  0.17252151700E+03 0.  0.
        -24    2    3    3    0    0 -0.13676464884E+03 -0.21671177877E+02  0.73653394542E+02  0.17646971653E+03  0.80885902359E+02 0.  0.
          6    2    1    2  501    0  0.11082544266E+03  0.70244559013E+02  0.18365760816E+03  0.28326988742E+03  0.17115821707E+03 0.  0.
         24    2    5    5    0    0  0.84361688831E+02 -0.13611433759E+02  0.60225284956E+02  0.13164605617E+03  0.80008958782E+02 0.  0.
          5    1    5    5  501    0  0.26463753829E+02  0.83855992772E+02  0.12343232321E+03  0.15162383125E+03  0.47000000000E+01 0. -1.
        -13    1    6    6    0    0  0.99914000557E+02 -0.11209615447E+02  0.57026484217E+02  0.11558755507E+03  0.00000000000E+00 0.  1.
         14    1    6    6    0    0 -0.15552311726E+02 -0.24018183116E+01  0.31988007387E+01  0.16058501095E+02  0.00000000000E+00 0. -1.
         -5    1    3    3    0  503  0.25939206184E+02 -0.48573381136E+02  0.40382864284E+02  0.68447655185E+02  0.47000000000E+01 0.  1.
         13    1    4    4    0    0 -0.76017285664E+02  0.21384165915E+02  0.63480913853E+02  0.10131997185E+03  0.00000000000E+00 0. -1.
        -14    1    4    4    0    0 -0.60747363180E+02 -0.43055343792E+02  0.10172480689E+02  0.75149744682E+02  0.00000000000E+00 0.  1.
</event>
<event>
12    1  0.1061634E+000  0.3601698E+03  0.7818608E-02  0.1058656E+00
         21   -1    0    0  503  502  0.00000000000E+00  0.00000000000E+00  0.35374133218E+03  0.35374133218E+03  0.00000000000E+00 0.  1.
         21   -1    0    0  501  503 -0.00000000000E+00 -0.00000000000E+00 -0.38900785743E+03  0.38900785743E+03  0.00000000000E+00 0.  1.
          6    2    1    2  501    0 -0.66102332026E+02  0.30792042543E+03 -0.10931443927E+03  0.37504632821E+03  0.17183013407E+03 0.  0.
         24    2    3    3    0    0 -0.97855872292E+02  0.14404959989E+03 -0.64128220907E+02  0.20205552177E+03  0.79924628188E+02 0.  0.
         -6    2    1    2    0  502  0.66102332026E+02 -0.30792042543E+03  0.74047914020E+02  0.36770286140E+03  0.17475066243E+03 0.  0.
        -24    2    5    5    0    0 -0.34010739213E+01 -0.58934598940E+02  0.43864007974E+02  0.10739953178E+03  0.78267196031E+02 0.  0.
          5    1    3    3  501    0  0.31753540267E+02  0.16387082554E+03 -0.45186218358E+02  0.17299080643E+03  0.47000000000E+01 0. -1.
        -13    1    4    4    0    0 -0.99127035876E+01  0.12562208700E+02  0.17780299533E+02  0.23920907828E+02  0.00000000000E+00 0.  1.
         14    1    4    4    0    0 -0.87943168705E+02  0.13148739119E+03 -0.81908520441E+02  0.17813461394E+03  0.00000000000E+00 0. -1.
         -5    1    5    5    0  502  0.69503405947E+02 -0.24898582649E+03  0.30183906045E+02  0.26030332963E+03  0.47000000000E+01 0.  1.
         11    1    6    6    0    0 -0.15282998635E+02 -0.54649080211E+02 -0.49655771994E+01  0.56962698076E+02  0.00000000000E+00 0. -1.
        -12    1    6    6    0    0  0.11881924713E+02 -0.42855187292E+01  0.48829585174E+02  0.50436833702E+02  0.00000000000E+00 0.  1.
</event>
<event>
12    1  0.1061634E+000  0.3771588E+03  0.7818608E-02  0.1052010E+00
         21   -1    0    0  501  502  0.00000000000E+00  0.00000000000E+00  0.25408257621E+03  0.25408257621E+03  0.00000000000E+00 0.  1.
         21   -1    0    0  502  503 -0.00000000000E+00 -0.00000000000E+00 -0.12777193842E+04  0.12777193842E+04  0.00000000000E+00 0. -1.
         -6    2    1    2    0  503  0.64298904332E+02 -0.32898797976E+03 -0.10861056819E+04  0.11497279147E+04  0.17286204240E+03 0.  0.
        -24    2    3    3    0    0  0.65803007415E+02 -0.29603757513E+03 -0.76195981246E+03  0.82387422644E+03  0.78852416021E+02 0.  0.
          6    2    1    2  501    0 -0.64298904332E+02  0.32898797976E+03  0.62468873833E+02  0.38207404576E+03  0.17236814184E+03 0.  0.
         24    2    5    5    0    0 -0.21614361379E+02  0.10456365297E+03  0.76773656188E+02  0.15313089679E+03  0.78448321380E+02 0.  0.
          5    1    5    5  501    0 -0.42684542953E+02  0.22442432679E+03 -0.14304782356E+02  0.22894314897E+03  0.47000000000E+01 0. -1.
        -11    1    6    6    0    0  0.20413854200E+02  0.69878614312E+02  0.64524428786E+02  0.97278713455E+02  0.00000000000E+00 0.  1.
         12    1    6    6    0    0 -0.42028215579E+02  0.34685038658E+02  0.12249227402E+02  0.55852183336E+02  0.00000000000E+00 0. -1.
         -5    1    3    3    0  503 -0.15041030825E+01 -0.32950404627E+02 -0.32414586940E+03  0.32585368824E+03  0.47000000000E+01 0.  1.
         11    1    4    4    0    0  0.89459314414E+00 -0.98021475440E+02 -0.33045457045E+03  0.34468715247E+03  0.00000000000E+00 0. -1.
        -12    1    4    4    0    0  0.64908414271E+02 -0.19801609969E+03 -0.43150524201E+03  0.47918707397E+03  0.00000000000E+00 0.  1.
</event>
<event>
12    1  0.1061634E+000  0.2154838E+03  0.7818608E-02  0.1138497E+00
         21   -1    0    0  501  502  0.00000000000E+00  0.00000000000E+00  0.14322998975E+03  0.14322998975E+03  0.00000000000E+00 0.  1.
         21   -1    0    0  502  503 -0.00000000000E+00 -0.00000000000E+00 -0.32428937394E+03  0.32428937394E+03  0.00000000000E+00 0.  1.
         -6    2    1    2    0  503 -0.69270200740E+02  0.97207961990E+02 -0.12890245967E+03  0.24581326634E+03  0.17193187376E+03 0.  0.
        -24    2    3    3    0    0  0.28045862482E+01  0.25765148474E+01 -0.88855277570E+02  0.12021170384E+03  0.80877000787E+02 0.  0.
          6    2    1    2  501    0  0.69270200740E+02 -0.97207961990E+02 -0.52156924524E+02  0.22170609734E+03  0.17940317790E+03 0.  0.
         24    2    5    5    0    0  0.83773764543E+02 -0.92773104781E+02 -0.95394730120E+02  0.17564506008E+03  0.78269662057E+02 0.  0.
          5    1    5    5  501    0 -0.14503563803E+02 -0.44348572098E+01  0.43237805596E+02  0.46061037268E+02  0.47000000000E+01 0. -1.
        -11    1    6    6    0    0  0.26171955594E+00 -0.40804484422E+02 -0.56899839751E+02  0.70019041766E+02  0.00000000000E+00 0.  1.
         12    1    6    6    0    0  0.83512044987E+02 -0.51968620358E+02 -0.38494890369E+02  0.10562601831E+03  0.00000000000E+00 0. -1.
         -5    1    3    3    0  503 -0.72074786988E+02  0.94631447143E+02 -0.40047182101E+02  0.12560156250E+03  0.47000000000E+01 0.  1.
         13    1    4    4    0    0  0.19730318692E+02 -0.34404257942E+02 -0.51397467546E+02  0.64920244226E+02  0.00000000000E+00 0. -1.
        -14    1    4    4    0    0 -0.16925732444E+02  0.36980772789E+02 -0.37457810024E+02  0.55291459618E+02  0.00000000000E+00 0.  1.
</event>
<event>
12    1  0.1061634E+000  0.1728429E+03  0.7818608E-02  0.1175543E+00
         21   -1    0    0  503  502  0.00000000000E+00  0.00000000000E+00  0.10438758030E+02  0.10438758030E+02  0.00000000000E+00 0. -1.
         21   -1    0    0  501  503 -0.00000000000E+00 -0.00000000000E+00 -0.28750281873E+04  0.28750281873E+04  0.00000000000E+00 0. -1.
          6    2    1    2  501    0  0.16797100402E+02  0.64155675854E+01 -0.12456023626E+04  0.12575372369E+04  0.17190507398E+03 0.  0.
         24    2    3    3    0    0 -0.42895300230E+02 -0.24015198037E+02 -0.93850649870E+03  0.94318206548E+03  0.79882563990E+02 0.  0.
         -6    2    1    2    0  502 -0.16797100402E+02 -0.64155675854E+01 -0.16189870667E+04  0.16279297084E+04  0.16944825570E+03 0.  0.
        -24    2    5    5    0    0  0.49016484710E+02 -0.33782434076E+02 -0.94959049420E+03  0.95473268330E+03  0.79047588606E+02 0.  0.
          5    1    3    3  501    0  0.59692400633E+02  0.30430765622E+02 -0.30709586386E+03  0.31435517140E+03  0.47000000000E+01 0. -1.
        -11    1    4    4    0    0 -0.41553556122E+02  0.22453496047E+02 -0.49212902113E+03  0.49439036292E+03  0.00000000000E+00 0.  1.
         12    1    4    4    0    0 -0.13417441083E+01 -0.46468694084E+02 -0.44637747757E+03  0.44879170256E+03  0.00000000000E+00 0. -1.
         -5    1    5    5    0  502 -0.65813585113E+02  0.27366866491E+02 -0.66939657250E+03  0.67319702513E+03  0.47000000000E+01 0.  1.
         11    1    6    6    0    0  0.43239551987E+02  0.17921192362E+02 -0.42584568055E+03  0.42841028423E+03  0.00000000000E+00 0. -1.
        -12    1    6    6    0    0  0.57769327229E+01 -0.51703626439E+02 -0.52374481365E+03  0.52632239907E+03  0.00000000000E+00 0.  1.
</event>
<event>
12    1  0.1061634E+000  0.2396851E+03  0.7818608E-02  0.1120622E+00
         21   -1    0    0  503  502  0.00000000000E+00  0.00000000000E+00  0.22396206634E+03  0.22396206634E+03  0.00000000000E+00 0.  1.
         21   -1    0    0  501  503 -0.00000000000E+00 -0.00000000000E+00 -0.32626204600E+03  0.32626204600E+03  0.00000000000E+00 0.  1.
          6    2    1    2  501    0 -0.13336290490E+03  0.90284358130E+02 -0.18157402052E+03  0.29776952830E+03  0.17251271643E+03 0.  0.
         24    2    3    3    0    0 -0.91262195387E+02 -0.12503402738E+02 -0.71458753282E+02  0.14129187621E+03  0.79824291256E+02 0.  0.
         -6    2    1    2    0  502  0.13336290490E+03 -0.90284358130E+02  0.79274040866E+02  0.25245458404E+03  0.17751623510E+03 0.  0.
        -24    2    5    5    0    0  0.52007307797E+02 -0.11030087097E+03  0.14242993544E+02  0.14629187363E+03  0.79545001251E+02 0.  0.
          5    1    3    3  501    0 -0.42100709513E+02  0.10278776087E+03 -0.11011526724E+03  0.15647765209E+03  0.47000000000E+01 0. -1.
        -11    1    4    4    0    0 -0.41320242590E+02  0.12667377312E+02 -0.73570573356E+02  0.85325577405E+02  0.00000000000E+00 0.  1.
         12    1    4    4    0    0 -0.49941952796E+02 -0.25170780050E+02  0.21118200732E+01  0.55966298801E+02  0.00000000000E+00 0. -1.
         -5    1    5    5    0  502  0.81355597103E+02  0.20016512843E+02  0.65031047322E+02  0.10616271041E+03  0.47000000000E+01 0.  1.
         11    1    6    6    0    0  0.69493389191E+02 -0.84147031798E+02 -0.52885226075E+01  0.10926125834E+03  0.00000000000E+00 0. -1.
        -12    1    6    6    0    0 -0.17486081394E+02 -0.26153839175E+02  0.19531516152E+02  0.37030615297E+02  0.00000000000E+00 0.  1.
</event>
<event>
12    1  0.1061634E+000  0.2503421E+03  0.7818608E-02  0.1113399E+00
         21   -1    0    0  503  502  0.00000000000E+00  0.00000000000E+00  0.11095895446E+03  0.11095895446E+03  0.00000000000E+00 0. -1.
         21   -1    0    0  501  503 -0.00000000000E+00 -0.00000000000E+00 -0.70197649897E+03  0.70197649897E+03  0.00000000000E+00 0.  1.
          6    2    1    2  501    0 -0.80308009892E+02 -0.16570239770E+03 -0.11389980894E+03  0.27503513872E+03  0.16960100235E+03 0.  0.
         24    2    3    3    0    0 -0.10526263494E+03 -0.17061413650E+03 -0.12320725761E+03  0.24754737617E+03  0.76878275431E+02 0.  0.
         -6    2    1    2    0  502  0.80308009892E+02  0.16570239770E+03 -0.47711773556E+03  0.53790031471E+03  0.16669959185E+03 0.  0.
        -24    2    5    5    0    0  0.17362048296E+02  0.70794183070E+02 -0.35030216810E+03  0.36738919649E+03  0.83366393990E+02 0.  0.
          5    1    3    3  501    0  0.24954625049E+02  0.49117387973E+01  0.93074486706E+01  0.27487762551E+02  0.47000000000E+01 0. -1.
        -13    1    4    4    0    0 -0.59020482727E+02 -0.12272575275E+03 -0.11899321118E+03  0.18084361221E+03  0.00000000000E+00 0.  1.
         14    1    4    4    0    0 -0.46242152213E+02 -0.47888383747E+02 -0.42140464296E+01  0.66703763961E+02  0.00000000000E+00 0. -1.
         -5    1    5    5    0  502  0.62945961596E+02  0.94908214631E+02 -0.12681556747E+03  0.17051111822E+03  0.47000000000E+01 0.  1.
         13    1    6    6    0    0  0.23707439626E+01  0.22588902029E+02 -0.12677997815E+02  0.26011738704E+02  0.00000000000E+00 0. -1.
        -14    1    6    6    0    0  0.14991304334E+02  0.48205281040E+02 -0.33762417028E+03  0.34137745779E+03  0.00000000000E+00 0.  1.
</event>
<event>
12    1  0.1061634E+000  0.3906045E+03  0.7818608E-02  0.1047423E+00
         21   -1    0    0  503  502  0.00000000000E+00  0.00000000000E+00  0.10002706361E+03  0.10002706361E+03  0.00000000000E+00 0.  1.
         21   -1    0    0  501  503 -0.00000000000E+00 -0.00000000000E+00 -0.15255825146E+04  0.15255825146E+04  0.00000000000E+00 0.  1.
          6    2    1    2  501    0  0.31414093096E+03  0.15626814041E+03 -0.79013628832E+03  0.87973467438E+03  0.16282962560E+03 0.  0.
         24    2    3    3    0    0  0.12642834933E+03  0.83357580002E+02 -0.48333860019E+03  0.51272122154E+03  0.79587906931E+02 0.  0.
         -6    2    1    2    0  502 -0.31414093096E+03 -0.15626814041E+03 -0.63541916266E+03  0.74587490381E+03  0.17166130503E+03 0.  0.
        -24    2    5    5    0    0 -0.13351740073E+03 -0.12728796693E+03 -0.39972872827E+03  0.44748458729E+03  0.80189006964E+02 0.  0.
          5    1    3    3  501    0  0.18771258163E+03  0.72910560413E+02 -0.30679768814E+03  0.36701345284E+03  0.47000000000E+01 0. -1.
        -13    1    4    4    0    0  0.37330536292E+02  0.63591590759E+02 -0.15045132518E+03  0.16755017339E+03  0.00000000000E+00 0.  1.
         14    1    4    4    0    0  0.89097813043E+02  0.19765989243E+02 -0.33288727501E+03  0.34517104815E+03  0.00000000000E+00 0. -1.
         -5    1    5    5    0  502 -0.18062353023E+03 -0.28980173482E+02 -0.23569043439E+03  0.29839031652E+03  0.47000000000E+01 0.  1.
         11    1    6    6    0    0 -0.79999401146E+02 -0.47793348334E+02 -0.27390008197E+03  0.28931879170E+03  0.00000000000E+00 0. -1.
        -12    1    6    6    0    0 -0.53517999589E+02 -0.79494618598E+02 -0.12582864630E+03  0.15816579559E+03  0.00000000000E+00 0.  1.
</event>
<event>
12    1  0.1061634E+000  0.2478616E+03  0.7818608E-02  0.1114677E+00
         21   -1    0    0  503  502  0.00000000000E+00  0.00000000000E+00  0.10349302838E+04  0.10349302838E+04  0.00000000000E+00 0.  1.
         21   -1    0    0  501  503 -0.00000000000E+00 -0.00000000000E+00 -0.11389168121E+03  0.11389168121E+03  0.00000000000E+00 0.  1.
          6    2    1    2  501    0 -0.15566131860E+03  0.87575063363E+02  0.85809612656E+03  0.89317655473E+03  0.17185912155E+03 0.  0.
         24    2    3    3    0    0 -0.59949734591E+02  0.10379162763E+03  0.41424490874E+03  0.43880921673E+03  0.81166567210E+02 0.  0.
         -6    2    1    2    0  502  0.15566131860E+03 -0.87575063363E+02  0.62942475984E+02  0.25564541024E+03  0.17173521090E+03 0.  0.
        -24    2    5    5    0    0  0.15853767588E+03 -0.11976259988E+03  0.70886018341E+02  0.22203736354E+03  0.69271121043E+02 0.  0.
          5    1    3    3  501    0 -0.95711584011E+02 -0.16216564264E+02  0.44385121783E+03  0.45436733800E+03  0.47000000000E+01 0. -1.
        -11    1    4    4    0    0 -0.77558015897E+02  0.82376650997E+02  0.36684678195E+03  0.38389805923E+03  0.00000000000E+00 0.  1.
         12    1    4    4    0    0  0.17608281306E+02  0.21414976630E+02  0.47398126789E+02  0.54911157498E+02  0.00000000000E+00 0. -1.
         -5    1    5    5    0  502 -0.28763572741E+01  0.32187536512E+02 -0.79435423571E+01  0.33608046701E+02  0.47000000000E+01 0.  1.
         13    1    6    6    0    0  0.80951176821E+02 -0.25502329934E+02  0.49012728585E+02  0.98008721164E+02  0.00000000000E+00 0. -1.
        -14    1    6    6    0    0  0.77586499056E+02 -0.94260269941E+02  0.21873289756E+02  0.12402864238E+03  0.00000000000E+00 0.  1.
</event>
<event>
12    1  0.1061634E+000  0.1910456E+03  0.7818608E-02  0.1157798E+00
         21   -1    0    0  501  502  0.00000000000E+00  0.00000000000E+00  0.36694297021E+03  0.36694297021E+03  0.00000000000E+00 0.  1.
         21   -1    0    0  502  503 -0.00000000000E+00 -0.00000000000E+00 -0.26102645248E+03  0.26102645248E+03  0.00000000000E+00 0.  1.
         -6    2    1    2    0  503  0.17244979816E+02 -0.78963164464E+02  0.30040277552E+03  0.35534636498E+03  0.17174586136E+03 0.  0.
        -24    2    3    3    0    0  0.43517720956E+02 -0.94613308475E+02  0.29622551132E+03  0.32412580331E+03  0.80389754565E+02 0.  0.
          6    2    1    2  501    0 -0.17244979816E+02  0.78963164464E+02 -0.19448625779E+03  0.27262305771E+03  0.17310648878E+03 0.  0.
         24    2    5    5    0    0 -0.36931463435E+02  0.31459231382E+02 -0.27000971514E+02  0.97358707617E+02  0.79975304036E+02 0.  0.
          5    1    5    5  501    0  0.19686483618E+02  0.47503933082E+02 -0.16748528628E+03  0.17526435010E+03  0.47000000000E+01 0. -1.
        -11    1    6    6    0    0 -0.42034569098E+02  0.54620821171E+02 -0.25859290306E+02  0.73614142661E+02  0.00000000000E+00 0.  1.
         12    1    6    6    0    0  0.51031056632E+01 -0.23161589789E+02 -0.11416812081E+01  0.23744564956E+02  0.00000000000E+00 0. -1.
         -5    1    3    3    0  503 -0.26272741139E+02  0.15650144012E+02  0.41772641962E+01  0.31220561666E+02  0.47000000000E+01 0.  1.
         13    1    4    4    0    0  0.29328286213E+02 -0.10531541056E+03  0.27774553387E+03  0.29848629057E+03  0.00000000000E+00 0. -1.
        -14    1    4    4    0    0  0.14189434742E+02  0.10702102081E+02  0.18479977452E+02  0.25639512747E+02  0.00000000000E+00 0.  1.
</event>
<event>
12    1  0.1061634E+000  0.3750187E+03  0.7818608E-02  0.1052839E+00
         21   -1    0    0  501  502  0.00000000000E+00  0.00000000000E+00  0.79192841457E+03  0.79192841457E+03  0.00000000000E+00 0. -1.
         21   -1    0    0  502  503 -0.00000000000E+00 -0.00000000000E+00 -0.23284592503E+03  0.23284592503E+03  0.00000000000E+00 0. -1.
         -6    2    1    2    0  503 -0.30226140734E+03 -0.13897800840E+03  0.52984006909E+03  0.64912980662E+03  0.17309581696E+03 0.  0.
        -24    2    3    3    0    0 -0.22695205455E+03 -0.34470165637E+02  0.38669759464E+03  0.45650258682E+03  0.78512130852E+02 0.  0.
          6    2    1    2  501    0  0.30226140734E+03  0.13897800840E+03  0.29242420458E+02  0.37564453298E+03  0.17197921623E+03 0.  0.
         24    2    5    5    0    0  0.64713270040E+02  0.14844446886E+02  0.33300476512E+02  0.10754601294E+03  0.77775691831E+02 0.  0.
          5    1    5    5  501    0  0.23754813730E+03  0.12413356151E+03 -0.40580560545E+01  0.26809852004E+03  0.47000000000E+01 0. -1.
        -11    1    6    6    0    0  0.51185276995E+01  0.25577244822E+02  0.38789544685E+02  0.46744235531E+02  0.00000000000E+00 0.  1.
         12    1    6    6    0    0  0.59594742341E+02 -0.10732797935E+02 -0.54890681730E+01  0.60801777405E+02  0.00000000000E+00 0. -1.
         -5    1    3    3    0  503 -0.75309352792E+02 -0.10450784276E+03  0.14314247444E+03  0.19262721980E+03  0.47000000000E+01 0.  1.
         11    1    4    4    0    0 -0.10467451373E+03  0.13283115681E+02  0.22274790657E+03  0.24647479560E+03  0.00000000000E+00 0. -1.
        -12    1    4    4    0    0 -0.12227754082E+03 -0.47753281319E+02  0.16394968807E+03  0.21002779122E+03  0.00000000000E+00 0.  1.
</event>
<event>
12    1  0.1061634E+000  0.2144536E+03  0.7818608E-02  0.1138134E+00
         21   -1    0    0  501  502  0.00000000000E+00  0.00000000000E+00  0.21015436658E+04  0.21015436658E+04  0.00000000000E+00 0.  1.
         21   -1    0    0  502  503 -0.00000000000E+00 -0.00000000000E+00 -0.21859373618E+02  0.21859373618E+02  0.00000000000E+00 0.  1.
         -6    2    1    2    0  503  0.11727620434E+01  0.12747242734E+03  0.10429892562E+04  0.10648083982E+04  0.17245214170E+03 0.  0.
        -24    2    3    3    0    0  0.46201138233E+02  0.12648841576E+03  0.93318659788E+03  0.94603450915E+03  0.77525489649E+02 0.  0.
          6    2    1    2  501    0 -0.11727620434E+01 -0.12747242734E+03  0.10366950360E+04  0.10585946412E+04  0.17214941688E+03 0.  0.
         24    2    5    5    0    0 -0.68605715121E+02 -0.60230142780E+02  0.58770986344E+03  0.59959736112E+03  0.76024322651E+02 0.  0.
          5    1    5    5  501    0  0.67432953077E+02 -0.67242284562E+02  0.44898517255E+03  0.45899728012E+03  0.47000000000E+01 0. -1.
        -13    1    6    6    0    0 -0.56320124875E+01 -0.45396987927E+02  0.35933977909E+03  0.36223981409E+03  0.00000000000E+00 0.  1.
         14    1    6    6    0    0 -0.62973702633E+02 -0.14833154853E+02  0.22837008435E+03  0.23735754703E+03  0.00000000000E+00 0. -1.
         -5    1    3    3    0  503 -0.45028376190E+02  0.98401158189E+00  0.10980265836E+03  0.11877388907E+03  0.47000000000E+01 0. -1.
         11    1    4    4    0    0 -0.12333393934E+02  0.63251406464E+02  0.51852942498E+03  0.52251853325E+03  0.00000000000E+00 0. -1.
        -12    1    4    4    0    0  0.58534532167E+02  0.63237009296E+02  0.41465717290E+03  0.42351597590E+03  0.00000000000E+00 0.  1.
</event>
<event>
12    1  0.1061634E+000  0.2072199E+03  0.7818608E-02  0.1143944E+00
         21   -1    0    0  503  502  0.00000000000E+00  0.00000000000E+00  0.28576447181E+03  0.28576447181E+03  0.00000000000E+00 0. -1.
         21   -1    0    0  501  503 -0.00000000000E+00 -0.00000000000E+00 -0.16347906204E+03  0.16347906204E+03  0.00000000000E+00 0. -1.
          6    2    1    2  501    0 -0.37897931059E+02  0.10694746452E+03 -0.39627860159E+01  0.20725777297E+03  0.17339569613E+03 0.  0.
         24    2    3    3    0    0 -0.46158618187E+02  0.14318217317E+03 -0.58727543205E+01  0.16974869351E+03  0.78411586873E+02 0.  0.
         -6    2    1    2    0  502  0.37897931059E+02 -0.10694746452E+03  0.12624819579E+03  0.24198576089E+03  0.17246590442E+03 0.  0.
        -24    2    5    5    0    0  0.13557359047E+02 -0.84443525160E+02  0.56666258234E+01  0.11684226027E+03  0.79407129473E+02 0.  0.
          5    1    3    3  501    0  0.82606871280E+01 -0.36234708657E+02  0.19099683046E+01  0.37509079463E+02  0.47000000000E+01 0. -1.
        -13    1    4    4    0    0 -0.81230817324E+00 -0.51765035865E+00  0.17270151571E+02  0.17296992275E+02  0.00000000000E+00 0.  1.
         14    1    4    4    0    0 -0.45346310014E+02  0.14369982353E+03 -0.23142905892E+02  0.15245170123E+03  0.00000000000E+00 0. -1.
         -5    1    5    5    0  502  0.24340572012E+02 -0.22503939358E+02  0.12058156996E+03  0.12514350062E+03  0.47000000000E+01 0.  1.
         11    1    6    6    0    0 -0.79752197256E+01  0.94534564734E+01  0.15700382813E+02  0.19986845410E+02  0.00000000000E+00 0. -1.
        -12    1    6    6    0    0  0.21532578773E+02 -0.93896981633E+02 -0.10033756990E+02  0.96855414861E+02  0.00000000000E+00 0.  1.
</event>
<event>
12    1  0.1061634E+000  0.2169140E+03  0.7818608E-02  0.1136932E+00
         21   -1    0    0  501  502  0.00000000000E+00  0.00000000000E+00  0.23158825573E+03  0.23158825573E+03  0.00000000000E+00 0. -1.
         21   -1    0    0  502  503 -0.00000000000E+00 -0.00000000000E+00 -0.21337412831E+03  0.21337412831E+03  0.00000000000E+00 0. -1.
         -6    2    1    2    0  503 -0.12622483553E+02  0.12383807582E+03  0.65489525363E+02  0.22295645281E+03  0.17298990087E+03 0.  0.
        -24    2    3    3    0    0  0.13134840825E+02 -0.42031100941E+01  0.21910720770E+02  0.85191481719E+02  0.81162298481E+02 0.  0.
          6    2    1    2  501    0  0.12622483553E+02 -0.12383807582E+03 -0.47275397943E+02  0.22200593124E+03  0.17764142011E+03 0.  0.
         24    2    5    5    0    0  0.25142342620E+02 -0.32598342246E+02  0.30548007904E+02  0.10134107160E+03  0.87418777710E+02 0.  0.
          5    1    5    5  501    0 -0.12519859067E+02 -0.91239733575E+02 -0.77823405847E+02  0.12066485964E+03  0.47000000000E+01 0. -1.
        -11    1    6    6    0    0  0.44682627358E+02 -0.26417382851E+02 -0.12738510547E+02  0.53447964931E+02  0.00000000000E+00 0.  1.
         12    1    6    6    0    0 -0.19540284738E+02 -0.61809593946E+01  0.43286518451E+02  0.47893106668E+02  0.00000000000E+00 0. -1.
         -5    1    3    3    0  503 -0.25757324379E+02  0.12804118592E+03  0.43578804593E+02  0.13776497109E+03  0.47000000000E+01 0.  1.
         11    1    4    4    0    0  0.16330055611E+02 -0.32492465538E+02 -0.14346483034E+02  0.39092871581E+02  0.00000000000E+00 0. -1.
        -12    1    4    4    0    0 -0.31952147856E+01  0.28289355444E+02  0.36257203804E+02  0.46098610138E+02  0.00000000000E+00 0.  1.
</event>
<event>
12    1  0.1061634E+000  0.2391253E+03  0.7818608E-02  0.1121421E+00
         21   -1    0    0  501  502  0.00000000000E+00  0.00000000000E+00  0.23509149111E+03  0.23509149111E+03  0.00000000000E+00 0. -1.
         21   -1    0    0  502  503 -0.00000000000E+00 -0.00000000000E+00 -0.29680101212E+03  0.29680101212E+03  0.00000000000E+00 0. -1.
         -6    2    1    2    0  503  0.13533897498E+03  0.97075487023E+02  0.88825369971E+02  0.24932979231E+03  0.16289601179E+03 0.  0.
        -24    2    3    3    0    0  0.13784568467E+03  0.12581132491E+03  0.70373203728E+02  0.21476674251E+03  0.79639460230E+02 0.  0.
          6    2    1    2  501    0 -0.13533897498E+03 -0.97075487023E+02 -0.15053489098E+03  0.28256271091E+03  0.17158276098E+03 0.  0.
         24    2    5    5    0    0 -0.13584721125E+03 -0.66191063302E+02 -0.17511510820E+03  0.24280867953E+03  0.73858188909E+02 0.  0.
          5    1    5    5  501    0  0.50823627287E+00 -0.30884423721E+02  0.24580217219E+02  0.39754031384E+02  0.47000000000E+01 0. -1.
        -13    1    6    6    0    0 -0.10419928801E+02 -0.26255203075E+02 -0.66565644304E+01  0.29021034694E+02  0.00000000000E+00 0.  1.
         14    1    6    6    0    0 -0.12542728245E+03 -0.39935860227E+02 -0.16845854377E+03  0.21378764483E+03  0.00000000000E+00 0. -1.
         -5    1    3    3    0  503 -0.25067096965E+01 -0.28735837892E+02  0.18452166243E+02  0.34563049806E+02  0.47000000000E+01 0.  1.
         13    1    4    4    0    0  0.15995025565E+02  0.57378541026E+02  0.30505462172E+01  0.59644309412E+02  0.00000000000E+00 0. -1.
        -14    1    4    4    0    0  0.12185065911E+03  0.68432783889E+02  0.67322657511E+02  0.15512243310E+03  0.00000000000E+00 0.  1.
</event>
<event>
12    1  0.1061634E+000  0.3812702E+03  0.7818608E-02  0.1050488E+00
         21   -1    0    0  503  502  0.00000000000E+00  0.00000000000E+00  0.14789298546E+04  0.14789298546E+04  0.00000000000E+00 0.  1.
         21   -1    0    0  501  503 -0.00000000000E+00 -0.00000000000E+00 -0.98792082501E+02  0.98792082501E+02  0.00000000000E+00 0.  1.
          6    2    1    2  501    0 -0.33944856993E+03  0.12838801162E+02  0.74995071353E+03  0.84130438513E+03  0.17313817970E+03 0.  0.
         24    2    3    3    0    0 -0.24338467835E+03  0.42974431917E+02  0.64571708511E+03  0.69631070665E+03  0.82553877753E+02 0.  0.
         -6    2    1    2    0  502  0.33944856993E+03 -0.12838801162E+02  0.63018705861E+03  0.73641755201E+03  0.17258306878E+03 0.  0.
        -24    2    5    5    0    0  0.24254273151E+03 -0.41605763569E+02  0.32818930937E+03  0.41791635862E+03  0.79923987935E+02 0.  0.
          5    1    3    3  501    0 -0.96063891581E+02 -0.30135630755E+02  0.10423362842E+03  0.14499367848E+03  0.47000000000E+01 0. -1.
        -13    1    4    4    0    0 -0.58090619522E+02 -0.42192410038E+01  0.78606676704E+02  0.97833182988E+02  0.00000000000E+00 0.  1.
         14    1    4    4    0    0 -0.18529405883E+03  0.47193672921E+02  0.56711040841E+03  0.59847752366E+03  0.00000000000E+00 0. -1.
         -5    1    5    5    0  502  0.96905838423E+02  0.28766962407E+02  0.30199774924E+03  0.31850119339E+03  0.47000000000E+01 0.  1.
         13    1    6    6    0    0  0.11987799789E+03 -0.61068721403E+02  0.17166832630E+03  0.21810579398E+03  0.00000000000E+00 0. -1.
        -14    1    6    6    0    0  0.12266473362E+03  0.19462957834E+02  0.15652098307E+03  0.19981056464E+03  0.00000000000E+00 0.  1.
</event>
<event>
12    1  0.1061634E+000  0.9506966E+03  0.7818608E-02  0.9364410E-01
         21   -1    0    0  503  502  0.00000000000E+00  0.00000000000E+00  0.20072615057E+04  0.20072615057E+04  0.00000000000E+00 0.  1.
         21   -1    0    0  501  503 -0.00000000000E+00 -0.00000000000E+00 -0.55111531389E+03  0.55111531389E+03  0.00000000000E+00 0. -1.
          6    2    1    2  501    0 -0.93276617743E+03 -0.65488691648E+02  0.18065529805E+03  0.96770879449E+03  0.17170458268E+03 0.  0.
         24    2    3    3    0    0 -0.51164282025E+03 -0.97854659220E+02  0.78472809173E+02  0.53313338232E+03  0.81971407964E+02 0.  0.
         -6    2    1    2    0  502  0.93276617743E+03  0.65488691648E+02  0.12754908938E+04  0.15906680251E+04  0.17031217085E+03 0.  0.
        -24    2    5    5    0    0  0.35838315632E+03  0.55271075284E+01  0.58487876050E+03  0.69040225595E+03  0.78122179211E+02 0.  0.
          5    1    3    3  501    0 -0.42112335719E+03  0.32365967572E+02  0.10218248887E+03  0.43457541217E+03  0.47000000000E+01 0. -1.
        -11    1    4    4    0    0 -0.14379313428E+03  0.54935282591E+01  0.46365946464E+01  0.14397271383E+03  0.00000000000E+00 0.  1.
         12    1    4    4    0    0 -0.36784968597E+03 -0.10334818748E+03  0.73836214526E+02  0.38916066848E+03  0.00000000000E+00 0. -1.
         -5    1    5    5    0  502  0.57438302112E+03  0.59961584120E+02  0.69061213328E+03  0.90026576917E+03  0.47000000000E+01 0.  1.
         13    1    6    6    0    0  0.94191033706E+01  0.10025456083E+01  0.55730936268E+02  0.56530185417E+02  0.00000000000E+00 0. -1.
        -14    1    6    6    0    0  0.34896405295E+03  0.45245619201E+01  0.52914782423E+03  0.63387207053E+03  0.00000000000E+00 0.  1.
</event>
<event>
12    1  0.1061634E+000  0.1773259E+03  0.7818608E-02  0.1170638E+00
         21   -1    0    0  503  502  0.00000000000E+00  0.00000000000E+00  0.22744527691E+03  0.22744527691E+03  0.00000000000E+00 0. -1.
         21   -1    0    0  501  503 -0.00000000000E+00 -0.00000000000E+00 -0.14996004391E+03  0.14996004391E+03  0.00000000000E+00 0. -1.
          6    2    1    2  501    0 -0.18831287815E+02 -0.38381931652E+02 -0.15625905035E+02  0.17712010426E+03  0.17117117849E+03 0.  0.
         24    2    3    3    0    0 -0.22782476913E+02  0.42903465731E+02 -0.13014881459E+02  0.95561320750E+02  0.81257801213E+02 0.  0.
         -6    2    1    2    0  502  0.18831287815E+02  0.38381931652E+02  0.93111138032E+02  0.20028521656E+03  0.17209501407E+03 0.  0.
        -24    2    5    5    0    0 -0.46399465619E+02  0.55534644047E+02  0.72690351905E+02  0.12965685652E+03  0.79309558584E+02 0.  0.
          5    1    3    3  501    0  0.39511890980E+01 -0.81285397383E+02 -0.26110235759E+01  0.81558783507E+02  0.47000000000E+01 0. -1.
        -13    1    4    4    0    0 -0.27454773548E+02  0.84769702582E+01  0.29147419703E+02  0.40929154532E+02  0.00000000000E+00 0.  1.
         14    1    4    4    0    0  0.46722966348E+01  0.34426495473E+02 -0.42162301162E+02  0.54632166218E+02  0.00000000000E+00 0. -1.
         -5    1    5    5    0  502  0.65230753434E+02 -0.17152712395E+02  0.20420786126E+02  0.70628360041E+02  0.47000000000E+01 0.  1.
         13    1    6    6    0    0 -0.52584611411E+02  0.15031873765E+02  0.69671853928E+02  0.88573505157E+02  0.00000000000E+00 0. -1.
        -14    1    6    6    0    0  0.61851457917E+01  0.40502770282E+02  0.30184979776E+01  0.41083351360E+02  0.00000000000E+00 0.  1.
</event>
<event>
12    1  0.1061634E+000  0.1823602E+03  0.7818608E-02  0.1165594E+00
         21   -1    0    0  503  502  0.00000000000E+00  0.00000000000E+00  0.30793975054E+03  0.30793975054E+03  0.00000000000E+00 0. -1.
         21   -1    0    0  501  503 -0.00000000000E+00 -0.00000000000E+00 -0.11600143720E+03  0.11600143720E+03  0.00000000000E+00 0. -1.
          6    2    1    2  501    0  0.55282936051E+02  0.31666955519E+02  0.39851351306E+02  0.18666383660E+03  0.17086912713E+03 0.  0.
         24    2    3    3    0    0  0.27949429418E+02  0.86382653441E+02  0.30499860651E+02  0.12461169271E+03  0.79716366205E+02 0.  0.
         -6    2    1    2    0  502 -0.55282936051E+02 -0.31666955519E+02  0.15208696203E+03  0.23727735114E+03  0.17061974755E+03 0.  0.
        -24    2    5    5    0    0 -0.26119091751E+02  0.73121500976E+01  0.16638188751E+03  0.18632310320E+03  0.79357997698E+02 0.  0.
          5    1    3    3  501    0  0.27333506633E+02 -0.54715697922E+02  0.93514906554E+01  0.62052143890E+02  0.47000000000E+01 0. -1.
        -11    1    4    4    0    0  0.34651577742E+02  0.23077292895E+02  0.42873162400E+02  0.59761202644E+02  0.00000000000E+00 0.  1.
         12    1    4    4    0    0 -0.67021483239E+01  0.63305360546E+02 -0.12373301749E+02  0.64850490069E+02  0.00000000000E+00 0. -1.
         -5    1    5    5    0  502 -0.29163844300E+02 -0.38979105617E+02 -0.14294925484E+02  0.50954247945E+02  0.47000000000E+01 0.  1.
         13    1    6    6    0    0 -0.21663917217E+02 -0.27491931518E+02  0.13427602879E+03  0.13876304809E+03  0.00000000000E+00 0. -1.
        -14    1    6    6    0    0 -0.44551745343E+01  0.34804081615E+02  0.32105858726E+02  0.47560055107E+02  0.00000000000E+00 0.  1.
</event>
<event>
12    1  0.1061634E+000  0.2400360E+03  0.7818608E-02  0.1120721E+00
         21   -1    0    0  503  502  0.00000000000E+00  0.00000000000E+00  0.22325306533E+02  0.22325306533E+02  0.00000000000E+00 0.  1.
         21   -1    0    0  501  503 -0.00000000000E+00 -0.00000000000E+00 -0.27974156934E+04  0.27974156934E+04  0.00000000000E+00 0.  1.
          6    2    1    2  501    0 -0.16094904654E+03  0.14851657466E+02 -0.18162413388E+04  0.18313034467E+04  0.16974847725E+03 0.  0.
         24    2    3    3    0    0 -0.29195550252E+02 -0.33018245922E+02 -0.82328274408E+03  0.82848772464E+03  0.81577254505E+02 0.  0.
         -6    2    1    2    0  502  0.16094904654E+03 -0.14851657466E+02 -0.95884904801E+03  0.98843755325E+03  0.17746022794E+03 0.  0.
        -24    2    5    5    0    0  0.67883903803E+02 -0.96508595015E+01 -0.77562163596E+03  0.78281035754E+03  0.80633555109E+02 0.  0.
          5    1    3    3  501    0 -0.13175349629E+03  0.47869903387E+02 -0.99295859476E+03  0.10028157220E+04  0.47000000000E+01 0. -1.
        -13    1    4    4    0    0 -0.10254923433E+02  0.25170045774E+02 -0.38436957209E+03  0.38532929114E+03  0.00000000000E+00 0.  1.
         14    1    4    4    0    0 -0.18940626820E+02 -0.58188291696E+02 -0.43891317199E+03  0.44315843350E+03  0.00000000000E+00 0. -1.
         -5    1    5    5    0  502  0.93065142742E+02 -0.52007979640E+01 -0.18322741204E+03  0.20562719572E+03  0.47000000000E+01 0.  1.
         11    1    6    6    0    0  0.54670989170E+02 -0.16967623738E+02 -0.23126519326E+03  0.23824442685E+03  0.00000000000E+00 0. -1.
        -12    1    6    6    0    0  0.13212914633E+02  0.73167642367E+01 -0.54435644270E+03  0.54456593068E+03  0.00000000000E+00 0.  1.
</event>
<event>
12    1  0.1061634E+000  0.2701319E+03  0.7818608E-02  0.1101382E+00
         21   -1    0    0  503  502  0.00000000000E+00  0.00000000000E+00  0.23516195193E+03  0.23516195193E+03  0.00000000000E+00 0.  1.
         21   -1    0    0  501  503 -0.00000000000E+00 -0.00000000000E+00 -0.31419643101E+03  0.31419643101E+03  0.00000000000E+00 0.  1.
          6    2    1    2  501    0 -0.15615672042E+03  0.13644615085E+03 -0.75174733215E+02  0.27919892679E+03  0.17116754013E+03 0.  0.
         24    2    3    3    0    0 -0.15898879379E+03  0.12781652483E+03 -0.15594584946E+02  0.21874749874E+03  0.77413025753E+02 0.  0.
         -6    2    1    2    0  502  0.15615672042E+03 -0.13644615085E+03 -0.38597458673E+01  0.27015945615E+03  0.17311487716E+03 0.  0.
        -24    2    5    5    0    0  0.16152936083E+03 -0.84352201046E+02  0.39460081342E+02  0.20203205857E+03  0.77799912848E+02 0.  0.
          5    1    3    3  501    0  0.28320733709E+01  0.86296260111E+01 -0.59580148269E+02  0.60451428043E+02  0.47000000000E+01 0. -1.
        -11    1    4    4    0    0 -0.20180314896E+02  0.60778820123E+02 -0.48228176367E+01  0.64222812573E+02  0.00000000000E+00 0.  1.
         12    1    4    4    0    0 -0.13880847889E+03  0.67037704711E+02 -0.10771767309E+02  0.15452468617E+03  0.00000000000E+00 0. -1.
         -5    1    5    5    0  502 -0.53726404164E+01 -0.52093949799E+02 -0.43319827209E+02  0.68127397574E+02  0.47000000000E+01 0. -1.
         13    1    6    6    0    0  0.11571435044E+03 -0.95908596993E+02  0.36652653072E+02  0.15469869699E+03  0.00000000000E+00 0. -1.
        -14    1    6    6    0    0  0.45815010396E+02  0.11556395948E+02  0.28074282697E+01  0.47333361579E+02  0.00000000000E+00 0.  1.
</event>
<event>
12    1  0.1061634E+000  0.1964926E+03  0.7818608E-02  0.1152789E+00
         21   -1    0    0  501  502  0.00000000000E+00  0.00000000000E+00  0.61408413335E+02  0.61408413335E+02  0.00000000000E+00 0.  1.
         21   -1    0    0  502  503 -0.00000000000E+00 -0.00000000000E+00 -0.66377273547E+03  0.66377273547E+03  0.00000000000E+00 0.  1.
         -6    2    1    2    0  503 -0.17943545088E+02  0.93201501096E+02 -0.38528724593E+03  0.43238125163E+03  0.17175213032E+03 0.  0.
        -24    2    3    3    0    0  0.43274758197E+02  0.17665677017E+02 -0.13558995681E+03  0.16438093900E+03  0.80322324902E+02 0.  0.
          6    2    1    2  501    0  0.17943545088E+02 -0.93201501096E+02 -0.21707707620E+03  0.29279989717E+03  0.17204892372E+03 0.  0.
         24    2    5    5    0    0  0.56732496539E+02  0.59623763800E+01 -0.67675707093E+02  0.10927628440E+03  0.64087275703E+02 0.  0.
          5    1    5    5  501    0 -0.38788951451E+02 -0.99163877476E+02 -0.14940136911E+03  0.18352361277E+03  0.47000000000E+01 0. -1.
        -13    1    6    6    0    0  0.53965974153E+02 -0.19917425812E+02 -0.57488907595E+02  0.81326531425E+02  0.00000000000E+00 0.  1.
         14    1    6    6    0    0  0.27665223865E+01  0.25879802192E+02 -0.10186799498E+02  0.27949752979E+02  0.00000000000E+00 0. -1.
         -5    1    3    3    0  503 -0.61218303285E+02  0.75535824079E+02 -0.24969728912E+03  0.26800031263E+03  0.47000000000E+01 0.  1.
         13    1    4    4    0    0 -0.11797821703E+02 -0.17303212618E+02 -0.64871064323E+02  0.68167769145E+02  0.00000000000E+00 0. -1.
        -14    1    4    4    0    0  0.55072579901E+02  0.34968889635E+02 -0.70718892490E+02  0.96213169858E+02  0.00000000000E+00 0.  1.
</event>
<event>
12    1  0.1061634E+000  0.3512178E+03  0.7818608E-02  0.1062328E+00
         21   -1    0    0  503  502  0.00000000000E+00  0.00000000000E+00  0.27852143169E+03  0.27852143169E+03  0.00000000000E+00 0.  1.
         21   -1    0    0  501  503 -0.00000000000E+00 -0.00000000000E+00 -0.44705151359E+03  0.44705151359E+03  0.00000000000E+00 0.  1.
          6    2    1    2  501    0  0.13796241104E+03  0.27010359798E+03 -0.39877733695E+02  0.35347441729E+03  0.17709982928E+03 0.  0.
         24    2    3    3    0    0  0.79485591034E+02  0.51137291188E+02 -0.12937833697E+01  0.12352530724E+03  0.79522612647E+02 0.  0.
         -6    2    1    2    0  502 -0.13796241104E+03 -0.27010359798E+03 -0.12865234820E+03  0.37209852799E+03  0.17296331210E+03 0.  0.
        -24    2    5    5    0    0 -0.15705274647E+03 -0.17770102919E+03 -0.64422388779E+02  0.25786082268E+03  0.78094422024E+02 0.  0.
          5    1    3    3  501    0  0.58476820005E+02  0.21896630680E+03 -0.38583950326E+02  0.22994911005E+03  0.47000000000E+01 0. -1.
        -11    1    4    4    0    0  0.62204256891E+01  0.38012090574E+01  0.29986226052E+02  0.30859627977E+02  0.00000000000E+00 0.  1.
         12    1    4    4    0    0  0.73265165345E+02  0.47336082130E+02 -0.31280009422E+02  0.92665679267E+02  0.00000000000E+00 0. -1.
         -5    1    5    5    0  502  0.19090335429E+02 -0.92402568793E+02 -0.64229959417E+02  0.11423770530E+03  0.47000000000E+01 0.  1.
         13    1    6    6    0    0 -0.28187154147E+02 -0.14825553290E+02  0.15380324301E+02  0.35367599083E+02  0.00000000000E+00 0. -1.
        -14    1    6    6    0    0 -0.12886559232E+03 -0.16287547590E+03 -0.79802713080E+02  0.22249322360E+03  0.00000000000E+00 0.  1.
</event>
<event>
12    1  0.1061634E+000  0.2864293E+03  0.7818608E-02  0.1092353E+00
         21   -1    0    0  501  502  0.00000000000E+00  0.00000000000E+00  0.32653059838E+03  0.32653059838E+03  0.00000000000E+00 0. -1.
         21   -1    0    0  502  503 -0.00000000000E+00 -0.00000000000E+00 -0.43344504470E+03  0.43344504470E+03  0.00000000000E+00 0. -1.
         -6    2    1    2    0  503 -0.21912921414E+03  0.69138555199E+02 -0.30042410789E+03  0.41508598920E+03  0.17100871769E+03 0.  0.
        -24    2    3    3    0    0 -0.14576040004E+03 -0.20433115389E+02 -0.14734570703E+03  0.22309340116E+03  0.79976883129E+02 0.  0.
          6    2    1    2  501    0  0.21912921414E+03 -0.69138555199E+02  0.19350966158E+03  0.34488965387E+03  0.16942588916E+03 0.  0.
         24    2    5    5    0    0  0.78199664057E+02  0.32682552698E+00  0.26326088998E+02  0.11541413416E+03  0.80697367545E+02 0.  0.
          5    1    5    5  501    0  0.14092955009E+03 -0.69465380726E+02  0.16718357258E+03  0.22947551971E+03  0.47000000000E+01 0. -1.
        -13    1    6    6    0    0  0.94379167108E+02  0.15774122440E+01  0.14885200126E+02  0.95558801772E+02  0.00000000000E+00 0.  1.
         14    1    6    6    0    0 -0.16179503050E+02 -0.12505867170E+01  0.11440888872E+02  0.19855332389E+02  0.00000000000E+00 0. -1.
         -5    1    3    3    0  503 -0.73368814102E+02  0.89571670587E+02 -0.15307840086E+03  0.19199258805E+03  0.47000000000E+01 0.  1.
         13    1    4    4    0    0 -0.49690085152E+02 -0.27814605210E+02 -0.14108899655E+02  0.58667008402E+02  0.00000000000E+00 0. -1.
        -14    1    4    4    0    0 -0.96070314889E+02  0.73814898211E+01 -0.13323680737E+03  0.16442639275E+03  0.00000000000E+00 0.  1.
</event>
<event>
12    1  0.1061634E+000  0.1934038E+03  0.7818608E-02  0.1155891E+00
         21   -1    0    0  501  502  0.00000000000E+00  0.00000000000E+00  0.85041317928E+03  0.85041317928E+03  0.00000000000E+00 0. -1.
         21   -1    0    0  502  503 -0.00000000000E+00 -0.00000000000E+00 -0.49692927059E+02  0.49692927059E+02  0.00000000000E+00 0. -1.
         -6    2    1    2    0  503  0.82587691921E+02 -0.15570604438E+02  0.23969302889E+03  0.30667828056E+03  0.17185938756E+03 0.  0.
        -24    2    3    3    0    0  0.84964234730E+02 -0.42948709883E+02  0.89224462661E+02  0.15364858398E+03  0.81137967424E+02 0.  0.
          6    2    1    2  501    0 -0.82587691921E+02  0.15570604438E+02  0.56102722332E+03  0.59342782577E+03  0.17418917448E+03 0.  0.
         24    2    5    5    0    0 -0.12538264474E+03  0.11295080073E+02  0.41248184349E+03  0.43871031556E+03  0.80480328860E+02 0.  0.
          5    1    5    5  501    0  0.42794952820E+02  0.42755243650E+01  0.14854537984E+03  0.15471751022E+03  0.47000000000E+01 0. -1.
        -11    1    6    6    0    0 -0.88566416403E+02 -0.26064591182E+01  0.15752691130E+03  0.18073608253E+03  0.00000000000E+00 0.  1.
         12    1    6    6    0    0 -0.36816228338E+02  0.13901539191E+02  0.25495493218E+03  0.25797423303E+03  0.00000000000E+00 0. -1.
         -5    1    3    3    0  503 -0.23765428091E+01  0.27378105445E+02  0.15046856623E+03  0.15302969659E+03  0.47000000000E+01 0.  1.
         13    1    4    4    0    0  0.15959927933E+02  0.16974169692E+01  0.66453774330E+02  0.68364498438E+02  0.00000000000E+00 0. -1.
        -14    1    4    4    0    0  0.69004306797E+02 -0.44646126853E+02  0.22770688331E+02  0.85284085541E+02  0.00000000000E+00 0.  1.
</event>
<event>
12    1  0.1061634E+000  0.1846727E+03  0.7818608E-02  0.1163486E+00
         21   -1    0    0  501  502  0.00000000000E+00  0.00000000000E+00  0.44586718681E+03  0.44586718681E+03  0.00000000000E+00 0. -1.
         21   -1    0    0  502  503 -0.00000000000E+00 -0.00000000000E+00 -0.85804035213E+02  0.85804035213E+02  0.00000000000E+00 0. -1.
         -6    2    1    2    0  503 -0.64172409345E+02  0.22352908577E+02  0.91127136678E+02  0.20543418872E+03  0.17111779631E+03 0.  0.
        -24    2    3    3    0    0  0.27275369336E+02  0.10638757912E+01  0.21662571739E+02  0.88543919990E+02  0.81398287136E+02 0.  0.
          6    2    1    2  501    0  0.64172409345E+02 -0.22352908577E+02  0.26893601492E+03  0.32623703330E+03  0.17171566944E+03 0.  0.
         24    2    5    5    0    0  0.43537398887E+02 -0.63778744165E+01  0.46574322208E+02  0.10229994892E+03  0.79749167248E+02 0.  0.
          5    1    5    5  501    0  0.20635010458E+02 -0.15975034161E+02  0.22236169271E+03  0.22393708438E+03  0.47000000000E+01 0. -1.
        -13    1    6    6    0    0  0.60779944711E+01 -0.29536490615E+02  0.49717463619E+02  0.58147850204E+02  0.00000000000E+00 0.  1.
         14    1    6    6    0    0  0.37459404415E+02  0.23158616199E+02 -0.31431414108E+01  0.44152098719E+02  0.00000000000E+00 0. -1.
         -5    1    3    3    0  503 -0.91447778681E+02  0.21289032786E+02  0.69464564939E+02  0.11689026873E+03  0.47000000000E+01 0.  1.
         13    1    4    4    0    0 -0.13833225971E+02 -0.13269763737E+02 -0.20410390324E+02  0.28000514345E+02  0.00000000000E+00 0. -1.
        -14    1    4    4    0    0  0.41108595308E+02  0.14333639529E+02  0.42072962063E+02  0.60543405645E+02  0.00000000000E+00 0.  1.
</event>
<event>
12    1  0.1061634E+000  0.2049000E+03  0.7818608E-02  0.1146150E+00
         21   -1    0    0  503  502  0.00000000000E+00  0.00000000000E+00  0.33062879253E+03  0.33062879253E+03  0.00000000000E+00 0. -1.
         21   -1    0    0  501  503 -0.00000000000E+00 -0.00000000000E+00 -0.12641933417E+03  0.12641933417E+03  0.00000000000E+00 0. -1.
          6    2    1    2  501    0  0.76632661158E+02 -0.77228552390E+02  0.12174710468E+03  0.23834082705E+03  0.17362942804E+03 0.  0.
         24    2    3    3    0    0  0.75174550013E+02  0.59090753233E+01  0.27757173719E+02  0.11276141651E+03  0.79110974080E+02 0.  0.
         -6    2    1    2    0  502 -0.76632661158E+02  0.77228552390E+02  0.82462353683E+02  0.21870729964E+03  0.17086845549E+03 0.  0.
        -24    2    5    5    0    0 -0.11918582656E+03  0.68237932030E+02  0.63809626520E+02  0.17115083456E+03  0.79744988024E+02 0.  0.
          5    1    3    3  501    0  0.14581111450E+01 -0.83137627713E+02  0.93989930959E+02  0.12557941054E+03  0.47000000000E+01 0. -1.
        -13    1    4    4    0    0  0.25614721180E+02 -0.34849057117E+02  0.21473507524E+02  0.48287495777E+02  0.00000000000E+00 0.  1.
         14    1    4    4    0    0  0.49559828833E+02  0.40758132440E+02  0.62836661959E+01  0.64473920734E+02  0.00000000000E+00 0. -1.
         -5    1    5    5    0  502  0.42553165402E+02  0.89906203595E+01  0.18652727163E+02  0.47556465079E+02  0.47000000000E+01 0.  1.
         11    1    6    6    0    0 -0.38099310726E+02  0.44002156275E+02 -0.97551892665E+01  0.59016192289E+02  0.00000000000E+00 0. -1.
        -12    1    6    6    0    0 -0.81086515833E+02  0.24235775755E+02  0.73564815787E+02  0.11213464228E+03  0.00000000000E+00 0.  1.
</event>
<event>
12    1  0.1061634E+000  0.2179706E+03  0.7818608E-02  0.1135569E+00
         21   -1    0    0  501  502  0.00000000000E+00  0.00000000000E+00  0.60458150214E+03  0.60458150214E+03  0.00000000000E+00 0.  1.
         21   -1    0    0  502  503 -0.00000000000E+00 -0.00000000000E+00 -0.85183384685E+02  0.85183384685E+02  0.00000000000E+00 0.  1.
         -6    2    1    2    0  503 -0.68975871474E+02  0.11713948588E+03  0.35840509250E+03  0.41948229942E+03  0.17038737982E+03 0.  0.
        -24    2    3    3    0    0 -0.18748399322E+02  0.13056176261E+03  0.31844982324E+03  0.35374441071E+03  0.79542076007E+02 0.  0.
          6    2    1    2  501    0  0.68975871474E+02 -0.11713948588E+03  0.16099302496E+03  0.27028258740E+03  0.16927667580E+03 0.  0.
         24    2    5    5    0    0  0.84419784523E+02 -0.14334006912E+03  0.13299030743E+03  0.22867456893E+03  0.83262003176E+02 0.  0.
          5    1    5    5  501    0 -0.15443913049E+02  0.26200583233E+02  0.28002717526E+02  0.41608018468E+02  0.47000000000E+01 0. -1.
        -11    1    6    6    0    0 -0.16400855904E+02 -0.14597628130E+02  0.10353569090E+02  0.24274991541E+02  0.00000000000E+00 0.  1.
         12    1    6    6    0    0  0.10082064043E+03 -0.12874244099E+03  0.12263673834E+03  0.20439957739E+03  0.00000000000E+00 0. -1.
         -5    1    3    3    0  503 -0.50227472152E+02 -0.13422276722E+02  0.39955269262E+02  0.65737888717E+02  0.47000000000E+01 0.  1.
         11    1    4    4    0    0 -0.40525456494E+02  0.12515210542E+03  0.26914716324E+03  0.29957562918E+03  0.00000000000E+00 0. -1.
        -12    1    4    4    0    0  0.21777057172E+02  0.54096571830E+01  0.49302659992E+02  0.54168781528E+02  0.00000000000E+00 0.  1.
</event>
<event>
12    1  0.1061634E+000  0.1791721E+03  0.7818608E-02  0.1169079E+00
         21   -1    0    0  501  502  0.00000000000E+00  0.00000000000E+00  0.46318273355E+03  0.46318273355E+03  0.00000000000E+00 0. -1.
         21   -1    0    0  502  503 -0.00000000000E+00 -0.00000000000E+00 -0.74208135867E+02  0.74208135867E+02  0.00000000000E+00 0. -1.
         -6    2    1    2    0  503 -0.16152190482E+02 -0.41589284123E+02  0.26761007283E+03  0.32098385536E+03  0.17153694211E+03 0.  0.
        -24    2    3    3    0    0 -0.42680392190E+02 -0.83733459960E+02  0.19630691410E+03  0.23388559196E+03  0.85633856661E+02 0.  0.
          6    2    1    2  501    0  0.16152190482E+02  0.41589284123E+02  0.12136452485E+03  0.21640701405E+03  0.17352834359E+03 0.  0.
         24    2    5    5    0    0 -0.33390010656E+01  0.15832863693E+02 -0.10222051017E+02  0.80832618650E+02  0.78534027084E+02 0.  0.
          5    1    5    5  501    0  0.19491191547E+02  0.25756420429E+02  0.13158657586E+03  0.13557439540E+03  0.47000000000E+01 0. -1.
        -11    1    6    6    0    0 -0.23356364106E+02  0.84525988338E+01  0.27771497881E+02  0.37258854865E+02  0.00000000000E+00 0.  1.
         12    1    6    6    0    0  0.20017363040E+02  0.73802648595E+01 -0.37993548899E+02  0.43573763785E+02  0.00000000000E+00 0. -1.
         -5    1    3    3    0  503  0.26528201708E+02  0.42144175838E+02  0.71303158733E+02  0.87098263405E+02  0.47000000000E+01 0.  1.
         13    1    4    4    0    0  0.59857244218E+01  0.14306611904E+02  0.12334751194E+02  0.19815502215E+02  0.00000000000E+00 0. -1.
        -14    1    4    4    0    0 -0.48666116611E+02 -0.98040071864E+02  0.18397216291E+03  0.21407008974E+03  0.00000000000E+00 0.  1.
</event>
<event>
12    1  0.1061634E+000  0.1765708E+03  0.7818608E-02  0.1171996E+00
         21   -1    0    0  501  502  0.00000000000E+00  0.00000000000E+00  0.13151368683E+03  0.13151368683E+03  0.00000000000E+00 0.  1.
         21   -1    0    0  502  503 -0.00000000000E+00 -0.00000000000E+00 -0.33973041803E+03  0.33973041803E+03  0.00000000000E+00 0.  1.
         -6    2    1    2    0  503  0.15084478385E+02 -0.22382948857E+02  0.28860434241E+02  0.17563825742E+03  0.17113542858E+03 0.  0.
        -24    2    3    3    0    0 -0.31226061587E+02 -0.66366897010E+02  0.43502665605E+01  0.10706645470E+03  0.77875984504E+02 0.  0.
          6    2    1    2  501    0 -0.15084478385E+02  0.22382948857E+02 -0.23707716543E+03  0.29560584744E+03  0.17449554947E+03 0.  0.
         24    2    5    5    0    0 -0.37431905684E+02  0.73351947626E+01 -0.57741668171E+02  0.11419704670E+03  0.90840038451E+02 0.  0.
          5    1    5    5  501    0  0.22347427299E+02  0.15047754094E+02 -0.17933549726E+03  0.18140880075E+03  0.47000000000E+01 0. -1.
        -11    1    6    6    0    0 -0.54194334572E+02  0.21851781712E+02 -0.68090494068E+02  0.89726482413E+02  0.00000000000E+00 0.  1.
         12    1    6    6    0    0  0.16762428888E+02 -0.14516586949E+02  0.10348825898E+02  0.24470564284E+02  0.00000000000E+00 0. -1.
         -5    1    3    3    0  503  0.46310539972E+02  0.43983948153E+02  0.24510167680E+02  0.68571802713E+02  0.47000000000E+01 0.  1.
         13    1    4    4    0    0 -0.25496924186E+02 -0.17245605614E+02  0.36754431983E+02  0.47941551147E+02  0.00000000000E+00 0. -1.
        -14    1    4    4    0    0 -0.57291374008E+01 -0.49121291396E+02 -0.32404165423E+02  0.59124903556E+02  0.00000000000E+00 0.  1.
</event>
<event>
12    1  0.1061634E+000  0.1846368E+03  0.7818608E-02  0.1163429E+00
         21   -1    0    0  503  502  0.00000000000E+00  0.00000000000E+00  0.90499844954E+02  0.90499844954E+02  0.00000000000E+00 0.  1.
         21   -1    0    0  501  503 -0.00000000000E+00 -0.00000000000E+00 -0.37871609714E+03  0.37871609714E+03  0.00000000000E+00 0.  1.
          6    2    1    2  501    0 -0.61709030666E+02  0.25306716687E+02 -0.12549777624E+03  0.22311016954E+03  0.17198843431E+03 0.  0.
         24    2    3    3    0    0 -0.11103241725E+03  0.96369295269E+01 -0.11402401623E+03  0.16989291799E+03  0.58660542230E+02 0.  0.
         -6    2    1    2    0  502  0.61709030666E+02 -0.25306716687E+02 -0.16271847594E+03  0.24610577255E+03  0.17216943543E+03 0.  0.
        -24    2    5    5    0    0  0.86342509478E+02  0.27970716170E+02 -0.13669689213E+03  0.18172793510E+03  0.78112816957E+02 0.  0.
          5    1    3    3  501    0  0.49323386584E+02  0.15669787161E+02 -0.11473760010E+02  0.53217251550E+02  0.47000000000E+01 0. -1.
        -11    1    4    4    0    0 -0.44125549899E+01  0.10408054885E+02  0.28827513686E+01  0.11666554911E+02  0.00000000000E+00 0.  1.
         12    1    4    4    0    0 -0.10661986226E+03 -0.77112535851E+00 -0.11690676760E+03  0.15822636308E+03  0.00000000000E+00 0. -1.
         -5    1    5    5    0  502 -0.24633478813E+02 -0.53277432858E+02 -0.26021583811E+02  0.64377837447E+02  0.47000000000E+01 0.  1.
         13    1    6    6    0    0  0.82082964183E+02  0.47806303918E+02 -0.90178147165E+02  0.13097768485E+03  0.00000000000E+00 0. -1.
        -14    1    6    6    0    0  0.42595452959E+01 -0.19835587748E+02 -0.46518744964E+02  0.50750250250E+02  0.00000000000E+00 0.  1.
</event>
<event>
12    1  0.1061634E+000  0.3084321E+03  0.7818608E-02  0.1081264E+00
         21   -1    0    0  501  502  0.00000000000E+00  0.00000000000E+00  0.14568597096E+04  0.14568597096E+04  0.00000000000E+00 0.  1.
         21   -1    0    0  502  503 -0.00000000000E+00 -0.00000000000E+00 -0.68840203757E+02  0.68840203757E+02  0.00000000000E+00 0.  1.
         -6    2    1    2    0  503  0.13742524629E+03  0.21363843155E+03  0.87248097295E+03  0.92494178147E+03  0.17253165854E+03 0.  0.
        -24    2    3    3    0    0  0.12152579859E+03  0.22258736766E+03  0.65806733941E+03  0.70970197999E+03  0.79439418637E+02 0.  0.
          6    2    1    2  501    0 -0.13742524629E+03 -0.21363843155E+03  0.51553853294E+03  0.60075813193E+03  0.17493792152E+03 0.  0.
         24    2    5    5    0    0 -0.47327785161E+02 -0.15455227604E+03  0.41783646951E+03  0.45523662331E+03  0.80788258230E+02 0.  0.
          5    1    5    5  501    0 -0.90097461131E+02 -0.59086155504E+02  0.97702063430E+02  0.14552150863E+03  0.47000000000E+01 0. -1.
        -11    1    6    6    0    0 -0.25571760148E+02 -0.86601019178E+02  0.12733839604E+03  0.15610483191E+03  0.00000000000E+00 0.  1.
         12    1    6    6    0    0 -0.21756025013E+02 -0.67951256866E+02  0.29049807347E+03  0.29913179139E+03  0.00000000000E+00 0. -1.
         -5    1    3    3    0  503  0.15899447701E+02 -0.89489361160E+01  0.21441363354E+03  0.21523980148E+03  0.47000000000E+01 0.  1.
         13    1    4    4    0    0  0.51571920280E+02  0.64587264420E+02  0.31382414364E+03  0.32452545481E+03  0.00000000000E+00 0. -1.
        -14    1    4    4    0    0  0.69953878311E+02  0.15800010324E+03  0.34424319577E+03  0.38517652518E+03  0.00000000000E+00 0.  1.
</event>
<event>
12    1  0.1061634E+000  0.1784406E+03  0.7818608E-02  0.1169866E+00
         21   -1    0    0  501  502  0.00000000000E+00  0.00000000000E+00  0.75575527493E+02  0.75575527493E+02  0.00000000000E+00 0. -1.
         21   -1    0    0  502  503 -0.00000000000E+00 -0.00000000000E+00 -0.47752269821E+03  0.47752269821E+03  0.00000000000E+00 0. -1.
         -6    2    1    2    0  503  0.52753128775E+01  0.44001049001E+02 -0.10070315422E+03  0.20297110596E+03  0.17056442579E+03 0.  0.
        -24    2    3    3    0    0  0.26364899626E+01  0.76741715141E+02 -0.12098090842E+03  0.16408419401E+03  0.79943733965E+02 0.  0.
          6    2    1    2  501    0 -0.52753128775E+01 -0.44001049001E+02 -0.30124401649E+03  0.35012711974E+03  0.17284999643E+03 0.  0.
         24    2    5    5    0    0 -0.21256084157E+02  0.33168159002E+02 -0.21912821513E+03  0.23621677540E+03  0.78925549902E+02 0.  0.
          5    1    5    5  501    0  0.15980771279E+02 -0.77169208003E+02 -0.82115801359E+02  0.11391034434E+03  0.47000000000E+01 0. -1.
        -13    1    6    6    0    0  0.26941836712E+02  0.26097812720E+02 -0.71230602299E+02  0.80503149615E+02  0.00000000000E+00 0.  1.
         14    1    6    6    0    0 -0.48197920868E+02  0.70703462816E+01 -0.14789761283E+03  0.15571362578E+03  0.00000000000E+00 0. -1.
         -5    1    3    3    0  503  0.26388229149E+01 -0.32740666141E+02  0.20277754198E+02  0.38886911950E+02  0.47000000000E+01 0.  1.
         13    1    4    4    0    0  0.38664987220E+02  0.19760957931E+02 -0.48484123854E+02  0.65085996658E+02  0.00000000000E+00 0. -1.
        -14    1    4    4    0    0 -0.36028497258E+02  0.56980757210E+02 -0.72496784566E+02  0.98998197354E+02  0.00000000000E+00 0.  1.
</event>
<event>
12    1  0.1061634E+000  0.2311385E+03  0.7818608E-02  0.1125854E+00
         21   -1    0    0  503  502  0.00000000000E+00  0.00000000000E+00  0.35956440505E+03  0.35956440505E+03  0.00000000000E+00 0. -1.
         21   -1    0    0  501  503 -0.00000000000E+00 -0.00000000000E+00 -0.32003030513E+03  0.32003030513E+03  0.00000000000E+00 0. -1.
          6    2    1    2  501    0  0.11259647722E+03  0.10542142637E+03  0.26850808025E+03  0.35424248284E+03  0.17204506290E+03 0.  0.
         24    2    3    3    0    0  0.12079378265E+03  0.94293754181E+02  0.28332439136E+03  0.33344262756E+03  0.86190632517E+02 0.  0.
         -6    2    1    2    0  502 -0.11259647722E+03 -0.10542142637E+03 -0.22897398033E+03  0.32535222735E+03  0.17214338312E+03 0.  0.
        -24    2    5    5    0    0 -0.38805831121E+02 -0.11314972094E+03 -0.19795655521E+03  0.24479816693E+03  0.80190977701E+02 0.  0.
          5    1    3    3  501    0 -0.81973054279E+01  0.11127672186E+02 -0.14816311108E+02  0.20799855274E+02  0.47000000000E+01 0. -1.
        -11    1    4    4    0    0  0.83372321568E+02  0.95948043017E+02  0.15880356773E+03  0.20340979349E+03  0.00000000000E+00 0.  1.
         12    1    4    4    0    0  0.37421461084E+02 -0.16542888363E+01  0.12452082363E+03  0.13003283408E+03  0.00000000000E+00 0. -1.
         -5    1    5    5    0  502 -0.73790646102E+02  0.77282945696E+01 -0.31017425121E+02  0.80554060421E+02  0.47000000000E+01 0.  1.
         11    1    6    6    0    0  0.20884053581E+02 -0.27472050320E+02 -0.80803203864E+02  0.87863615891E+02  0.00000000000E+00 0. -1.
        -12    1    6    6    0    0 -0.59689884703E+02 -0.85677670617E+02 -0.11715335134E+03  0.15693455104E+03  0.00000000000E+00 0.  1.
</event>
<event>
12    1  0.1061634E+000  0.1921700E+03  0.7818608E-02  0.1156591E+00
         21   -1    0    0  501  502  0.00000000000E+00  0.00000000000E+00  0.24389681159E+02  0.24389681159E+02  0.00000000000E+00 0.  1.
         21   -1    0    0  502  503 -0.00000000000E+00 -0.00000000000E+00 -0.16427308645E+04  0.16427308645E+04  0.00000000000E+00 0.  1.
         -6    2    1    2    0  503  0.82711403343E+02  0.22305225917E+02 -0.10440747903E+04  0.10615537059E+04  0.17165489595E+03 0.  0.
        -24    2    3    3    0    0  0.14381955919E+02  0.13173406635E+02 -0.87558210357E+03  0.87944335746E+03  0.79976368895E+02 0.  0.
          6    2    1    2  501    0 -0.82711403343E+02 -0.22305225917E+02 -0.57426639297E+03  0.60556683975E+03  0.17201920811E+03 0.  0.
         24    2    5    5    0    0 -0.24905466828E+02  0.29669779628E+02 -0.14456989829E+03  0.16887003985E+03  0.78205222120E+02 0.  0.
          5    1    5    5  501    0 -0.57805936516E+02 -0.51975005546E+02 -0.42969649468E+03  0.43669679989E+03  0.47000000000E+01 0. -1.
        -13    1    6    6    0    0  0.21336082747E+02  0.11703255078E+02 -0.97475054190E+02  0.10046681440E+03  0.00000000000E+00 0.  1.
         14    1    6    6    0    0 -0.46241549574E+02  0.17966524550E+02 -0.47094844104E+02  0.68403225455E+02  0.00000000000E+00 0. -1.
         -5    1    3    3    0  503  0.68329447424E+02  0.91318192830E+01 -0.16849268675E+03  0.18211034841E+03  0.47000000000E+01 0.  1.
         13    1    4    4    0    0  0.31859075589E+02  0.13345372800E+02 -0.16173478336E+03  0.16538210249E+03  0.00000000000E+00 0. -1.
        -14    1    4    4    0    0 -0.17477119670E+02 -0.17196616579E+00 -0.71384732021E+03  0.71406125497E+03  0.00000000000E+00 0.  1.
</event>
<event>
12    1  0.1061634E+000  0.1881863E+03  0.7818608E-02  0.1160300E+00
         21   -1    0    0  503  502  0.00000000000E+00  0.00000000000E+00  0.22676383187E+03  0.22676383187E+03  0.00000000000E+00 0.  1.
         21   -1    0    0  501  503 -0.00000000000E+00 -0.00000000000E+00 -0.20618830243E+03  0.20618830243E+03  0.00000000000E+00 0.  1.
          6    2    1    2  501    0 -0.33551978816E+02 -0.69882435354E+02  0.11766485278E+03  0.22194390538E+03  0.17147824790E+03 0.  0.
         24    2    3    3    0    0  0.10787405468E+02  0.24718092305E+02  0.41970564965E+02  0.92843339779E+02  0.78300735718E+02 0.  0.
         -6    2    1    2    0  502  0.33551978816E+02  0.69882435354E+02 -0.97089323333E+02  0.21100822892E+03  0.17055452475E+03 0.  0.
        -24    2    5    5    0    0  0.66417624654E+02  0.92976403264E+02 -0.85238386672E+02  0.16886541541E+03  0.90520901077E+02 0.  0.
          5    1    3    3  501    0 -0.44339384284E+02 -0.94600527659E+02  0.75694287811E+02  0.12910056560E+03  0.47000000000E+01 0. -1.
        -11    1    4    4    0    0 -0.23187208534E+02  0.72468990934E+01  0.48350747816E+02  0.54110618186E+02  0.00000000000E+00 0.  1.
         12    1    4    4    0    0  0.33974614002E+02  0.17471193212E+02 -0.63801828513E+01  0.38732721593E+02  0.00000000000E+00 0. -1.
         -5    1    5    5    0  502 -0.32865645838E+02 -0.23093967911E+02 -0.11850936661E+02  0.42142813503E+02  0.47000000000E+01 0.  1.
         13    1    6    6    0    0  0.21260391661E+02 -0.96695350253E+00  0.13571367992E+02  0.25241261495E+02  0.00000000000E+00 0. -1.
        -14    1    6    6    0    0  0.45157232993E+02  0.93943356767E+02 -0.98809754664E+02  0.14362415392E+03  0.00000000000E+00 0.  1.
</event>
<event>
12    1  0.1061634E+000  0.2646503E+03  0.7818608E-02  0.1105371E+00
         21   -1    0    0  503  502  0.00000000000E+00  0.00000000000E+00  0.34365073875E+02  0.34365073875E+02  0.00000000000E+00 0. -1.
         21   -1    0    0  501  503 -0.00000000000E+00 -0.00000000000E+00 -0.19985926681E+04  0.19985926681E+04  0.00000000000E+00 0. -1.
          6    2    1    2  501    0  0.95968666378E+02 -0.16733450369E+03 -0.91775494715E+03  0.95515126839E+03  0.18118769673E+03 0.  0.
         24    2    3    3    0    0  0.82484955678E+02 -0.94958725107E+02 -0.81641890916E+03  0.82980715655E+03  0.78861615726E+02 0.  0.
         -6    2    1    2    0  502 -0.95968666378E+02  0.16733450369E+03 -0.10464726471E+04  0.10778064736E+04  0.17132125487E+03 0.  0.
        -24    2    5    5    0    0 -0.10322237578E+03  0.75975724995E+02 -0.82238854622E+03  0.83566020167E+03  0.74685219802E+02 0.  0.
          5    1    3    3  501    0  0.13483710699E+02 -0.72375778579E+02 -0.10133603799E+03  0.12534411184E+03  0.47000000000E+01 0. -1.
        -11    1    4    4    0    0 -0.33487556368E+00 -0.55148753542E+02 -0.36358236613E+03  0.36774125974E+03  0.00000000000E+00 0.  1.
         12    1    4    4    0    0  0.82819831242E+02 -0.39809971565E+02 -0.45283654303E+03  0.46206589680E+03  0.00000000000E+00 0. -1.
         -5    1    5    5    0  502  0.72537094049E+01  0.91358778691E+02 -0.22408410089E+03  0.24214627194E+03  0.47000000000E+01 0.  1.
         13    1    6    6    0    0 -0.37997422044E+02  0.72652892008E+02 -0.50623222451E+03  0.51282873548E+03  0.00000000000E+00 0. -1.
        -14    1    6    6    0    0 -0.65224953738E+02  0.33228329869E+01 -0.31615632171E+03  0.32283146619E+03  0.00000000000E+00 0.  1.
</event>
<event>
12    1  0.1061634E+000  0.2545464E+03  0.7818608E-02  0.1110906E+00
         21   -1    0    0  503  502  0.00000000000E+00  0.00000000000E+00  0.19390938808E+04  0.19390938808E+04  0.00000000000E+00 0. -1.
         21   -1    0    0  501  503 -0.00000000000E+00 -0.00000000000E+00 -0.38258917212E+02  0.38258917212E+02  0.00000000000E+00 0. -1.
          6    2    1    2  501    0  0.15011112438E+03  0.11141690019E+03  0.58995750933E+03  0.64252918699E+03  0.17276231654E+03 0.  0.
         24    2    3    3    0    0  0.73566179171E+02  0.12294722906E+03  0.48720597628E+03  0.51379673318E+03  0.78034709257E+02 0.  0.
         -6    2    1    2    0  502 -0.15011112438E+03 -0.11141690019E+03  0.13108774542E+04  0.13348236110E+04  0.16854464432E+03 0.  0.
        -24    2    5    5    0    0 -0.15874353686E+02 -0.80853463063E+02  0.58970516593E+03  0.60061301878E+03  0.78705387428E+02 0.  0.
          5    1    3    3  501    0  0.76544945214E+02 -0.11530328877E+02  0.10275153304E+03  0.12873245381E+03  0.47000000000E+01 0. -1.
        -11    1    4    4    0    0  0.21895491192E+02  0.65662488384E+01  0.17704252369E+03  0.17851213783E+03  0.00000000000E+00 0.  1.
         12    1    4    4    0    0  0.51670687979E+02  0.11638098023E+03  0.31016345259E+03  0.33528459535E+03  0.00000000000E+00 0. -1.
         -5    1    5    5    0  502 -0.13423677070E+03 -0.30563437124E+02  0.72117228831E+03  0.73421059221E+03  0.47000000000E+01 0.  1.
         13    1    6    6    0    0 -0.58873926174E+01  0.49434539360E+01  0.41789234657E+01  0.87500017132E+01  0.00000000000E+00 0. -1.
        -14    1    6    6    0    0 -0.99869610686E+01 -0.85796916999E+02  0.58552624247E+03  0.59186301707E+03  0.00000000000E+00 0.  1.
</event>
<event>
12    1  0.1061634E+000  0.2293728E+03  0.7818608E-02  0.1127273E+00
         21   -1    0    0  501  502  0.00000000000E+00  0.00000000000E+00  0.70835880055E+02  0.70835880055E+02  0.00000000000E+00 0. -1.
         21   -1    0    0  502  503 -0.00000000000E+00 -0.00000000000E+00 -0.80014828064E+03  0.80014828064E+03  0.00000000000E+00 0.  1.
         -6    2    1    2    0  503  0.12389553192E+03 -0.84688046676E+02 -0.48401487386E+03  0.53515274198E+03  0.17203456355E+03 0.  0.
        -24    2    3    3    0    0  0.97716679984E+02 -0.10311866193E+03 -0.24944588459E+03  0.29836228484E+03  0.81331394250E+02 0.  0.
          6    2    1    2  501    0 -0.12389553192E+03  0.84688046676E+02 -0.24529752673E+03  0.33583141871E+03  0.17346382071E+03 0.  0.
         24    2    5    5    0    0 -0.11079605319E+03  0.11093146937E+03 -0.24985325976E+03  0.30577882679E+03  0.80575946786E+02 0.  0.
          5    1    5    5  501    0 -0.13099478725E+02 -0.26243422695E+02  0.45557330348E+01  0.30052591920E+02  0.47000000000E+01 0. -1.
        -13    1    6    6    0    0 -0.10213505515E+03  0.48962635140E+02 -0.17112993056E+03  0.20521784100E+03  0.00000000000E+00 0.  1.
         14    1    6    6    0    0 -0.86609980404E+01  0.61968834231E+02 -0.78723329203E+02  0.10056098579E+03  0.00000000000E+00 0. -1.
         -5    1    3    3    0  503  0.26178851934E+02  0.18430615258E+02 -0.23456898927E+03  0.23679045714E+03  0.47000000000E+01 0.  1.
         13    1    4    4    0    0  0.76691187245E+02 -0.33658769922E+02 -0.88694530140E+02  0.12198840384E+03  0.00000000000E+00 0. -1.
        -14    1    4    4    0    0  0.21025492739E+02 -0.69459892011E+02 -0.16075135445E+03  0.17637388101E+03  0.00000000000E+00 0.  1.
</event>
<event>
12    1  0.1061634E+000  0.1027512E+04  0.7818608E-02  0.9278959E-01
         21   -1    0    0  503  502  0.00000000000E+00  0.00000000000E+00  0.11397923913E+04  0.11397923913E+04  0.00000000000E+00 0.  1.
         21   -1    0    0  501  503 -0.00000000000E+00 -0.00000000000E+00 -0.94212380393E+03  0.94212380393E+03  0.00000000000E+00 0. -1.
          6    2    1    2  501    0  0.28632902712E+03  0.97156313240E+03  0.23498561114E+03  0.10537263974E+04  0.17088549100E+03 0.  0.
         24    2    3    3    0    0  0.10372491140E+03  0.43704604334E+03  0.16156615906E+03  0.48410785173E+03  0.80552387387E+02 0.  0.
         -6    2    1    2    0  502 -0.28632902712E+03 -0.97156313240E+03 -0.37317023729E+02  0.10281897979E+04  0.17280760477E+03 0.  0.
        -24    2    5    5    0    0 -0.25128463126E+03 -0.66433080099E+03 -0.65513876585E+02  0.71764677729E+03  0.79028158803E+02 0.  0.
          5    1    3    3  501    0  0.18260411571E+03  0.53451708906E+03  0.73419452086E+02  0.56961854562E+03  0.47000000000E+01 0. -1.
        -11    1    4    4    0    0  0.11689784630E+03  0.37205662776E+03  0.13550235971E+03  0.41285848691E+03  0.00000000000E+00 0.  1.
         12    1    4    4    0    0 -0.13172934893E+02  0.64989415576E+02  0.26063799343E+02  0.71249364817E+02  0.00000000000E+00 0. -1.
         -5    1    5    5    0  502 -0.35044395852E+02 -0.30723233141E+03  0.28196852856E+02  0.31054302062E+03  0.47000000000E+01 0.  1.
         13    1    6    6    0    0 -0.23836926456E+03 -0.55710719007E+03 -0.44245707876E+02  0.60757387220E+03  0.00000000000E+00 0. -1.
        -14    1    6    6    0    0 -0.12915366703E+02 -0.10722361092E+03 -0.21268168710E+02  0.11007290510E+03  0.00000000000E+00 0.  1.
</event>
<event>
12    1  0.1061634E+000  0.1919426E+03  0.7818608E-02  0.1157090E+00
         21   -1    0    0  501  502  0.00000000000E+00  0.00000000000E+00  0.10179732033E+03  0.10179732033E+03  0.00000000000E+00 0. -1.
         21   -1    0    0  502  503 -0.00000000000E+00 -0.00000000000E+00 -0.62414883269E+03  0.62414883269E+03  0.00000000000E+00 0. -1.
         -6    2    1    2    0  503 -0.17470076145E+02  0.85301006057E+02 -0.23862763488E+02  0.19178046668E+03  0.16920062270E+03 0.  0.
        -24    2    3    3    0    0  0.44987570694E+02  0.51670147620E+02 -0.51384542097E+02  0.11554707120E+03  0.77569767468E+02 0.  0.
          6    2    1    2  501    0  0.17470076145E+02 -0.85301006057E+02 -0.49848874887E+03  0.53416568634E+03  0.17105695695E+03 0.  0.
         24    2    5    5    0    0  0.44858671892E+02 -0.20386515827E+02 -0.13656543478E+03  0.16541834534E+03  0.79279256586E+02 0.  0.
          5    1    5    5  501    0 -0.27388595747E+02 -0.64914490230E+02 -0.36192331408E+03  0.36874734100E+03  0.47000000000E+01 0. -1.
        -13    1    6    6    0    0  0.65793585994E+02 -0.27117626567E+02 -0.10867134233E+03  0.12989850758E+03  0.00000000000E+00 0.  1.
         14    1    6    6    0    0 -0.20934914102E+02  0.67311107404E+01 -0.27894092457E+02  0.35519837757E+02  0.00000000000E+00 0. -1.
         -5    1    3    3    0  503 -0.62457646838E+02  0.33630858437E+02  0.27521778609E+02  0.76233395475E+02  0.47000000000E+01 0.  1.
         11    1    4    4    0    0  0.29317843419E+02 -0.10778234628E+02 -0.39026037924E+02  0.49987377612E+02  0.00000000000E+00 0. -1.
        -12    1    4    4    0    0  0.15669727275E+02  0.62448382248E+02 -0.12358504173E+02  0.65559693590E+02  0.00000000000E+00 0.  1.
</event>
<event>
12    1  0.1061634E+000  0.1823805E+03  0.7818608E-02  0.1170730E+00
         21   -1    0    0  501  502  0.00000000000E+00  0.00000000000E+00  0.88675324843E+02  0.88675324843E+02  0.00000000000E+00 0.  1.
         21   -1    0    0  502  503 -0.00000000000E+00 -0.00000000000E+00 -0.33859648807E+03  0.33859648807E+03  0.00000000000E+00 0.  1.
         -6    2    1    2    0  503 -0.55246345629E+02 -0.12273737633E+02 -0.10751344373E+03  0.21171158744E+03  0.17337777347E+03 0.  0.
        -24    2    3    3    0    0 -0.36447397660E+02 -0.54926063489E+02 -0.51687286795E+02  0.13883311913E+03  0.11071483236E+03 0.  0.
          6    2    1    2  501    0  0.55246345629E+02  0.12273737633E+02 -0.14240771949E+03  0.21556022546E+03  0.15160293167E+03 0.  0.
         24    2    5    5    0    0 -0.10171044946E+02 -0.23796718221E+02 -0.95459668803E+02  0.12720456782E+03  0.79991998053E+02 0.  0.
          5    1    5    5  501    0  0.65417390574E+02  0.36070455853E+02 -0.46948050685E+02  0.88355657646E+02  0.47000000000E+01 0. -1.
        -13    1    6    6    0    0  0.32264700919E+02 -0.54372131274E+01 -0.18956233566E+02  0.37814190498E+02  0.00000000000E+00 0.  1.
         14    1    6    6    0    0 -0.42435745865E+02 -0.18359505093E+02 -0.76503435238E+02  0.89390377321E+02  0.00000000000E+00 0. -1.
         -5    1    3    3    0  503 -0.18798947969E+02  0.42652325856E+02 -0.55826156939E+02  0.72878468317E+02  0.47000000000E+01 0.  1.
         13    1    4    4    0    0 -0.50134562181E+02  0.18776792999E+02 -0.26631386365E+02  0.59793586780E+02  0.00000000000E+00 0. -1.
        -14    1    4    4    0    0  0.13687164521E+02 -0.73702856487E+02 -0.25055900430E+02  0.79039532346E+02  0.00000000000E+00 0.  1.
</event>
<event>
12    1  0.1061634E+000  0.2508715E+03  0.7818608E-02  0.1112792E+00
         21   -1    0    0  503  502  0.00000000000E+00  0.00000000000E+00  0.36025122587E+03  0.36025122587E+03  0.00000000000E+00 0. -1.
         21   -1    0    0  501  503 -0.00000000000E+00 -0.00000000000E+00 -0.34012463998E+03  0.34012463998E+03  0.00000000000E+00 0.  1.
          6    2    1    2  501    0 -0.15953300921E+03  0.86679397941E+02 -0.23427314057E+03  0.34324976773E+03  0.17312538694E+03 0.  0.
         24    2    3    3    0    0 -0.79666228837E+02 -0.15697101859E+02 -0.14960283700E+03  0.18816656225E+03  0.80203112680E+02 0.  0.
         -6    2    1    2    0  502  0.15953300921E+03 -0.86679397941E+02  0.25439972645E+03  0.35712609811E+03  0.17278810745E+03 0.  0.
        -24    2    5    5    0    0  0.39037523968E+02  0.15869748110E+02  0.79274775219E+02  0.12106185290E+03  0.81213946214E+02 0.  0.
          5    1    3    3  501    0 -0.79866780377E+02  0.10237649980E+03 -0.84670303563E+02  0.15508320549E+03  0.47000000000E+01 0. -1.
        -11    1    4    4    0    0 -0.22292564424E+02 -0.44606755884E+02 -0.63756122486E+02  0.80941733695E+02  0.00000000000E+00 0.  1.
         12    1    4    4    0    0 -0.57373664413E+02  0.28909654025E+02 -0.85846714518E+02  0.10722482855E+03  0.00000000000E+00 0. -1.
         -5    1    5    5    0  502  0.12049548525E+03 -0.10254914605E+03  0.17512495123E+03  0.23606424521E+03  0.47000000000E+01 0.  1.
         13    1    6    6    0    0  0.61505212900E+02  0.18953890362E+02  0.40199650055E+02  0.75882494940E+02  0.00000000000E+00 0. -1.
        -14    1    6    6    0    0 -0.22467688932E+02 -0.30841422516E+01  0.39075125165E+02  0.45179357964E+02  0.00000000000E+00 0.  1.
</event>
<event>
12    1  0.1061634E+000  0.1831120E+03  0.7818608E-02  0.1165518E+00
         21   -1    0    0  501  502  0.00000000000E+00  0.00000000000E+00  0.32932437789E+02  0.32932437789E+02  0.00000000000E+00 0.  1.
         21   -1    0    0  502  503 -0.00000000000E+00 -0.00000000000E+00 -0.10078009321E+04  0.10078009321E+04  0.00000000000E+00 0.  1.
         -6    2    1    2    0  503 -0.12663649741E+02 -0.52699419428E+02 -0.45200959767E+03  0.48769116735E+03  0.17490683661E+03 0.  0.
        -24    2    3    3    0    0 -0.24833344208E+02  0.37018315472E+02 -0.24385908582E+03  0.26065350747E+03  0.80535374564E+02 0.  0.
          6    2    1    2  501    0  0.12663649741E+02  0.52699419428E+02 -0.52285889668E+03  0.55304220258E+03  0.17186231455E+03 0.  0.
         24    2    5    5    0    0 -0.22108370365E+02  0.22800368769E+02 -0.47617737795E+03  0.48743503221E+03  0.99193641422E+02 0.  0.
          5    1    5    5  501    0  0.34772020106E+02  0.29899050659E+02 -0.46681518732E+02  0.65607170368E+02  0.47000000000E+01 0. -1.
        -13    1    6    6    0    0 -0.18903160684E+02 -0.24547848647E+01 -0.11923946998E+02  0.22484126947E+02  0.00000000000E+00 0.  1.
         14    1    6    6    0    0 -0.32052096814E+01  0.25255153633E+02 -0.46425343095E+03  0.46495090526E+03  0.00000000000E+00 0. -1.
         -5    1    3    3    0  503  0.12169694467E+02 -0.89717734900E+02 -0.20815051185E+03  0.22703765987E+03  0.47000000000E+01 0.  1.
         13    1    4    4    0    0 -0.16883112339E+02  0.59817340248E+01 -0.36025361978E+01  0.18270163963E+02  0.00000000000E+00 0. -1.
        -14    1    4    4    0    0 -0.79502318693E+01  0.31036581448E+02 -0.24025654962E+03  0.24238334351E+03  0.00000000000E+00 0.  1.
</event>
<event>
12    1  0.1061634E+000  0.1928704E+03  0.7818608E-02  0.1156974E+00
         21   -1    0    0  501  502  0.00000000000E+00  0.00000000000E+00  0.42342296631E+03  0.42342296631E+03  0.00000000000E+00 0. -1.
         21   -1    0    0  502  503 -0.00000000000E+00 -0.00000000000E+00 -0.86010519758E+02  0.86010519758E+02  0.00000000000E+00 0. -1.
         -6    2    1    2    0  503  0.76000346628E+02 -0.10897296443E+02  0.15502960166E+03  0.24745338766E+03  0.17692992374E+03 0.  0.
        -24    2    3    3    0    0  0.37006990255E+02  0.56440765787E+02  0.49098869373E+02  0.11593036112E+03  0.80461619952E+02 0.  0.
          6    2    1    2  501    0 -0.76000346628E+02  0.10897296443E+02  0.18238284489E+03  0.26198009841E+03  0.17168362209E+03 0.  0.
         24    2    5    5    0    0 -0.11110545454E+03  0.13923373817E+02  0.93459008285E+02  0.16621442365E+03  0.79714277465E+02 0.  0.
          5    1    5    5  501    0  0.35105107915E+02 -0.30260773738E+01  0.88923836601E+02  0.95765674758E+02  0.47000000000E+01 0. -1.
        -13    1    6    6    0    0 -0.19851028724E+02  0.35480732913E+02  0.45072062413E+02  0.60699559798E+02  0.00000000000E+00 0.  1.
         14    1    6    6    0    0 -0.91254425820E+02 -0.21557359096E+02  0.48386945872E+02  0.10551486385E+03  0.00000000000E+00 0. -1.
         -5    1    3    3    0  503  0.38993356373E+02 -0.67338062230E+02  0.10593073229E+03  0.13152302654E+03  0.47000000000E+01 0.  1.
         13    1    4    4    0    0  0.37222917226E+02 -0.81273520237E+01  0.30304299225E+02  0.48682131930E+02  0.00000000000E+00 0. -1.
        -14    1    4    4    0    0 -0.21592697094E+00  0.64568117811E+02  0.18794570148E+02  0.67248229190E+02  0.00000000000E+00 0.  1.
</event>
<event>
12    1  0.1061634E+000  0.2834186E+03  0.7818608E-02  0.1094069E+00
         21   -1    0    0  501  502  0.00000000000E+00  0.00000000000E+00  0.12498378187E+03  0.12498378187E+03  0.00000000000E+00 0. -1.
         21   -1    0    0  502  503 -0.00000000000E+00 -0.00000000000E+00 -0.71025243837E+03  0.71025243837E+03  0.00000000000E+00 0. -1.
         -6    2    1    2    0  503 -0.93362171317E+02 -0.20504928019E+03 -0.16096988930E+03  0.32594080192E+03  0.17194301020E+03 0.  0.
        -24    2    3    3    0    0 -0.59046969787E+02 -0.28684803970E+02 -0.66458927077E+02  0.12287339068E+03  0.79823045096E+02 0.  0.
          6    2    1    2  501    0  0.93362171317E+02  0.20504928019E+03 -0.42429876720E+03  0.50929541832E+03  0.16908777880E+03 0.  0.
         24    2    5    5    0    0  0.12044864701E+03  0.13081290821E+03 -0.27196125731E+03  0.33761687275E+03  0.91664244766E+02 0.  0.
          5    1    5    5  501    0 -0.27086475693E+02  0.74236371986E+02 -0.15233750989E+03  0.17167854557E+03  0.47000000000E+01 0. -1.
        -11    1    6    6    0    0  0.59189640701E+02  0.12478805435E+03 -0.17822233698E+03  0.22547432997E+03  0.00000000000E+00 0.  1.
         12    1    6    6    0    0  0.61259006309E+02  0.60248538576E+01 -0.93738920329E+02  0.11214254279E+03  0.00000000000E+00 0. -1.
         -5    1    3    3    0  503 -0.34315201530E+02 -0.17636447622E+03 -0.94510962226E+02  0.20306741125E+03  0.47000000000E+01 0.  1.
         13    1    4    4    0    0  0.34396549697E+01 -0.33596246058E+02 -0.33671678147E+01  0.33939310462E+02  0.00000000000E+00 0. -1.
        -14    1    4    4    0    0 -0.62486624757E+02  0.49114420889E+01 -0.63091759262E+02  0.88934080215E+02  0.00000000000E+00 0.  1.
</event>
<event>
12    1  0.1061634E+000  0.2634958E+03  0.7818608E-02  0.1105333E+00
         21   -1    0    0  503  502  0.00000000000E+00  0.00000000000E+00  0.63948078164E+02  0.63948078164E+02  0.00000000000E+00 0.  1.
         21   -1    0    0  501  503 -0.00000000000E+00 -0.00000000000E+00 -0.13466639123E+04  0.13466639123E+04  0.00000000000E+00 0. -1.
          6    2    1    2  501    0  0.16992312819E+03  0.98992373536E+02 -0.32464591714E+03  0.41696819985E+03  0.17260981624E+03 0.  0.
         24    2    3    3    0    0  0.11047804557E+03  0.14383062338E+02 -0.10466857657E+03  0.17385387746E+03  0.82809351838E+02 0.  0.
         -6    2    1    2    0  502 -0.16992312819E+03 -0.98992373536E+02 -0.95806991703E+03  0.99364379064E+03  0.17537576017E+03 0.  0.
        -24    2    5    5    0    0 -0.91440703775E+02 -0.61751798636E+02 -0.29505001703E+03  0.32494069573E+03  0.79732403986E+02 0.  0.
          5    1    3    3  501    0  0.59445082619E+02  0.84609311198E+02 -0.21997734057E+03  0.24311432240E+03  0.47000000000E+01 0. -1.
        -13    1    4    4    0    0 -0.33226737663E+01 -0.11673604500E+02  0.55078210223E+01  0.13328514373E+02  0.00000000000E+00 0.  1.
         14    1    4    4    0    0  0.11380071934E+03  0.26056666838E+02 -0.11017639759E+03  0.16052536309E+03  0.00000000000E+00 0. -1.
         -5    1    5    5    0  502 -0.78482424413E+02 -0.37240574900E+02 -0.66301990000E+03  0.66870309492E+03  0.47000000000E+01 0.  1.
         13    1    6    6    0    0 -0.54164718776E+02 -0.12298130929E+02 -0.22356433759E+03  0.23036074715E+03  0.00000000000E+00 0. -1.
        -14    1    6    6    0    0 -0.37275984999E+02 -0.49453667707E+02 -0.71485679441E+02  0.94579948575E+02  0.00000000000E+00 0.  1.
</event>
<event>
12    1  0.1061634E+000  0.1743831E+03  0.7818608E-02  0.1174639E+00
         21   -1    0    0  503  502  0.00000000000E+00  0.00000000000E+00  0.30660564015E+03  0.30660564015E+03  0.00000000000E+00 0. -1.
         21   -1    0    0  501  503 -0.00000000000E+00 -0.00000000000E+00 -0.11751329650E+03  0.11751329650E+03  0.00000000000E+00 0. -1.
          6    2    1    2  501    0 -0.48460553136E+01  0.26719817372E+02  0.18340680144E+03  0.24964321490E+03  0.16717131046E+03 0.  0.
         24    2    3    3    0    0 -0.38529079456E+02  0.17402335484E+02  0.35472226614E+02  0.97563992087E+02  0.80455717304E+02 0.  0.
         -6    2    1    2    0  502  0.48460553136E+01 -0.26719817372E+02  0.56855422087E+01  0.17447572175E+03  0.17225567972E+03 0.  0.
        -24    2    5    5    0    0  0.24600339963E+02  0.40972988761E+02 -0.26556704817E+02  0.96795606806E+02  0.79875956283E+02 0.  0.
          5    1    3    3  501    0  0.33683024143E+02  0.93174818880E+01  0.14793457482E+03  0.15207922282E+03  0.47000000000E+01 0. -1.
        -13    1    4    4    0    0 -0.16813589656E+01  0.32367913601E+02  0.46140930926E+02  0.56387004758E+02  0.00000000000E+00 0.  1.
         14    1    4    4    0    0 -0.36847720491E+02 -0.14965578117E+02 -0.10668704313E+02  0.41176987329E+02  0.00000000000E+00 0. -1.
         -5    1    5    5    0  502 -0.19754284649E+02 -0.67692806132E+02  0.32242247025E+02  0.77680114941E+02  0.47000000000E+01 0.  1.
         13    1    6    6    0    0 -0.93775391652E+01  0.53539963048E+02 -0.48690762687E+01  0.54572646882E+02  0.00000000000E+00 0. -1.
        -14    1    6    6    0    0  0.33977879128E+02 -0.12566974287E+02 -0.21687628548E+02  0.42222959925E+02  0.00000000000E+00 0.  1.
</event>
<event>
12    1  0.1061634E+000  0.2512461E+03  0.7818608E-02  0.1112659E+00
         21   -1    0    0  503  502  0.00000000000E+00  0.00000000000E+00  0.25377053957E+03  0.25377053957E+03  0.00000000000E+00 0.  1.
         21   -1    0    0  501  503 -0.00000000000E+00 -0.00000000000E+00 -0.25427620411E+03  0.25427620411E+03  0.00000000000E+00 0. -1.
          6    2    1    2  501    0  0.14728806679E+03  0.10581230357E+03  0.40068154048E+02  0.25442106115E+03  0.17388099718E+03 0.  0.
         24    2    3    3    0    0  0.53298853323E+02  0.11867415376E+03  0.46337731901E+02  0.15923284210E+03  0.79269099083E+02 0.  0.
         -6    2    1    2    0  502 -0.14728806679E+03 -0.10581230357E+03 -0.40573818584E+02  0.25362568254E+03  0.17259702744E+03 0.  0.
        -24    2    5    5    0    0 -0.10293750787E+03 -0.12807224652E+03  0.90601697169E+01  0.18328295064E+03  0.80696483582E+02 0.  0.
          5    1    3    3  501    0  0.93989213470E+02 -0.12861850185E+02 -0.62695778534E+01  0.95188219047E+02  0.47000000000E+01 0. -1.
        -11    1    4    4    0    0  0.80984375478E+01  0.37191965787E+02  0.53634072875E+02  0.65768083316E+02  0.00000000000E+00 0.  1.
         12    1    4    4    0    0  0.45200415775E+02  0.81482187972E+02 -0.72963409742E+01  0.93464758784E+02  0.00000000000E+00 0. -1.
         -5    1    5    5    0  502 -0.44350558923E+02  0.22259942950E+02 -0.49633988300E+02  0.70342731903E+02  0.47000000000E+01 0.  1.
         13    1    6    6    0    0 -0.11391265002E+03 -0.95892540649E+02  0.10336236903E+02  0.14925920065E+03  0.00000000000E+00 0. -1.
        -14    1    6    6    0    0  0.10975142150E+02 -0.32179705874E+02 -0.12760671863E+01  0.34023749982E+02  0.00000000000E+00 0.  1.
</event>
<event>
12    1  0.1061634E+000  0.4771212E+03  0.7818608E-02  0.1019954E+00
         21   -1    0    0  503  502  0.00000000000E+00  0.00000000000E+00  0.34241456837E+03  0.34241456837E+03  0.00000000000E+00 0.  1.
         21   -1    0    0  501  503 -0.00000000000E+00 -0.00000000000E+00 -0.93370288490E+03  0.93370288490E+03  0.00000000000E+00 0.  1.
          6    2    1    2  501    0  0.41816359936E+03  0.15191559848E+03  0.46994108928E+02  0.47942999115E+03  0.17235290902E+03 0.  0.
         24    2    3    3    0    0  0.19305071636E+03  0.10389947492E+03 -0.34446929970E+02  0.23522497271E+03  0.77977668768E+02 0.  0.
         -6    2    1    2    0  502 -0.41816359936E+03 -0.15191559848E+03 -0.63828242546E+03  0.79668746212E+03  0.17136893759E+03 0.  0.
        -24    2    5    5    0    0 -0.30438391121E+03 -0.52080831845E+02 -0.37384809329E+03  0.49195741094E+03  0.83052506731E+02 0.  0.
          5    1    3    3  501    0  0.22511288300E+03  0.48016123561E+02  0.81441038897E+02  0.24420501844E+03  0.47000000000E+01 0. -1.
        -13    1    4    4    0    0  0.70258237684E+02  0.75465014935E+02  0.47852207143E+01  0.10321863581E+03  0.00000000000E+00 0.  1.
         14    1    4    4    0    0  0.12279247867E+03  0.28434459983E+02 -0.39232150684E+02  0.13200633689E+03  0.00000000000E+00 0. -1.
         -5    1    5    5    0  502 -0.11377968814E+03 -0.99834766634E+02 -0.26443433217E+03  0.30473005118E+03  0.47000000000E+01 0.  1.
         13    1    6    6    0    0 -0.26852832594E+03 -0.64234811162E+02 -0.35480685173E+03  0.44957921975E+03  0.00000000000E+00 0. -1.
        -14    1    6    6    0    0 -0.35855585273E+02  0.12153979318E+02 -0.19041241558E+02  0.42378191191E+02  0.00000000000E+00 0.  1.
</event>
<event>
12    1  0.1061634E+000  0.2269931E+03  0.7818608E-02  0.1129050E+00
         21   -1    0    0  503  502  0.00000000000E+00  0.00000000000E+00  0.23790997764E+03  0.23790997764E+03  0.00000000000E+00 0. -1.
         21   -1    0    0  501  503 -0.00000000000E+00 -0.00000000000E+00 -0.46430123560E+03  0.46430123560E+03  0.00000000000E+00 0.  1.
          6    2    1    2  501    0 -0.13892591563E+03 -0.45016620117E+02 -0.37023478700E+03  0.43347929892E+03  0.17176611707E+03 0.  0.
         24    2    3    3    0    0 -0.25380845550E+02 -0.70235446319E+02 -0.18509181956E+03  0.21478206409E+03  0.79341969626E+02 0.  0.
         -6    2    1    2    0  502  0.13892591563E+03  0.45016620117E+02  0.14384352903E+03  0.26873191431E+03  0.17377852228E+03 0.  0.
        -24    2    5    5    0    0  0.16072570144E+03  0.29641012644E+02  0.15545477303E+03  0.23926072578E+03  0.79800800167E+02 0.  0.
          5    1    3    3  501    0 -0.11354507008E+03  0.25218826202E+02 -0.18514296744E+03  0.21869723484E+03  0.47000000000E+01 0. -1.
        -13    1    4    4    0    0 -0.21316931610E+01  0.13621849528E+02 -0.65178024880E+02  0.66620370966E+02  0.00000000000E+00 0.  1.
         14    1    4    4    0    0 -0.23249152389E+02 -0.83857295847E+02 -0.11991379468E+03  0.14816169312E+03  0.00000000000E+00 0. -1.
         -5    1    5    5    0  502 -0.21799785814E+02  0.15375607473E+02 -0.11611243994E+02  0.29471188537E+02  0.47000000000E+01 0.  1.
         13    1    6    6    0    0  0.62183310778E+02  0.48066732425E+02  0.90226805353E+02  0.11965805994E+03  0.00000000000E+00 0. -1.
        -14    1    6    6    0    0  0.98542390665E+02 -0.18425719780E+02  0.65227967675E+02  0.11960266583E+03  0.00000000000E+00 0.  1.
</event>
<event>
12    1  0.1061634E+000  0.2391145E+03  0.7818608E-02  0.1121000E+00
         21   -1    0    0  501  502  0.00000000000E+00  0.00000000000E+00  0.18372767476E+03  0.18372767476E+03  0.00000000000E+00 0.  1.
         21   -1    0    0  502  503 -0.00000000000E+00 -0.00000000000E+00 -0.49652326853E+03  0.49652326853E+03  0.00000000000E+00 0. -1.
         -6    2    1    2    0  503 -0.15979015878E+03 -0.20459013631E+02  0.54775226650E+02  0.24174890586E+03  0.17172868703E+03 0.  0.
        -24    2    3    3    0    0 -0.79553737927E+02  0.47811249851E+02  0.61050020329E-01  0.12294468358E+03  0.80626786264E+02 0.  0.
          6    2    1    2  501    0  0.15979015878E+03  0.20459013631E+02 -0.36757082042E+03  0.43850203743E+03  0.17670388428E+03 0.  0.
         24    2    5    5    0    0  0.83059196919E+02  0.56083545291E+02 -0.11419737857E+03  0.17133740878E+03  0.79191363986E+02 0.  0.
          5    1    5    5  501    0  0.76730961860E+02 -0.35624531660E+02 -0.25337344185E+03  0.26716462864E+03  0.47000000000E+01 0. -1.
        -11    1    6    6    0    0  0.61904142586E+02 -0.47849943050E+01 -0.44328664279E+02  0.76289249023E+02  0.00000000000E+00 0.  1.
         12    1    6    6    0    0  0.21155054333E+02  0.60868539596E+02 -0.69868714295E+02  0.95048159759E+02  0.00000000000E+00 0. -1.
         -5    1    3    3    0  503 -0.80236420852E+02 -0.68270263482E+02  0.54714176630E+02  0.11880422228E+03  0.47000000000E+01 0.  1.
         13    1    4    4    0    0 -0.29283809926E+02 -0.18739657321E+02  0.15600340381E+02  0.38106258020E+02  0.00000000000E+00 0. -1.
        -14    1    4    4    0    0 -0.50269928001E+02  0.66550907172E+02 -0.15539290361E+02  0.84838425561E+02  0.00000000000E+00 0.  1.
</event>
<event>
12    1  0.1061634E+000  0.2907520E+03  0.7818608E-02  0.1089959E+00
         21   -1    0    0  503  502  0.00000000000E+00  0.00000000000E+00  0.52711997319E+03  0.52711997319E+03  0.00000000000E+00 0.  1.
         21   -1    0    0  501  503 -0.00000000000E+00 -0.00000000000E+00 -0.49560550664E+03  0.49560550664E+03  0.00000000000E+00 0.  1.
          6    2    1    2  501    0  0.19118618974E+03 -0.13507900273E+03 -0.40481254916E+03  0.49839924912E+03  0.17242423104E+03 0.  0.
         24    2    3    3    0    0  0.35558285013E+02 -0.43045591149E+02 -0.21930436052E+03  0.23931321780E+03  0.77840215318E+02 0.  0.
         -6    2    1    2    0  502 -0.19118618974E+03  0.13507900273E+03  0.43632701570E+03  0.52432623070E+03  0.17244777600E+03 0.  0.
        -24    2    5    5    0    0 -0.11722740701E+03  0.13919985166E+02  0.26369209603E+03  0.30077687470E+03  0.83649123748E+02 0.  0.
          5    1    3    3  501    0  0.15562790472E+03 -0.92033411577E+02 -0.18550818864E+03  0.25908603132E+03  0.47000000000E+01 0. -1.
        -11    1    4    4    0    0  0.14914274663E+02 -0.19674972868E+02 -0.83440628796E+01  0.26060766132E+02  0.00000000000E+00 0.  1.
         12    1    4    4    0    0  0.20644010351E+02 -0.23370618281E+02 -0.21096029764E+03  0.21325245167E+03  0.00000000000E+00 0. -1.
         -5    1    5    5    0  502 -0.73958782730E+02  0.12115901756E+03  0.17263491967E+03  0.22354935600E+03  0.47000000000E+01 0.  1.
         11    1    6    6    0    0 -0.66800168835E+02  0.88267638973E+01  0.57915428757E+02  0.88850274087E+02  0.00000000000E+00 0. -1.
        -12    1    6    6    0    0 -0.50427238173E+02  0.50932212690E+01  0.20577666727E+03  0.21192660061E+03  0.00000000000E+00 0.  1.
</event>
<event>
12    1  0.1061634E+000  0.2639932E+03  0.7818608E-02  0.1104984E+00
         21   -1    0    0  503  502  0.00000000000E+00  0.00000000000E+00  0.46266727127E+02  0.46266727127E+02  0.00000000000E+00 0.  1.
         21   -1    0    0  501  503 -0.00000000000E+00 -0.00000000000E+00 -0.15630396703E+04  0.15630396703E+04  0.00000000000E+00 0.  1.
          6    2    1    2  501    0 -0.16522802840E+03 -0.10954109985E+03 -0.59624819909E+03  0.65207691425E+03  0.17433540447E+03 0.  0.
         24    2    3    3    0    0 -0.18141867025E+03 -0.92057501281E+02 -0.58892499675E+03  0.62670897395E+03  0.67410450057E+02 0.  0.
         -6    2    1    2    0  502  0.16522802840E+03  0.10954109985E+03 -0.92052474406E+03  0.95722948315E+03  0.17211311708E+03 0.  0.
        -24    2    5    5    0    0  0.11304680552E+03  0.49648632342E+02 -0.33176284644E+03  0.36311446923E+03  0.80876229846E+02 0.  0.
          5    1    3    3  501    0  0.16190641849E+02 -0.17483598569E+02 -0.73232023381E+01  0.25367940297E+02  0.47000000000E+01 0. -1.
        -11    1    4    4    0    0 -0.13636361563E+02  0.84244869579E+01 -0.78072461975E+02  0.79700888678E+02  0.00000000000E+00 0.  1.
         12    1    4    4    0    0 -0.16778230868E+03 -0.10048198824E+03 -0.51085253477E+03  0.54700808527E+03  0.00000000000E+00 0. -1.
         -5    1    5    5    0  502  0.52181222882E+02  0.59892467508E+02 -0.58876189762E+03  0.59411501393E+03  0.47000000000E+01 0.  1.
         13    1    6    6    0    0  0.85164959003E+02  0.60919272094E+02 -0.30631892929E+03  0.32372135301E+03  0.00000000000E+00 0. -1.
        -14    1    6    6    0    0  0.27881846512E+02 -0.11270639752E+02 -0.25443917153E+02  0.39393116219E+02  0.00000000000E+00 0.  1.
</event>
<event>
12    1  0.1061634E+000  0.2381063E+03  0.7818608E-02  0.1121107E+00
         21   -1    0    0  503  502  0.00000000000E+00  0.00000000000E+00  0.11983208837E+03  0.11983208837E+03  0.00000000000E+00 0. -1.
         21   -1    0    0  501  503 -0.00000000000E+00 -0.00000000000E+00 -0.47278120951E+03  0.47278120951E+03  0.00000000000E+00 0. -1.
          6    2    1    2  501    0 -0.54224405299E+02  0.15454137475E+03 -0.18251588420E+03  0.29979580097E+03  0.17245913038E+03 0.  0.
         24    2    3    3    0    0 -0.76556581179E+02  0.14412127417E+03 -0.84800968749E+02  0.19891171264E+03  0.75781352150E+02 0.  0.
         -6    2    1    2    0  502  0.54224405299E+02 -0.15454137475E+03 -0.17043323694E+03  0.29281749691E+03  0.17283308597E+03 0.  0.
        -24    2    5    5    0    0  0.20877040131E+02 -0.21564450166E+02  0.11732862389E+01  0.73122713106E+02  0.66668420229E+02 0.  0.
          5    1    3    3  501    0  0.22332175881E+02  0.10420100577E+02 -0.97714915452E+02  0.10088408833E+03  0.47000000000E+01 0. -1.
        -11    1    4    4    0    0 -0.44707677547E+01  0.39591303422E+02 -0.55971353124E+02  0.68704086061E+02  0.00000000000E+00 0.  1.
         12    1    4    4    0    0 -0.72085813425E+02  0.10452997075E+03 -0.28829615625E+02  0.13020762658E+03  0.00000000000E+00 0. -1.
         -5    1    5    5    0  502  0.33347365168E+02 -0.13297692458E+03 -0.17160652318E+03  0.21969478381E+03  0.47000000000E+01 0.  1.
         11    1    6    6    0    0 -0.19495971204E+02 -0.10209838171E+02  0.17500186761E+02  0.28117436322E+02  0.00000000000E+00 0. -1.
        -12    1    6    6    0    0  0.40373011334E+02 -0.11354611995E+02 -0.16326900522E+02  0.45005276784E+02  0.00000000000E+00 0.  1.
</event>
<event>
12    1  0.1061634E+000  0.2197753E+03  0.7818608E-02  0.1135648E+00
         21   -1    0    0  503  502  0.00000000000E+00  0.00000000000E+00  0.75019312355E+02  0.75019312355E+02  0.00000000000E+00 0. -1.
         21   -1    0    0  501  503 -0.00000000000E+00 -0.00000000000E+00 -0.82823826994E+03  0.82823826994E+03  0.00000000000E+00 0. -1.
          6    2    1    2  501    0 -0.10753996081E+03 -0.58688284252E+02 -0.14444877676E+03  0.25603093925E+03  0.17227081838E+03 0.  0.
         24    2    3    3    0    0 -0.20971952356E+02 -0.86240427666E+02 -0.91145806893E+02  0.15059642265E+03  0.80588400224E+02 0.  0.
         -6    2    1    2    0  502  0.10753996081E+03  0.58688284252E+02 -0.60877018082E+03  0.64722664304E+03  0.18246105482E+03 0.  0.
        -24    2    5    5    0    0  0.45831444420E+02 -0.38502865476E+02 -0.34937536944E+03  0.36339250353E+03  0.80049802645E+02 0.  0.
          5    1    3    3  501    0 -0.86568008453E+02  0.27552143414E+02 -0.53302969866E+02  0.10543451660E+03  0.47000000000E+01 0.  1.
        -11    1    4    4    0    0  0.11319101115E+02  0.11784567996E+02 -0.16522255622E+02  0.23237534804E+02  0.00000000000E+00 0.  1.
         12    1    4    4    0    0 -0.32291053471E+02 -0.98024995662E+02 -0.74623551271E+02  0.12735888785E+03  0.00000000000E+00 0. -1.
         -5    1    5    5    0  502  0.61708516389E+02  0.97191149728E+02 -0.25939481138E+03  0.28383413951E+03  0.47000000000E+01 0.  1.
         11    1    6    6    0    0  0.56190762809E+02 -0.52598249807E+02 -0.22516487678E+03  0.23795629734E+03  0.00000000000E+00 0. -1.
        -12    1    6    6    0    0 -0.10359318389E+02  0.14095384331E+02 -0.12421049266E+03  0.12543620620E+03  0.00000000000E+00 0.  1.
</event>
<event>
12    1  0.1061634E+000  0.1745276E+03  0.7818608E-02  0.1174990E+00
         21   -1    0    0  501  502  0.00000000000E+00  0.00000000000E+00  0.33676226976E+03  0.33676226976E+03  0.00000000000E+00 0. -1.
         21   -1    0    0  502  503 -0.00000000000E+00 -0.00000000000E+00 -0.19053523836E+03  0.19053523836E+03  0.00000000000E+00 0. -1.
         -6    2    1    2    0  503 -0.58371704367E+01  0.17110356660E+02  0.26686797129E+03  0.31513223517E+03  0.16662225146E+03 0.  0.
        -24    2    3    3    0    0  0.19225463237E+02 -0.28783334436E+02  0.24164718237E+03  0.25688668012E+03  0.79995668012E+02 0.  0.
          6    2    1    2  501    0  0.58371704367E+01 -0.17110356660E+02 -0.12064093989E+03  0.21216527295E+03  0.17358867994E+03 0.  0.
         24    2    5    5    0    0  0.28966660970E+02  0.29861474999E+02 -0.13072533644E+03  0.15863853798E+03  0.79663649239E+02 0.  0.
          5    1    5    5  501    0 -0.23129490533E+02 -0.46971831660E+02  0.10084396550E+02  0.53526734961E+02  0.47000000000E+01 0. -1.
        -11    1    6    6    0    0 -0.13085915158E+02  0.11391144041E+02  0.26734763256E+01  0.17554111022E+02  0.00000000000E+00 0.  1.
         12    1    6    6    0    0  0.42052576128E+02  0.18470330958E+02 -0.13339881276E+03  0.14108442696E+03  0.00000000000E+00 0. -1.
         -5    1    3    3    0  503 -0.25062633674E+02  0.45893691097E+02  0.25220788923E+02  0.58245555050E+02  0.47000000000E+01 0.  1.
         11    1    4    4    0    0  0.27881466020E+02  0.13387780082E+02  0.17382360826E+03  0.17655383200E+03  0.00000000000E+00 0. -1.
        -12    1    4    4    0    0 -0.86560027831E+01 -0.42171114518E+02  0.67823574102E+02  0.80332848124E+02  0.00000000000E+00 0.  1.
</event>
<event>
12    1  0.1061634E+000  0.2092148E+03  0.7818608E-02  0.1142536E+00
         21   -1    0    0  503  502  0.00000000000E+00  0.00000000000E+00  0.19049393494E+02  0.19049393494E+02  0.00000000000E+00 0.  1.
         21   -1    0    0  501  503 -0.00000000000E+00 -0.00000000000E+00 -0.26491556370E+04  0.26491556370E+04  0.00000000000E+00 0.  1.
          6    2    1    2  501    0 -0.76646934584E+02 -0.90058985605E+02 -0.18186407775E+04  0.18306351692E+04  0.17258467909E+03 0.  0.
         24    2    3    3    0    0 -0.64536180725E+02 -0.13057208905E+02 -0.14672163661E+04  0.14706391263E+04  0.75631774867E+02 0.  0.
         -6    2    1    2    0  502  0.76646934584E+02  0.90058985605E+02 -0.81146546602E+03  0.83756986137E+03  0.17047491502E+03 0.  0.
        -24    2    5    5    0    0  0.11085268904E+03  0.35147826097E+02 -0.57769409196E+03  0.59496645165E+03  0.82042223001E+02 0.  0.
          5    1    3    3  501    0 -0.12110753860E+02 -0.77001776700E+02 -0.35142441137E+03  0.35999604287E+03  0.47000000000E+01 0. -1.
        -13    1    4    4    0    0 -0.33715423838E+02  0.25616225140E+02 -0.39076410562E+03  0.39305153229E+03  0.00000000000E+00 0.  1.
         14    1    4    4    0    0 -0.30820756887E+02 -0.38673434045E+02 -0.10764522605E+04  0.10775875940E+04  0.00000000000E+00 0. -1.
         -5    1    5    5    0  502 -0.34205754451E+02  0.54911159508E+02 -0.23377137406E+03  0.24260340972E+03  0.47000000000E+01 0.  1.
         11    1    6    6    0    0  0.47956849915E+02  0.81622844936E+01 -0.42325996156E+03  0.42604633246E+03  0.00000000000E+00 0. -1.
        -12    1    6    6    0    0  0.62895839120E+02  0.26985541603E+02 -0.15443413040E+03  0.16892011919E+03  0.00000000000E+00 0.  1.
</event>
<event>
12    1  0.1061634E+000  0.2385805E+03  0.7818608E-02  0.1120763E+00
         21   -1    0    0  503  502  0.00000000000E+00  0.00000000000E+00  0.42891542211E+02  0.42891542211E+02  0.00000000000E+00 0. -1.
         21   -1    0    0  501  503 -0.00000000000E+00 -0.00000000000E+00 -0.13389090071E+04  0.13389090071E+04  0.00000000000E+00 0. -1.
          6    2    1    2  501    0 -0.16467612658E+03 -0.21789758310E+02 -0.58134230812E+03  0.62839440286E+03  0.17125310538E+03 0.  0.
         24    2    3    3    0    0 -0.15439976506E+03 -0.28223441095E+02 -0.58761465352E+03  0.61395736032E+03  0.83766396501E+02 0.  0.
         -6    2    1    2    0  502  0.16467612658E+03  0.21789758310E+02 -0.71467515679E+03  0.75340614647E+03  0.17107665410E+03 0.  0.
        -24    2    5    5    0    0  0.13355678718E+02  0.32578202928E+02 -0.25408077472E+03  0.26844888725E+03  0.79171027046E+02 0.  0.
          5    1    3    3  501    0 -0.10276361524E+02  0.64336827854E+01  0.62723454032E+01  0.14437042537E+02  0.47000000000E+01 0. -1.
        -13    1    4    4    0    0 -0.76669750526E+02 -0.38332423194E+02 -0.18650018313E+03  0.20525580046E+03  0.00000000000E+00 0.  1.
         14    1    4    4    0    0 -0.77730014529E+02  0.10108982099E+02 -0.40111447039E+03  0.40870155987E+03  0.00000000000E+00 0. -1.
         -5    1    5    5    0  502  0.15132044786E+03 -0.10788444618E+02 -0.46059438207E+03  0.48495725922E+03  0.47000000000E+01 0.  1.
         11    1    6    6    0    0 -0.23315184579E+02 -0.13028763386E+02 -0.58669665575E+02  0.64462982912E+02  0.00000000000E+00 0. -1.
        -12    1    6    6    0    0  0.36670863296E+02  0.45606966313E+02 -0.19541110914E+03  0.20398590434E+03  0.00000000000E+00 0.  1.
</event>
<event>
12    1  0.1061634E+000  0.2148211E+03  0.7818608E-02  0.1138290E+00
         21   -1    0    0  503  502  0.00000000000E+00  0.00000000000E+00  0.29199788101E+02  0.29199788101E+02  0.00000000000E+00 0.  1.
         21   -1    0    0  501  503 -0.00000000000E+00 -0.00000000000E+00 -0.16972924931E+04  0.16972924931E+04  0.00000000000E+00 0.  1.
          6    2    1    2  501    0  0.80208274874E+01  0.12673847924E+03 -0.58579799639E+03  0.62308394639E+03  0.17013916620E+03 0.  0.
         24    2    3    3    0    0  0.29298341563E+02  0.93434318218E+02 -0.56295775783E+03  0.57719640729E+03  0.81522333441E+02 0.  0.
         -6    2    1    2    0  502 -0.80208274874E+01 -0.12673847924E+03 -0.10822947086E+04  0.11034083348E+04  0.17326609957E+03 0.  0.
        -24    2    5    5    0    0  0.18629343727E+02 -0.15421951729E+03 -0.81272344359E+03  0.83109198202E+03  0.77870243670E+02 0.  0.
          5    1    3    3  501    0 -0.21277514075E+02  0.33304161026E+02 -0.22840238561E+02  0.45887539097E+02  0.47000000000E+01 0. -1.
        -13    1    4    4    0    0  0.48202205311E+02  0.21058127824E+02 -0.22920639286E+03  0.23516476749E+03  0.00000000000E+00 0.  1.
         14    1    4    4    0    0 -0.18903863748E+02  0.72376190394E+02 -0.33375136497E+03  0.34203163980E+03  0.00000000000E+00 0. -1.
         -5    1    5    5    0  502 -0.26650171214E+02  0.27481038045E+02 -0.26957126500E+03  0.27231635278E+03  0.47000000000E+01 0.  1.
         11    1    6    6    0    0  0.26206817548E+02 -0.14684417147E+03 -0.80296718801E+03  0.81670454450E+03  0.00000000000E+00 0. -1.
        -12    1    6    6    0    0 -0.75774738213E+01 -0.73753458177E+01 -0.97562555834E+01  0.14387437522E+02  0.00000000000E+00 0.  1.
</event>
<event>
12    1  0.1061634E+000  0.3852035E+03  0.7818608E-02  0.1049063E+00
         21   -1    0    0  501  502  0.00000000000E+00  0.00000000000E+00  0.18199931608E+03  0.18199931608E+03  0.00000000000E+00 0. -1.
         21   -1    0    0  502  503 -0.00000000000E+00 -0.00000000000E+00 -0.14215687718E+04  0.14215687718E+04  0.00000000000E+00 0. -1.
         -6    2    1    2    0  503  0.26539247163E+03 -0.22010694569E+03 -0.11435767985E+04  0.12065840681E+04  0.17087126043E+03 0.  0.
        -24    2    3    3    0    0  0.23218519130E+03 -0.17164365216E+03 -0.73792979248E+03  0.79667798394E+03  0.82364586327E+02 0.  0.
          6    2    1    2  501    0 -0.26539247163E+03  0.22010694569E+03 -0.95992657132E+02  0.39698401976E+03  0.17175997842E+03 0.  0.
         24    2    5    5    0    0 -0.24068117298E+03  0.15017377718E+03 -0.12133869198E+03  0.31846136175E+03  0.78835083390E+02 0.  0.
          5    1    5    5  501    0 -0.24711298641E+02  0.69933168513E+02  0.25346034851E+02  0.78522658014E+02  0.47000000000E+01 0. -1.
        -11    1    6    6    0    0 -0.14898324423E+03  0.13582361342E+03 -0.84879589092E+02  0.21874324142E+03  0.00000000000E+00 0.  1.
         12    1    6    6    0    0 -0.91697928755E+02  0.14350163759E+02 -0.36459102891E+02  0.99718120327E+02  0.00000000000E+00 0. -1.
         -5    1    3    3    0  503  0.33207280330E+02 -0.48463293526E+02 -0.40564700606E+03  0.40990608413E+03  0.47000000000E+01 0. -1.
         13    1    4    4    0    0  0.15466685500E+03 -0.15331446964E+03 -0.48868895550E+03  0.53501781079E+03  0.00000000000E+00 0. -1.
        -14    1    4    4    0    0  0.77518336300E+02 -0.18329182526E+02 -0.24924083699E+03  0.26166017316E+03  0.00000000000E+00 0.  1.
</event>
<event>
12    1  0.1061634E+000  0.1749482E+03  0.7818608E-02  0.1173893E+00
         21   -1    0    0  503  502  0.00000000000E+00  0.00000000000E+00  0.19648263111E+03  0.19648263111E+03  0.00000000000E+00 0. -1.
         21   -1    0    0  501  503 -0.00000000000E+00 -0.00000000000E+00 -0.18408847763E+03  0.18408847763E+03  0.00000000000E+00 0. -1.
          6    2    1    2  501    0  0.82818706273E+01 -0.56070678303E+00 -0.73278539021E+02  0.18967505818E+03  0.17475119354E+03 0.  0.
         24    2    3    3    0    0  0.69863300220E+02  0.17418933500E+02 -0.65291108554E+02  0.12485662731E+03  0.78370584821E+02 0.  0.
         -6    2    1    2    0  502 -0.82818706273E+01  0.56070678303E+00  0.85672692505E+02  0.19089605055E+03  0.17038951876E+03 0.  0.
        -24    2    5    5    0    0 -0.71773316093E+01  0.16162852542E+01 -0.21562255607E+02  0.83547280885E+02  0.80380910727E+02 0.  0.
          5    1    3    3  501    0 -0.61581429593E+02 -0.17979640283E+02 -0.79874304665E+01  0.64818430873E+02  0.47000000000E+01 0. -1.
        -13    1    4    4    0    0  0.48579215021E+02  0.26597668627E+02  0.20048099369E+00  0.55384260410E+02  0.00000000000E+00 0.  1.
         14    1    4    4    0    0  0.21284085199E+02 -0.91787351272E+01 -0.65491589548E+02  0.69472366901E+02  0.00000000000E+00 0. -1.
         -5    1    5    5    0  502 -0.11045390180E+01 -0.10555784712E+01  0.10723494811E+03  0.10734876967E+03  0.47000000000E+01 0.  1.
         11    1    6    6    0    0 -0.86111273666E+01  0.25526841914E+02  0.21368703464E+02  0.34385936956E+02  0.00000000000E+00 0. -1.
        -12    1    6    6    0    0  0.14337957573E+01 -0.23910556659E+02 -0.42930959072E+02  0.49161343928E+02  0.00000000000E+00 0.  1.
</event>
<event>
12    1  0.1061634E+000  0.3540361E+03  0.7818608E-02  0.1061107E+00
         21   -1    0    0  503  502  0.00000000000E+00  0.00000000000E+00  0.14300807823E+03  0.14300807823E+03  0.00000000000E+00 0. -1.
         21   -1    0    0  501  503 -0.00000000000E+00 -0.00000000000E+00 -0.90062365629E+03  0.90062365629E+03  0.00000000000E+00 0. -1.
          6    2    1    2  501    0  0.14926455998E+03 -0.27114517183E+03 -0.28696037147E+03  0.45468531572E+03  0.16909425910E+03 0.  0.
         24    2    3    3    0    0  0.14042397766E+03 -0.27719998095E+03 -0.22697604750E+03  0.39357045884E+03  0.82588479764E+02 0.  0.
         -6    2    1    2    0  502 -0.14926455998E+03  0.27114517183E+03 -0.47065520660E+03  0.58894641880E+03  0.17187771131E+03 0.  0.
        -24    2    5    5    0    0 -0.53512413152E+02  0.20274912946E+03 -0.22528835011E+03  0.31678198964E+03  0.75001336052E+02 0.  0.
          5    1    3    3  501    0  0.88405823210E+01  0.60548091194E+01 -0.59984323971E+02  0.61114856880E+02  0.47000000000E+01 0. -1.
        -13    1    4    4    0    0  0.65423433601E+02 -0.17498513238E+03 -0.17683333500E+03  0.25723539917E+03  0.00000000000E+00 0.  1.
         14    1    4    4    0    0  0.75000544059E+02 -0.10221484857E+03 -0.50142712493E+02  0.13633505966E+03  0.00000000000E+00 0. -1.
         -5    1    5    5    0  502 -0.95752146830E+02  0.68396042373E+02 -0.24536685649E+03  0.27216442916E+03  0.47000000000E+01 0.  1.
         13    1    6    6    0    0  0.24343506035E+01 -0.17331870703E+01 -0.24856709092E+02  0.25035694262E+02  0.00000000000E+00 0. -1.
        -14    1    6    6    0    0 -0.55946763755E+02  0.20448231653E+03 -0.20043164101E+03  0.29174629538E+03  0.00000000000E+00 0.  1.
</event>
<event>
12    1  0.1061634E+000  0.2663021E+03  0.7818608E-02  0.1103463E+00
         21   -1    0    0  501  502  0.00000000000E+00  0.00000000000E+00  0.99767438943E+02  0.99767438943E+02  0.00000000000E+00 0. -1.
         21   -1    0    0  502  503 -0.00000000000E+00 -0.00000000000E+00 -0.75800818225E+03  0.75800818225E+03  0.00000000000E+00 0. -1.
         -6    2    1    2    0  503  0.20246146967E+03 -0.94671061046E+01 -0.22092677705E+03  0.34575970777E+03  0.17222329082E+03 0.  0.
        -24    2    3    3    0    0  0.57021952546E+02 -0.54958361519E+02 -0.74576208103E+02  0.13442422450E+03  0.78970480201E+02 0.  0.
          6    2    1    2  501    0 -0.20246146967E+03  0.94671061046E+01 -0.43731396626E+03  0.51201591342E+03  0.17273250335E+03 0.  0.
         24    2    5    5    0    0 -0.14411158556E+03  0.72159216962E+02 -0.27025496647E+03  0.32422398295E+03  0.78155886108E+02 0.  0.
          5    1    5    5  501    0 -0.58349884111E+02 -0.62692110858E+02 -0.16705899978E+03  0.18779193047E+03  0.47000000000E+01 0. -1.
        -13    1    6    6    0    0 -0.32484792527E+02  0.25278834102E+02 -0.19031357223E+02  0.45348360024E+02  0.00000000000E+00 0.  1.
         14    1    6    6    0    0 -0.11162679303E+03  0.46880382861E+02 -0.25122360925E+03  0.27887562293E+03  0.00000000000E+00 0. -1.
         -5    1    3    3    0  503  0.14543951713E+03  0.45491255415E+02 -0.14635056895E+03  0.21133548328E+03  0.47000000000E+01 0.  1.
         13    1    4    4    0    0  0.13536154783E+00 -0.70220286057E+01  0.15846684157E+02  0.17333338030E+02  0.00000000000E+00 0. -1.
        -14    1    4    4    0    0  0.56886590998E+02 -0.47936332913E+02 -0.90422892260E+02  0.11709088647E+03  0.00000000000E+00 0.  1.
</event>
<event>
12    1  0.1061634E+000  0.3004557E+03  0.7818608E-02  0.1085054E+00
         21   -1    0    0  503  502  0.00000000000E+00  0.00000000000E+00  0.33401209646E+03  0.33401209646E+03  0.00000000000E+00 0.  1.
         21   -1    0    0  501  503 -0.00000000000E+00 -0.00000000000E+00 -0.27016359181E+03  0.27016359181E+03  0.00000000000E+00 0.  1.
          6    2    1    2  501    0 -0.18890733337E+03  0.15727392472E+03  0.23960374191E+02  0.30140955691E+03  0.17277891500E+03 0.  0.
         24    2    3    3    0    0 -0.14981927255E+03  0.52155216908E+02  0.55664099273E+02  0.18476893185E+03  0.76649104040E+02 0.  0.
         -6    2    1    2    0  502  0.18890733337E+03 -0.15727392472E+03  0.39888130456E+02  0.30276613136E+03  0.17220685048E+03 0.  0.
        -24    2    5    5    0    0  0.12783412590E+03 -0.14708224495E+03 -0.26055492422E+02  0.21218766590E+03  0.79812068954E+02 0.  0.
          5    1    3    3  501    0 -0.39088060817E+02  0.10511870781E+03 -0.31703725082E+02  0.11664062506E+03  0.47000000000E+01 0. -1.
        -13    1    4    4    0    0 -0.43487497718E+02 -0.19168695774E+02  0.82555458857E+01  0.48236452952E+02  0.00000000000E+00 0.  1.
         14    1    4    4    0    0 -0.10633177484E+03  0.71323912683E+02  0.47408553387E+02  0.13653247890E+03  0.00000000000E+00 0. -1.
         -5    1    5    5    0  502  0.61073207466E+02 -0.10191679768E+02  0.65943622878E+02  0.90578465460E+02  0.47000000000E+01 0.  1.
         13    1    6    6    0    0 -0.32038063308E+01 -0.37844960794E+02 -0.16242078286E+02  0.41307511903E+02  0.00000000000E+00 0. -1.
        -14    1    6    6    0    0  0.13103793224E+03 -0.10923728416E+03 -0.98134141364E+01  0.17088015400E+03  0.00000000000E+00 0.  1.
</event>
<event>
12    1  0.1061634E+000  0.2017059E+03  0.7818608E-02  0.1148561E+00
         21   -1    0    0  503  502  0.00000000000E+00  0.00000000000E+00  0.10808513834E+03  0.10808513834E+03  0.00000000000E+00 0. -1.
         21   -1    0    0  501  503 -0.00000000000E+00 -0.00000000000E+00 -0.38571136222E+03  0.38571136222E+03  0.00000000000E+00 0. -1.
          6    2    1    2  501    0  0.10549468844E+03  0.86330830015E+01 -0.18113515667E+03  0.27019912555E+03  0.17027613765E+03 0.  0.
         24    2    3    3    0    0  0.36738584659E+02 -0.50254823126E+02 -0.58413246416E+02  0.11762801245E+03  0.80925713502E+02 0.  0.
         -6    2    1    2    0  502 -0.10549468844E+03 -0.86330830015E+01 -0.96491067205E+02  0.22359737501E+03  0.17170206944E+03 0.  0.
        -24    2    5    5    0    0 -0.35250928514E+02 -0.50632117074E+02 -0.97427200231E+02  0.14161523661E+03  0.82198398125E+02 0.  0.
          5    1    3    3  501    0  0.68756103782E+02  0.58887906128E+02 -0.12272191026E+03  0.15257111310E+03  0.47000000000E+01 0. -1.
        -13    1    4    4    0    0  0.49771520592E+02 -0.26738018178E+02 -0.36453567445E+01  0.56616380174E+02  0.00000000000E+00 0.  1.
         14    1    4    4    0    0 -0.13032935933E+02 -0.23516804948E+02 -0.54767889671E+02  0.61011632276E+02  0.00000000000E+00 0. -1.
         -5    1    5    5    0  502 -0.70243759927E+02  0.41999034073E+02  0.93613302646E+00  0.81982138401E+02  0.47000000000E+01 0.  1.
         11    1    6    6    0    0 -0.34573715277E+02 -0.29561691865E+02 -0.10861016952E+03  0.11775145153E+03  0.00000000000E+00 0. -1.
        -12    1    6    6    0    0 -0.67721323703E+00 -0.21070425209E+02  0.11182969288E+02  0.23863785081E+02  0.00000000000E+00 0.  1.
</event>
<event>
12    1  0.1061634E+000  0.2013254E+03  0.7818608E-02  0.1148905E+00
         21   -1    0    0  501  502  0.00000000000E+00  0.00000000000E+00  0.54505844770E+02  0.54505844770E+02  0.00000000000E+00 0. -1.
         21   -1    0    0  502  503 -0.00000000000E+00 -0.00000000000E+00 -0.74020508078E+03  0.74020508078E+03  0.00000000000E+00 0. -1.
         -6    2    1    2    0  503 -0.25737343093E+01 -0.10444667629E+03 -0.35949619797E+03  0.41138297108E+03  0.17053650708E+03 0.  0.
        -24    2    3    3    0    0  0.47826564206E+01 -0.14055341313E+03 -0.29414635136E+03  0.33621312752E+03  0.82091749609E+02 0.  0.
          6    2    1    2  501    0  0.25737343093E+01  0.10444667629E+03 -0.32620303805E+03  0.38332795447E+03  0.17209348143E+03 0.  0.
         24    2    5    5    0    0  0.57732432267E+02  0.30556289406E+02 -0.21721358235E+03  0.24048866475E+03  0.79914560358E+02 0.  0.
          5    1    5    5  501    0 -0.55158697958E+02  0.73890386889E+02 -0.10898945570E+03  0.14283928972E+03  0.47000000000E+01 0. -1.
        -13    1    6    6    0    0  0.55572133950E+02  0.44452290186E+02 -0.10171945205E+03  0.12414151239E+03  0.00000000000E+00 0.  1.
         14    1    6    6    0    0  0.21602983170E+01 -0.13896000780E+02 -0.11549413031E+03  0.11634715236E+03  0.00000000000E+00 0. -1.
         -5    1    3    3    0  503 -0.73563907299E+01  0.36106736838E+02 -0.65349846606E+02  0.75169843561E+02  0.47000000000E+01 0.  1.
         11    1    4    4    0    0  0.12041967555E+02 -0.24872286374E+02 -0.14349949422E+03  0.14613604776E+03  0.00000000000E+00 0. -1.
        -12    1    4    4    0    0 -0.72593111344E+01 -0.11568112676E+03 -0.15064685714E+03  0.19007707976E+03  0.00000000000E+00 0.  1.
</event>
<event>
12    1  0.1061634E+000  0.1853249E+03  0.7818608E-02  0.1163828E+00
         21   -1    0    0  503  502  0.00000000000E+00  0.00000000000E+00  0.64792820897E+02  0.64792820897E+02  0.00000000000E+00 0.  1.
         21   -1    0    0  501  503 -0.00000000000E+00 -0.00000000000E+00 -0.64448556008E+03  0.64448556008E+03  0.00000000000E+00 0.  1.
          6    2    1    2  501    0 -0.26315296637E+02 -0.61213631500E+02 -0.13507334486E+03  0.22932535292E+03  0.17293266170E+03 0.  0.
         24    2    3    3    0    0 -0.14900017596E+02 -0.23896068770E+02 -0.16113597497E+03  0.18216329431E+03  0.80160032058E+02 0.  0.
         -6    2    1    2    0  502  0.26315296637E+02  0.61213631500E+02 -0.44461939433E+03  0.47995302806E+03  0.16801458215E+03 0.  0.
        -24    2    5    5    0    0  0.67800226075E+02  0.39609718441E+02 -0.20440203088E+03  0.23517925469E+03  0.85809621587E+02 0.  0.
          5    1    3    3  501    0 -0.11415279041E+02 -0.37317562731E+02  0.26062630109E+02  0.47162058606E+02  0.47000000000E+01 0. -1.
        -11    1    4    4    0    0  0.19698916483E+02  0.19505655991E+02 -0.72069642224E+02  0.77217557955E+02  0.00000000000E+00 0.  1.
         12    1    4    4    0    0 -0.34598934079E+02 -0.43401724760E+02 -0.89066332743E+02  0.10494573636E+03  0.00000000000E+00 0. -1.
         -5    1    5    5    0  502 -0.41484929438E+02  0.21603913060E+02 -0.24021736344E+03  0.24477377337E+03  0.47000000000E+01 0.  1.
         11    1    6    6    0    0  0.15583158995E+02  0.12980935482E+02 -0.16093010461E+03  0.16220307673E+03  0.00000000000E+00 0. -1.
        -12    1    6    6    0    0  0.52217067080E+02  0.26628782958E+02 -0.43471926275E+02  0.72976177965E+02  0.00000000000E+00 0.  1.
</event>
<event>
12    1  0.1061634E+000  0.1753992E+03  0.7818608E-02  0.1173146E+00
         21   -1    0    0  501  502  0.00000000000E+00  0.00000000000E+00  0.15014954742E+03  0.15014954742E+03  0.00000000000E+00 0. -1.
         21   -1    0    0  502  503 -0.00000000000E+00 -0.00000000000E+00 -0.22576146371E+03  0.22576146371E+03  0.00000000000E+00 0. -1.
         -6    2    1    2    0  503  0.93463032327E+01 -0.31285944958E+01 -0.99549932304E+02  0.19888589590E+03  0.17189609966E+03 0.  0.
        -24    2    3    3    0    0  0.44480402265E+02 -0.41290654796E+02 -0.18004879218E+02  0.10212622742E+03  0.80138419575E+02 0.  0.
          6    2    1    2  501    0 -0.93463032327E+01  0.31285944958E+01  0.23938016017E+02  0.17702511523E+03  0.17512201839E+03 0.  0.
         24    2    5    5    0    0  0.51099888125E+02  0.39601140604E+02  0.26854814891E+02  0.10621137091E+03  0.79876312656E+02 0.  0.
          5    1    5    5  501    0 -0.60446191358E+02 -0.36472546109E+02 -0.29167988747E+01  0.70813744323E+02  0.47000000000E+01 0. -1.
        -13    1    6    6    0    0 -0.25987093714E+01  0.21273102874E+02  0.42288950648E+02  0.47409424624E+02  0.00000000000E+00 0.  1.
         14    1    6    6    0    0  0.53698597497E+02  0.18328037730E+02 -0.15434135756E+02  0.58801946283E+02  0.00000000000E+00 0. -1.
         -5    1    3    3    0  503 -0.35134099032E+02  0.38162060301E+02 -0.81545053086E+02  0.96759668478E+02  0.47000000000E+01 0.  1.
         11    1    4    4    0    0  0.67737633351E+02 -0.27312211891E+02 -0.16914165953E+02  0.74969546486E+02  0.00000000000E+00 0. -1.
        -12    1    4    4    0    0 -0.23257231086E+02 -0.13978442905E+02 -0.10907132654E+01  0.27156680933E+02  0.00000000000E+00 0.  1.
</event>
<event>
12    1  0.1061634E+000  0.2011470E+03  0.7818608E-02  0.1149148E+00
         21   -1    0    0  503  502  0.00000000000E+00  0.00000000000E+00  0.42096560030E+03  0.42096560030E+03  0.00000000000E+00 0.  1.
         21   -1    0    0  501  503 -0.00000000000E+00 -0.00000000000E+00 -0.10184576178E+03  0.10184576178E+03  0.00000000000E+00 0.  1.
          6    2    1    2  501    0 -0.15791452565E+02  0.10466913046E+03  0.22666052733E+03  0.30304311634E+03  0.17104133671E+03 0.  0.
         24    2    3    3    0    0  0.39609193449E+02  0.85288411565E+02  0.86761508496E+02  0.15125817204E+03  0.80675113266E+02 0.  0.
         -6    2    1    2    0  502  0.15791452565E+02 -0.10466913046E+03  0.92459311194E+02  0.21976824574E+03  0.16895076432E+03 0.  0.
        -24    2    5    5    0    0 -0.48129882007E+02 -0.28505934583E+02  0.27171653142E+02  0.10072481789E+03  0.79234565413E+02 0.  0.
          5    1    3    3  501    0 -0.55400646014E+02  0.19380718896E+02  0.13989901884E+03  0.15178494430E+03  0.47000000000E+01 0. -1.
        -11    1    4    4    0    0  0.34768736666E+02  0.31866219008E+02 -0.23789716993E+01  0.47222669023E+02  0.00000000000E+00 0.  1.
         12    1    4    4    0    0  0.48404567827E+01  0.53422192557E+02  0.89140480195E+02  0.10403550302E+03  0.00000000000E+00 0. -1.
         -5    1    5    5    0  502  0.63921334572E+02 -0.76163195878E+02  0.65287658052E+02  0.11904342785E+03  0.47000000000E+01 0.  1.
         11    1    6    6    0    0 -0.20324288206E+02 -0.33667949195E+02 -0.21211517537E+02  0.44682613736E+02  0.00000000000E+00 0. -1.
        -12    1    6    6    0    0 -0.27805593801E+02  0.51620146122E+01  0.48383170679E+02  0.56042204154E+02  0.00000000000E+00 0.  1.
</event>
<event>
12    1  0.1061634E+000  0.2567146E+03  0.7818608E-02  0.1109274E+00
         21   -1    0    0  501  502  0.00000000000E+00  0.00000000000E+00  0.30294276625E+04  0.30294276625E+04  0.00000000000E+00 0. -1.
         21   -1    0    0  502  503 -0.00000000000E+00 -0.00000000000E+00 -0.35799163487E+02  0.35799163487E+02  0.00000000000E+00 0. -1.
         -6    2    1    2    0  503 -0.16367982922E+03 -0.98302832858E+02  0.24578174729E+04  0.24710922964E+04  0.17022301180E+03 0.  0.
        -24    2    3    3    0    0 -0.17327576196E+02 -0.75464502677E+01  0.93589165717E+03  0.93944743497E+03  0.79442402362E+02 0.  0.
          6    2    1    2  501    0  0.16367982922E+03  0.98302832858E+02  0.53581102617E+03  0.59413452965E+03  0.17160375905E+03 0.  0.
         24    2    5    5    0    0  0.16503335504E+02  0.17891465096E+02  0.12932740135E+03  0.15438694795E+03  0.80729724085E+02 0.  0.
          5    1    5    5  501    0  0.14717649372E+03  0.80411367763E+02  0.40648362482E+03  0.43974758170E+03  0.47000000000E+01 0. -1.
        -11    1    6    6    0    0  0.10598487851E+02  0.40348595677E+02  0.27547916701E+02  0.49992247723E+02  0.00000000000E+00 0.  1.
         12    1    6    6    0    0  0.59048476531E+01 -0.22457130581E+02  0.10177948465E+03  0.10439470022E+03  0.00000000000E+00 0. -1.
         -5    1    3    3    0  503 -0.14635225303E+03 -0.90756382590E+02  0.15219258157E+04  0.15316448614E+04  0.47000000000E+01 0.  1.
         11    1    4    4    0    0 -0.28255872455E+01  0.22013592977E+02  0.82869659791E+02  0.85790225160E+02  0.00000000000E+00 0. -1.
        -12    1    4    4    0    0 -0.14501988950E+02 -0.29560043245E+02  0.85302199738E+03  0.85365720981E+03  0.00000000000E+00 0.  1.
</event>
<event>
12    1  0.1061634E+000  0.1787438E+03  0.7818608E-02  0.1169576E+00
         21   -1    0    0  503  502  0.00000000000E+00  0.00000000000E+00  0.11702397686E+03  0.11702397686E+03  0.00000000000E+00 0.  1.
         21   -1    0    0  501  503 -0.00000000000E+00 -0.00000000000E+00 -0.30767895932E+03  0.30767895932E+03  0.00000000000E+00 0.  1.
          6    2    1    2  501    0  0.29140015266E+02 -0.35914810779E+02 -0.21148230355E+02  0.17999056000E+03  0.17265671119E+03 0.  0.
         24    2    3    3    0    0 -0.36221182050E+02 -0.35248740177E+01 -0.50578295427E+02  0.10119073228E+03  0.79730806877E+02 0.  0.
         -6    2    1    2    0  502 -0.29140015266E+02  0.35914810779E+02 -0.16950675211E+03  0.24471237618E+03  0.17033083667E+03 0.  0.
        -24    2    5    5    0    0 -0.77291865972E+02  0.22232248027E+02 -0.71601795707E+02  0.13465201211E+03  0.80845790368E+02 0.  0.
          5    1    3    3  501    0  0.65361197317E+02 -0.32389936761E+02  0.29430065072E+02  0.78799827717E+02  0.47000000000E+01 0. -1.
        -11    1    4    4    0    0  0.10222798832E+02 -0.29482267974E+01  0.16480898203E+02  0.19616769937E+02  0.00000000000E+00 0.  1.
         12    1    4    4    0    0 -0.46443980882E+02 -0.57664722030E+00 -0.67059193629E+02  0.81573962343E+02  0.00000000000E+00 0. -1.
         -5    1    5    5    0  502  0.48151850706E+02  0.13682562752E+02 -0.97904956405E+02  0.11006036407E+03  0.47000000000E+01 0.  1.
         11    1    6    6    0    0 -0.63256813282E+02 -0.45702591009E+01 -0.81088283064E+02  0.10294474899E+03  0.00000000000E+00 0. -1.
        -12    1    6    6    0    0 -0.14035052690E+02  0.26802507128E+02  0.94864873569E+01  0.31707263122E+02  0.00000000000E+00 0.  1.
</event>
<event>
12    1  0.1061634E+000  0.1761166E+03  0.7818608E-02  0.1172098E+00
         21   -1    0    0  503  502  0.00000000000E+00  0.00000000000E+00  0.30692304430E+03  0.30692304430E+03  0.00000000000E+00 0.  1.
         21   -1    0    0  501  503 -0.00000000000E+00 -0.00000000000E+00 -0.14602380003E+03  0.14602380003E+03  0.00000000000E+00 0.  1.
          6    2    1    2  501    0 -0.31398347934E+02 -0.12309054208E+02  0.20795675253E+03  0.27251250481E+03  0.17285741317E+03 0.  0.
         24    2    3    3    0    0 -0.54142304777E+02  0.18452315700E+02  0.21281996729E+03  0.23366291911E+03  0.77679753920E+02 0.  0.
         -6    2    1    2    0  502  0.31398347934E+02  0.12309054208E+02 -0.47057508270E+02  0.18043433952E+03  0.17089403946E+03 0.  0.
        -24    2    5    5    0    0  0.52734903169E+01 -0.57426581923E+02 -0.16930519109E+02  0.99965136664E+02  0.79879684898E+02 0.  0.
          5    1    3    3  501    0  0.22743956843E+02 -0.30761369908E+02 -0.48632147570E+01  0.38849585703E+02  0.47000000000E+01 0. -1.
        -13    1    4    4    0    0 -0.68650808759E+02 -0.48978037458E+01  0.14601003905E+03  0.16141825649E+03  0.00000000000E+00 0.  1.
         14    1    4    4    0    0  0.14508503981E+02  0.23350119446E+02  0.66809928244E+02  0.72244662626E+02  0.00000000000E+00 0. -1.
         -5    1    5    5    0  502  0.26124857617E+02  0.69735636132E+02 -0.30126989161E+02  0.80469202855E+02  0.47000000000E+01 0.  1.
         11    1    6    6    0    0 -0.14324422857E+02 -0.23837743361E+02  0.28732173608E+02  0.39987059144E+02  0.00000000000E+00 0. -1.
        -12    1    6    6    0    0  0.19597913174E+02 -0.33588838562E+02 -0.45662692717E+02  0.59978077520E+02  0.00000000000E+00 0.  1.
</event>
<event>
12    1  0.1061634E+000  0.2284173E+03  0.7818608E-02  0.1128237E+00
         21   -1    0    0  501  502  0.00000000000E+00  0.00000000000E+00  0.48985041748E+03  0.48985041748E+03  0.00000000000E+00 0. -1.
         21   -1    0    0  502  503 -0.00000000000E+00 -0.00000000000E+00 -0.26117372674E+03  0.26117372674E+03  0.00000000000E+00 0.  1.
         -6    2    1    2    0  503 -0.13417073594E+03 -0.64763155660E+02  0.40419459564E+03  0.46295988578E+03  0.16959520037E+03 0.  0.
        -24    2    3    3    0    0 -0.39920517629E+02  0.20562393122E+02  0.11628354370E+03  0.14819264359E+03  0.80141982391E+02 0.  0.
          6    2    1    2  501    0  0.13417073594E+03  0.64763155660E+02 -0.17551790489E+03  0.28806425844E+03  0.17314280043E+03 0.  0.
         24    2    5    5    0    0  0.11110723708E+03 -0.21840218219E+02 -0.11201839717E+03  0.17812633583E+03  0.79743695360E+02 0.  0.
          5    1    5    5  501    0  0.23063498863E+02  0.86603373879E+02 -0.63499507718E+02  0.10993792261E+03  0.47000000000E+01 0. -1.
        -11    1    6    6    0    0  0.41944496764E+02 -0.10232111833E+02  0.31461848739E+01  0.43288975509E+02  0.00000000000E+00 0.  1.
         12    1    6    6    0    0  0.69162740312E+02 -0.11608106386E+02 -0.11516458204E+03  0.13483736032E+03  0.00000000000E+00 0. -1.
         -5    1    3    3    0  503 -0.94250218309E+02 -0.85325548781E+02  0.28791105194E+03  0.31476724219E+03  0.47000000000E+01 0.  1.
         13    1    4    4    0    0  0.51638256748E+01  0.26978880510E+02  0.93148648385E+02  0.97114343869E+02  0.00000000000E+00 0. -1.
        -14    1    4    4    0    0 -0.45084343304E+02 -0.64164873886E+01  0.23134895312E+02  0.51078299724E+02  0.00000000000E+00 0.  1.
</event>
<event>
12    1  0.1061634E+000  0.1906456E+03  0.7818608E-02  0.1157946E+00
         21   -1    0    0  501  502  0.00000000000E+00  0.00000000000E+00  0.27643319432E+03  0.27643319432E+03  0.00000000000E+00 0.  1.
         21   -1    0    0  502  503 -0.00000000000E+00 -0.00000000000E+00 -0.17199103407E+03  0.17199103407E+03  0.00000000000E+00 0.  1.
         -6    2    1    2    0  503 -0.55392490117E+02 -0.60147712838E+02  0.16133532476E+03  0.24974954458E+03  0.17221983823E+03 0.  0.
        -24    2    3    3    0    0  0.24530437081E+02 -0.28080299773E+02  0.13018191673E+03  0.15805102712E+03  0.81501841388E+02 0.  0.
          6    2    1    2  501    0  0.55392490117E+02  0.60147712838E+02 -0.56893164507E+02  0.19867468382E+03  0.17189741855E+03 0.  0.
         24    2    5    5    0    0 -0.22471387327E+01  0.20860682206E+02 -0.86420826028E+02  0.12278153272E+03  0.84655347793E+02 0.  0.
          5    1    5    5  501    0  0.57639628850E+02  0.39287030632E+02  0.29527661521E+02  0.75893151105E+02  0.47000000000E+01 0. -1.
        -13    1    6    6    0    0 -0.10135545618E+01  0.14496218058E+02  0.15156632056E+02  0.20997407604E+02  0.00000000000E+00 0.  1.
         14    1    6    6    0    0 -0.12335841709E+01  0.63644641479E+01 -0.10157745808E+03  0.10178412511E+03  0.00000000000E+00 0. -1.
         -5    1    3    3    0  503 -0.79922927198E+02 -0.32067413065E+02  0.31153408026E+02  0.91698517459E+02  0.47000000000E+01 0.  1.
         11    1    4    4    0    0 -0.26842503892E+02 -0.22179933585E+02  0.73466030374E+02  0.81300228092E+02  0.00000000000E+00 0. -1.
        -12    1    4    4    0    0  0.51372940973E+02 -0.59003661874E+01  0.56715886359E+02  0.76750799024E+02  0.00000000000E+00 0.  1.
</event>
<event>
12    1  0.1061634E+000  0.1845292E+03  0.7818608E-02  0.1163665E+00
         21   -1    0    0  501  502  0.00000000000E+00  0.00000000000E+00  0.76154612715E+03  0.76154612715E+03  0.00000000000E+00 0.  1.
         21   -1    0    0  502  503 -0.00000000000E+00 -0.00000000000E+00 -0.65081089362E+02  0.65081089362E+02  0.00000000000E+00 0. -1.
         -6    2    1    2    0  503  0.14893817650E+02 -0.59045137810E+02  0.57999101624E+03  0.60841352939E+03  0.17340498759E+03 0.  0.
        -24    2    3    3    0    0 -0.21113585158E+02 -0.48895855489E+02  0.16200696910E+03  0.18873234724E+03  0.80852041994E+02 0.  0.
          6    2    1    2  501    0 -0.14893817650E+02  0.59045137810E+02  0.11647402155E+03  0.21821368712E+03  0.17419202464E+03 0.  0.
         24    2    5    5    0    0 -0.72368907586E+02  0.32749618508E+02  0.10302363224E+03  0.15342292180E+03  0.81332206638E+02 0.  0.
          5    1    5    5  501    0  0.57475089936E+02  0.26295519302E+02  0.13450389309E+02  0.64790765323E+02  0.47000000000E+01 0. -1.
        -13    1    6    6    0    0 -0.10743490384E+01  0.41752827786E+02  0.40276820182E+02  0.58023056606E+02  0.00000000000E+00 0.  1.
         14    1    6    6    0    0 -0.71294558548E+02 -0.90032092785E+01  0.62746812058E+02  0.95399865195E+02  0.00000000000E+00 0. -1.
         -5    1    3    3    0  503  0.36007402807E+02 -0.10149282321E+02  0.41798404714E+03  0.41968118215E+03  0.47000000000E+01 0.  1.
         11    1    4    4    0    0  0.50026017164E+00 -0.11196903882E+02 -0.76686422567E+01  0.13580463572E+02  0.00000000000E+00 0. -1.
        -12    1    4    4    0    0 -0.21613845329E+02 -0.37698951607E+02  0.16967561136E+03  0.17515188366E+03  0.00000000000E+00 0.  1.
</event>
<event>
12    1  0.1061634E+000  0.1998989E+03  0.7818608E-02  0.1150114E+00
         21   -1    0    0  503  502  0.00000000000E+00  0.00000000000E+00  0.42684176886E+03  0.42684176886E+03  0.00000000000E+00 0.  1.
         21   -1    0    0  501  503 -0.00000000000E+00 -0.00000000000E+00 -0.93488485204E+02  0.93488485204E+02  0.00000000000E+00 0.  1.
          6    2    1    2  501    0  0.10027305660E+03  0.93291368395E+01  0.14687857086E+03  0.24695802416E+03  0.17109422096E+03 0.  0.
         24    2    3    3    0    0  0.27390642223E+02  0.66300458945E+02  0.85298035398E+02  0.13572929489E+03  0.77464111107E+02 0.  0.
         -6    2    1    2    0  502 -0.10027305660E+03 -0.93291368395E+01  0.18647471280E+03  0.27337222991E+03  0.17267842626E+03 0.  0.
        -24    2    5    5    0    0  0.45644487184E+01  0.23345937401E+02  0.51906909561E+02  0.99621987699E+02  0.81635446883E+02 0.  0.
          5    1    3    3  501    0  0.72882414380E+02 -0.56971322106E+02  0.61580535457E+02  0.11122872927E+03  0.47000000000E+01 0. -1.
        -13    1    4    4    0    0 -0.19594790009E+02  0.12783789868E+02 -0.15126366736E+01  0.23445023963E+02  0.00000000000E+00 0.  1.
         14    1    4    4    0    0  0.46985432232E+02  0.53516669077E+02  0.86810672072E+02  0.11228427092E+03  0.00000000000E+00 0. -1.
         -5    1    5    5    0  502 -0.10483750532E+03 -0.32675074241E+02  0.13456780324E+03  0.17375024221E+03  0.47000000000E+01 0.  1.
         11    1    6    6    0    0  0.90104001376E+01 -0.26871867182E+01 -0.20497572306E+02  0.22551247273E+02  0.00000000000E+00 0. -1.
        -12    1    6    6    0    0 -0.44459514192E+01  0.26033124119E+02  0.72404481867E+02  0.77070740427E+02  0.00000000000E+00 0.  1.
</event>
<event>
12    1  0.1061634E+000  0.2702111E+03  0.7818608E-02  0.1101678E+00
         21   -1    0    0  503  502  0.00000000000E+00  0.00000000000E+00  0.12872884644E+04  0.12872884644E+04  0.00000000000E+00 0.  1.
         21   -1    0    0  501  503 -0.00000000000E+00 -0.00000000000E+00 -0.11616357680E+03  0.11616357680E+03  0.00000000000E+00 0.  1.
          6    2    1    2  501    0 -0.19822720180E+03  0.61508962135E+02  0.10888192427E+04  0.11209838530E+04  0.16733224245E+03 0.  0.
         24    2    3    3    0    0 -0.19362340155E+03  0.27822119010E+02  0.71383795228E+03  0.74443497627E+03  0.79716496619E+02 0.  0.
         -6    2    1    2    0  502  0.19822720180E+03 -0.61508962135E+02  0.82305644923E+02  0.28246818826E+03  0.17302220156E+03 0.  0.
        -24    2    5    5    0    0  0.21396843188E+03 -0.25820252508E+02  0.63713921333E+02  0.23900311601E+03  0.81325582742E+02 0.  0.
          5    1    3    3  501    0 -0.46038002536E+01  0.33686843125E+02  0.37498129042E+03  0.37654887670E+03  0.47000000000E+01 0. -1.
        -11    1    4    4    0    0 -0.11178682324E+03 -0.22133812259E+02  0.42982066734E+03  0.44467067091E+03  0.00000000000E+00 0.  1.
         12    1    4    4    0    0 -0.81836578313E+02  0.49955931269E+02  0.28401728495E+03  0.29976430536E+03  0.00000000000E+00 0. -1.
         -5    1    5    5    0  502 -0.15741230082E+02 -0.35688709627E+02  0.18591723590E+02  0.43465072246E+02  0.47000000000E+01 0.  1.
         11    1    6    6    0    0  0.16271572900E+03  0.14267736581E+02  0.31314527377E+02  0.16631469086E+03  0.00000000000E+00 0. -1.
        -12    1    6    6    0    0  0.51252702888E+02 -0.40087989089E+02  0.32399393956E+02  0.72688425153E+02  0.00000000000E+00 0.  1.
</event>
<event>
12    1  0.1061634E+000  0.2712867E+03  0.7818608E-02  0.1100617E+00
         21   -1    0    0  501  502  0.00000000000E+00  0.00000000000E+00  0.17419212602E+03  0.17419212602E+03  0.00000000000E+00 0. -1.
         21   -1    0    0  502  503 -0.00000000000E+00 -0.00000000000E+00 -0.42791951406E+03  0.42791951406E+03  0.00000000000E+00 0. -1.
         -6    2    1    2    0  503  0.20898996928E+03 -0.80338747967E+01 -0.16320486846E+03  0.31659486177E+03  0.17278636233E+03 0.  0.
        -24    2    3    3    0    0  0.14495205520E+03  0.59416095525E+02 -0.12620193078E+03  0.21638677661E+03  0.79717871533E+02 0.  0.
          6    2    1    2  501    0 -0.20898996928E+03  0.80338747967E+01 -0.90522519574E+02  0.28551677831E+03  0.17200044693E+03 0.  0.
         24    2    5    5    0    0 -0.61798167108E+02  0.24546850319E+02  0.92471239933E+01  0.10687138441E+03  0.83153004660E+02 0.  0.
          5    1    5    5  501    0 -0.14719180217E+03 -0.16512975522E+02 -0.99769643567E+02  0.17864539391E+03  0.47000000000E+01 0. -1.
        -13    1    6    6    0    0 -0.49460171965E+02  0.37875057596E+02 -0.25776571918E+02  0.67418545361E+02  0.00000000000E+00 0.  1.
         14    1    6    6    0    0 -0.12337995143E+02 -0.13328207277E+02  0.35023695911E+02  0.39452839044E+02  0.00000000000E+00 0. -1.
         -5    1    3    3    0  503  0.64037914075E+02 -0.67449970322E+02 -0.37002937675E+02  0.10020808516E+03  0.47000000000E+01 0.  1.
         13    1    4    4    0    0  0.68048025990E+02  0.62269057084E+02 -0.97591740826E+02  0.13428371900E+03  0.00000000000E+00 0. -1.
        -14    1    4    4    0    0  0.76904029213E+02 -0.28529615591E+01 -0.28610189958E+02  0.82103057606E+02  0.00000000000E+00 0.  1.
</event>
<event>
12    1  0.1061634E+000  0.4794806E+03  0.7818608E-02  0.1019304E+00
         21   -1    0    0  501  502  0.00000000000E+00  0.00000000000E+00  0.20622482327E+03  0.20622482327E+03  0.00000000000E+00 0. -1.
         21   -1    0    0  502  503 -0.00000000000E+00 -0.00000000000E+00 -0.11434813591E+04  0.11434813591E+04  0.00000000000E+00 0. -1.
         -6    2    1    2    0  503  0.59080321033E+02  0.44329548240E+03 -0.57726957977E+03  0.75042774053E+03  0.17291690772E+03 0.  0.
        -24    2    3    3    0    0  0.79826253285E+02  0.39135983671E+03 -0.55852028438E+03  0.69125569412E+03  0.79716836947E+02 0.  0.
          6    2    1    2  501    0 -0.59080321033E+02 -0.44329548240E+03 -0.35998695608E+03  0.59927844186E+03  0.17187982221E+03 0.  0.
         24    2    5    5    0    0 -0.86689419963E+02 -0.22805779238E+03 -0.14669481470E+03  0.29496749378E+03  0.77207781515E+02 0.  0.
          5    1    5    5  501    0  0.27609098931E+02 -0.21523769002E+03 -0.21329214139E+03  0.30431094809E+03  0.47000000000E+01 0. -1.
        -11    1    6    6    0    0 -0.16864789081E+02 -0.75533114762E+02 -0.89428952771E+01  0.77907945117E+02  0.00000000000E+00 0.  1.
         12    1    6    6    0    0 -0.69824630882E+02 -0.15252467762E+03 -0.13775191942E+03  0.21705954866E+03  0.00000000000E+00 0. -1.
         -5    1    3    3    0  503 -0.20745932252E+02  0.51935645693E+02 -0.18749295398E+02  0.59172046411E+02  0.47000000000E+01 0.  1.
         11    1    4    4    0    0  0.10508655380E+02  0.49358607394E+01 -0.35059776756E+02  0.36932133777E+02  0.00000000000E+00 0. -1.
        -12    1    4    4    0    0  0.69317597904E+02  0.38642397597E+03 -0.52346050762E+03  0.65432356034E+03  0.00000000000E+00 0.  1.
</event>
<event>
12    1  0.1061634E+000  0.2073562E+03  0.7818608E-02  0.1143725E+00
         21   -1    0    0  501  502  0.00000000000E+00  0.00000000000E+00  0.10974084403E+03  0.10974084403E+03  0.00000000000E+00 0. -1.
         21   -1    0    0  502  503 -0.00000000000E+00 -0.00000000000E+00 -0.39292424993E+03  0.39292424993E+03  0.00000000000E+00 0. -1.
         -6    2    1    2    0  503 -0.73288650889E+02 -0.88684580232E+02 -0.12561636243E+03  0.24223477950E+03  0.17222670168E+03 0.  0.
        -24    2    3    3    0    0 -0.78682188192E+02 -0.12653068311E+03 -0.10375096021E+03  0.19794478558E+03  0.78847802041E+02 0.  0.
          6    2    1    2  501    0  0.73288650889E+02  0.88684580232E+02 -0.15756704347E+03  0.26043031445E+03  0.17251201227E+03 0.  0.
         24    2    5    5    0    0  0.11404273373E+03  0.70746798841E+02 -0.13785717989E+03  0.21150968494E+03  0.87868595711E+02 0.  0.
          5    1    5    5  501    0 -0.40754082842E+02  0.17937781391E+02 -0.19709863576E+02  0.48920629511E+02  0.47000000000E+01 0. -1.
        -11    1    6    6    0    0  0.19200432166E+02  0.62272557438E+02 -0.54158669016E+02  0.84733048068E+02  0.00000000000E+00 0.  1.
         12    1    6    6    0    0  0.94842301566E+02  0.84742414023E+01 -0.83698510879E+02  0.12677663687E+03  0.00000000000E+00 0. -1.
         -5    1    3    3    0  503  0.53935373024E+01  0.37846102876E+02 -0.21865402224E+02  0.44289993926E+02  0.47000000000E+01 0.  1.
         13    1    4    4    0    0 -0.12043961926E+02 -0.58323831646E+02 -0.36066453324E+01  0.59663508507E+02  0.00000000000E+00 0. -1.
        -14    1    4    4    0    0 -0.66638226266E+02 -0.68206851461E+02 -0.10014431488E+03  0.13828127707E+03  0.00000000000E+00 0.  1.
</event>
<event>
12    1  0.1061634E+000  0.2196731E+03  0.7818608E-02  0.1134259E+00
         21   -1    0    0  503  502  0.00000000000E+00  0.00000000000E+00  0.17404143691E+03  0.17404143691E+03  0.00000000000E+00 0.  1.
         21   -1    0    0  501  503 -0.00000000000E+00 -0.00000000000E+00 -0.32672936066E+03  0.32672936066E+03  0.00000000000E+00 0.  1.
          6    2    1    2  501    0  0.84063302074E+02  0.10576700536E+03  0.22054833760E+02  0.22007289244E+03  0.17231472402E+03 0.  0.
         24    2    3    3    0    0  0.87244444136E+01  0.12981346517E+02  0.38591933726E+02  0.99322374278E+02  0.90171865877E+02 0.  0.
         -6    2    1    2    0  502 -0.84063302074E+02 -0.10576700536E+03 -0.17474275751E+03  0.28069790513E+03  0.17321369595E+03 0.  0.
        -24    2    5    5    0    0 -0.29972036997E+02 -0.12056698020E+03 -0.73556760864E+02  0.16491534975E+03  0.79697903355E+02 0.  0.
          5    1    3    3  501    0  0.75338857660E+02  0.92785658845E+02 -0.16537099966E+02  0.12075051816E+03  0.47000000000E+01 0. -1.
        -13    1    4    4    0    0  0.41601375734E+02 -0.10315348674E+02  0.40519130772E+02  0.58982038281E+02  0.00000000000E+00 0.  1.
         14    1    4    4    0    0 -0.32876931321E+02  0.23296695191E+02 -0.19271970459E+01  0.40340335997E+02  0.00000000000E+00 0. -1.
         -5    1    5    5    0  502 -0.54091265077E+02  0.14799974837E+02 -0.10118599665E+03  0.11578255538E+03  0.47000000000E+01 0.  1.
         11    1    6    6    0    0 -0.53447014807E+02 -0.79661777172E+02 -0.67649725368E+02  0.11738427270E+03  0.00000000000E+00 0. -1.
        -12    1    6    6    0    0  0.23474977810E+02 -0.40905203027E+02 -0.59070354962E+01  0.47531077057E+02  0.00000000000E+00 0.  1.
</event>
<event>
12    1  0.1061634E+000  0.3109051E+03  0.7818608E-02  0.1080036E+00
         21   -1    0    0  501  502  0.00000000000E+00  0.00000000000E+00  0.27323443297E+03  0.27323443297E+03  0.00000000000E+00 0. -1.
         21   -1    0    0  502  503 -0.00000000000E+00 -0.00000000000E+00 -0.35378346583E+03  0.35378346583E+03  0.00000000000E+00 0. -1.
         -6    2    1    2    0  503  0.25765091910E+03 -0.22387630662E+02 -0.58363155120E+02  0.31532222559E+03  0.17069459848E+03 0.  0.
        -24    2    3    3    0    0  0.88784550332E+02 -0.60728976931E+02 -0.50007919555E+02  0.14189267419E+03  0.77859064688E+02 0.  0.
          6    2    1    2  501    0 -0.25765091910E+03  0.22387630662E+02 -0.22185877734E+02  0.31169567322E+03  0.17255948948E+03 0.  0.
         24    2    5    5    0    0 -0.25870786827E+03  0.16629502063E+02 -0.56000033847E+02  0.27705811643E+03  0.80118004510E+02 0.  0.
          5    1    5    5  501    0  0.10569491661E+01  0.57581285989E+01  0.33814156113E+02  0.34637556786E+02  0.47000000000E+01 0. -1.
        -13    1    6    6    0    0 -0.17777069554E+03 -0.23904689281E+02 -0.23610494698E+02  0.18091796434E+03  0.00000000000E+00 0.  1.
         14    1    6    6    0    0 -0.80937172730E+02  0.40534191344E+02 -0.32389539149E+02  0.96140152089E+02  0.00000000000E+00 0. -1.
         -5    1    3    3    0  503  0.16886636877E+03  0.38341346269E+02 -0.83552355647E+01  0.17342955139E+03  0.47000000000E+01 0.  1.
         11    1    4    4    0    0  0.76156599319E+01  0.26995995107E+01  0.17125207334E+02  0.18935649975E+02  0.00000000000E+00 0. -1.
        -12    1    4    4    0    0  0.81168890400E+02 -0.63428576441E+02 -0.67133126890E+02  0.12295702422E+03  0.00000000000E+00 0.  1.
</event>
<event>
12    1  0.1061634E+000  0.2602714E+03  0.7818608E-02  0.1107352E+00
         21   -1    0    0  503  502  0.00000000000E+00  0.00000000000E+00  0.42526241250E+03  0.42526241250E+03  0.00000000000E+00 0.  1.
         21   -1    0    0  501  503 -0.00000000000E+00 -0.00000000000E+00 -0.15844291181E+03  0.15844291181E+03  0.00000000000E+00 0. -1.
          6    2    1    2  501    0  0.46329980876E+02  0.18531895412E+03  0.11400159794E+03  0.28188660739E+03  0.17313033589E+03 0.  0.
         24    2    3    3    0    0  0.47028516801E+02  0.69902176705E+02  0.11865879084E+03  0.16627821709E+03  0.80439673886E+02 0.  0.
         -6    2    1    2    0  502 -0.46329980876E+02 -0.18531895412E+03  0.15281790276E+03  0.30181871692E+03  0.17678134686E+03 0.  0.
        -24    2    5    5    0    0 -0.84812629409E+02 -0.14982075289E+03  0.16074710613E+03  0.24865859282E+03  0.79699583118E+02 0.  0.
          5    1    3    3  501    0 -0.69853592428E+00  0.11541677741E+03 -0.46571928987E+01  0.11560839030E+03  0.47000000000E+01 0. -1.
        -11    1    4    4    0    0  0.19261041004E+02  0.78967397115E+02  0.10803243617E+03  0.13519557971E+03  0.00000000000E+00 0.  1.
         12    1    4    4    0    0  0.27767475797E+02 -0.90652204098E+01  0.10626354672E+02  0.31082637385E+02  0.00000000000E+00 0. -1.
         -5    1    5    5    0  502  0.38482648533E+02 -0.35498201228E+02 -0.79292033744E+01  0.53160124103E+02  0.47000000000E+01 0.  1.
         11    1    6    6    0    0 -0.24504273518E+02 -0.11289568091E+03  0.12202730530E+03  0.16803736914E+03  0.00000000000E+00 0. -1.
        -12    1    6    6    0    0 -0.60308355891E+02 -0.36925071978E+02  0.38719800834E+02  0.80621223679E+02  0.00000000000E+00 0.  1.
</event>
<event>
12    1  0.1061634E+000  0.4322543E+03  0.7818608E-02  0.1033153E+00
         21   -1    0    0  503  502  0.00000000000E+00  0.00000000000E+00  0.22067826302E+04  0.22067826302E+04  0.00000000000E+00 0. -1.
         21   -1    0    0  501  503 -0.00000000000E+00 -0.00000000000E+00 -0.88791509062E+02  0.88791509062E+02  0.00000000000E+00 0. -1.
          6    2    1    2  501    0  0.33568194524E+03 -0.21070786286E+03  0.13065865788E+04  0.13762311904E+04  0.17252138844E+03 0.  0.
         24    2    3    3    0    0  0.14116543983E+03 -0.76565253732E+02  0.37988994170E+03  0.41987369561E+03  0.78661508895E+02 0.  0.
         -6    2    1    2    0  502 -0.33568194524E+03  0.21070786286E+03  0.81140454231E+03  0.91934294892E+03  0.17243536359E+03 0.  0.
        -24    2    5    5    0    0 -0.96573814928E+02  0.11619938026E+03  0.26623921001E+03  0.31657277647E+03  0.80661069589E+02 0.  0.
          5    1    3    3  501    0  0.19451650540E+03 -0.13414260913E+03  0.92669663714E+03  0.95635749474E+03  0.47000000000E+01 0. -1.
        -13    1    4    4    0    0  0.11865543239E+03 -0.89784497491E+02  0.34922015750E+03  0.37959858539E+03  0.00000000000E+00 0.  1.
         14    1    4    4    0    0  0.22510007445E+02  0.13219243759E+02  0.30669784194E+02  0.40275110220E+02  0.00000000000E+00 0. -1.
         -5    1    5    5    0  502 -0.23910813031E+03  0.94508482599E+02  0.54516533229E+03  0.60277017245E+03  0.47000000000E+01 0.  1.
         11    1    6    6    0    0 -0.99408171935E+02  0.68381846703E+02  0.16335070130E+03  0.20308006604E+03  0.00000000000E+00 0. -1.
        -12    1    6    6    0    0  0.28343570069E+01  0.47817533558E+02  0.10288850871E+03  0.11349271043E+03  0.00000000000E+00 0.  1.
</event>
<event>
12    1  0.1061634E+000  0.1821027E+03  0.7818608E-02  0.1166365E+00
         21   -1    0    0  501  502  0.00000000000E+00  0.00000000000E+00  0.33607196613E+02  0.33607196613E+02  0.00000000000E+00 0.  1.
         21   -1    0    0  502  503 -0.00000000000E+00 -0.00000000000E+00 -0.12743491883E+04  0.12743491883E+04  0.00000000000E+00 0.  1.
         -6    2    1    2    0  503  0.31079971951E+02 -0.53304450602E+02 -0.29952221157E+03  0.34928227090E+03  0.16875194942E+03 0.  0.
        -24    2    3    3    0    0  0.13394074569E+02  0.32351258399E+02 -0.11017770581E+03  0.14066030822E+03  0.80126089996E+02 0.  0.
          6    2    1    2  501    0 -0.31079971951E+02  0.53304450602E+02 -0.94121978009E+03  0.95867411399E+03  0.17133024625E+03 0.  0.
         24    2    5    5    0    0 -0.29598146087E+02  0.72564013036E+02 -0.92751065691E+03  0.93452547818E+03  0.83188126803E+02 0.  0.
          5    1    5    5  501    0 -0.14818258639E+01 -0.19259562434E+02 -0.13709123184E+02  0.24148635811E+02  0.47000000000E+01 0. -1.
        -11    1    6    6    0    0 -0.12237436578E+02  0.19909886955E+02 -0.49217209817E+02  0.54483870959E+02  0.00000000000E+00 0.  1.
         12    1    6    6    0    0 -0.17360709509E+02  0.52654126081E+02 -0.87829344709E+03  0.88004160722E+03  0.00000000000E+00 0. -1.
         -5    1    3    3    0  503  0.17685897382E+02 -0.85655709001E+02 -0.18934450576E+03  0.20862196268E+03  0.47000000000E+01 0.  1.
         13    1    4    4    0    0  0.12408014179E+02 -0.17673346742E+02 -0.22651255699E+01  0.21712595303E+02  0.00000000000E+00 0. -1.
        -14    1    4    4    0    0  0.98606038951E+00  0.50024605142E+02 -0.10791258024E+03  0.11894771292E+03  0.00000000000E+00 0.  1.
</event>
<event>
12    1  0.1061634E+000  0.2445897E+03  0.7818608E-02  0.1116874E+00
         21   -1    0    0  501  502  0.00000000000E+00  0.00000000000E+00  0.71930645937E+02  0.71930645937E+02  0.00000000000E+00 0.  1.
         21   -1    0    0  502  503 -0.00000000000E+00 -0.00000000000E+00 -0.83658066826E+03  0.83658066826E+03  0.00000000000E+00 0.  1.
         -6    2    1    2    0  503  0.49956832834E+01  0.17322592023E+03 -0.34026960375E+03  0.41869208777E+03  0.17171920347E+03 0.  0.
        -24    2    3    3    0    0  0.23827279365E+02  0.15678159718E+03 -0.34970481563E+03  0.39155985612E+03  0.76664557608E+02 0.  0.
          6    2    1    2  501    0 -0.49956832834E+01 -0.17322592023E+03 -0.42438041857E+03  0.48981922642E+03  0.17260347219E+03 0.  0.
         24    2    5    5    0    0 -0.36764056300E+02 -0.82663113083E+02 -0.11913620929E+03  0.16980833776E+03  0.80353276896E+02 0.  0.
          5    1    5    5  501    0  0.31768373017E+02 -0.90562807143E+02 -0.30524420928E+03  0.32001088866E+03  0.47000000000E+01 0. -1.
        -11    1    6    6    0    0  0.23050387665E+02 -0.31588764475E+02 -0.22165608735E+02  0.44949801147E+02  0.00000000000E+00 0.  1.
         12    1    6    6    0    0 -0.59814443966E+02 -0.51074348608E+02 -0.96970600554E+02  0.12485853661E+03  0.00000000000E+00 0. -1.
         -5    1    3    3    0  503 -0.18831596082E+02  0.16444323042E+02  0.94352118806E+01  0.27132231654E+02  0.47000000000E+01 0.  1.
         11    1    4    4    0    0 -0.15621850251E+02  0.10575779214E+03 -0.17203225280E+03  0.20254344918E+03  0.00000000000E+00 0. -1.
        -12    1    4    4    0    0  0.39449129617E+02  0.51023805039E+02 -0.17767256283E+03  0.18901640693E+03  0.00000000000E+00 0.  1.
</event>
<event>
12    1  0.1061634E+000  0.1913077E+03  0.7818608E-02  0.1157409E+00
         21   -1    0    0  503  502  0.00000000000E+00  0.00000000000E+00  0.13617004200E+03  0.13617004200E+03  0.00000000000E+00 0.  1.
         21   -1    0    0  501  503 -0.00000000000E+00 -0.00000000000E+00 -0.39203334888E+03  0.39203334888E+03  0.00000000000E+00 0.  1.
          6    2    1    2  501    0 -0.76689576130E+02 -0.95665600013E+01  0.20492099801E+02  0.19240212078E+03  0.17500239932E+03 0.  0.
         24    2    3    3    0    0 -0.89932061602E+02  0.56801081380E+01  0.69902897581E+02  0.13881722320E+03  0.79143963984E+02 0.  0.
         -6    2    1    2    0  502  0.76689576130E+02  0.95665600013E+01 -0.27635540668E+03  0.33580127010E+03  0.17440576839E+03 0.  0.
        -24    2    5    5    0    0  0.72416534211E+02  0.12968007732E+02 -0.71074964963E+02  0.13039440925E+03  0.80862399597E+02 0.  0.
          5    1    3    3  501    0  0.13242485472E+02 -0.15246668139E+02 -0.49410797780E+02  0.53584897575E+02  0.47000000000E+01 0. -1.
        -11    1    4    4    0    0 -0.87726468290E+02 -0.60934012353E+01  0.23684003920E+02  0.91071372115E+02  0.00000000000E+00 0.  1.
         12    1    4    4    0    0 -0.22055933116E+01  0.11773509373E+02  0.46218893661E+02  0.47745851087E+02  0.00000000000E+00 0. -1.
         -5    1    5    5    0  502  0.42730419193E+01 -0.34014477302E+01 -0.20528044171E+03  0.20540686085E+03  0.47000000000E+01 0.  1.
         11    1    6    6    0    0  0.49343112948E+01  0.33045505127E+02 -0.43337467544E+02  0.54721923670E+02  0.00000000000E+00 0. -1.
        -12    1    6    6    0    0  0.67482222916E+02 -0.20077497395E+02 -0.27737497419E+02  0.75672485584E+02  0.00000000000E+00 0.  1.
</event>
<event>
12    1  0.1061634E+000  0.2417217E+03  0.7818608E-02  0.1118676E+00
         21   -1    0    0  503  502  0.00000000000E+00  0.00000000000E+00  0.85386459326E+02  0.85386459326E+02  0.00000000000E+00 0.  1.
         21   -1    0    0  501  503 -0.00000000000E+00 -0.00000000000E+00 -0.79177960508E+03  0.79177960508E+03  0.00000000000E+00 0.  1.
          6    2    1    2  501    0 -0.14057559443E+03  0.96571281567E+02 -0.19118981237E+03  0.30807569301E+03  0.17108354129E+03 0.  0.
         24    2    3    3    0    0 -0.13101836263E+03  0.13315332515E+03 -0.16953314038E+03  0.26425003804E+03  0.78682765399E+02 0.  0.
         -6    2    1    2    0  502  0.14057559443E+03 -0.96571281567E+02 -0.51520333339E+03  0.56909037139E+03  0.17129467565E+03 0.  0.
        -24    2    5    5    0    0  0.12199075016E+03 -0.13348472210E+03 -0.44272405789E+03  0.48552402706E+03  0.83839580499E+02 0.  0.
          5    1    3    3  501    0 -0.95572317987E+01 -0.36582043585E+02 -0.21656671983E+02  0.43825654974E+02  0.47000000000E+01 0. -1.
        -11    1    4    4    0    0 -0.40918745106E+02  0.84558010820E+00 -0.49165393563E+02  0.63971045255E+02  0.00000000000E+00 0.  1.
         12    1    4    4    0    0 -0.90099617523E+02  0.13230774504E+03 -0.12036774682E+03  0.20027899278E+03  0.00000000000E+00 0. -1.
         -5    1    5    5    0  502  0.18584844267E+02  0.36913440533E+02 -0.72479275492E+02  0.83566344327E+02  0.47000000000E+01 0.  1.
         13    1    6    6    0    0  0.35863818245E+02 -0.57917902113E+02 -0.79695067751E+02  0.10484274256E+03  0.00000000000E+00 0. -1.
        -14    1    6    6    0    0  0.86126931916E+02 -0.75566819987E+02 -0.36302899014E+03  0.38068128450E+03  0.00000000000E+00 0.  1.
</event>
<event>
12    1  0.1061634E+000  0.3722541E+03  0.7818608E-02  0.1053992E+00
         21   -1    0    0  501  502  0.00000000000E+00  0.00000000000E+00  0.20330422931E+03  0.20330422931E+03  0.00000000000E+00 0. -1.
         21   -1    0    0  502  503 -0.00000000000E+00 -0.00000000000E+00 -0.68885828433E+03  0.68885828433E+03  0.00000000000E+00 0. -1.
         -6    2    1    2    0  503  0.23243304901E+03  0.23428156823E+03 -0.18880881263E+03  0.41739898359E+03  0.17222127712E+03 0.  0.
        -24    2    3    3    0    0  0.20305926260E+03  0.25459489859E+03 -0.17281803453E+03  0.37798774532E+03  0.83408848657E+02 0.  0.
          6    2    1    2  501    0 -0.23243304901E+03 -0.23428156823E+03 -0.29674524239E+03  0.47476353005E+03  0.16861107644E+03 0.  0.
         24    2    5    5    0    0 -0.10232556980E+03 -0.78450133454E+02 -0.59649148631E+02  0.16259684399E+03  0.79087085340E+02 0.  0.
          5    1    5    5  501    0 -0.13010747921E+03 -0.15583143477E+03 -0.23709609376E+03  0.31216668606E+03  0.47000000000E+01 0. -1.
        -11    1    6    6    0    0 -0.97709299022E+02 -0.65981933254E+02 -0.18488440094E+02  0.11934213442E+03  0.00000000000E+00 0.  1.
         12    1    6    6    0    0 -0.46162707782E+01 -0.12468200200E+02 -0.41160708537E+02  0.43254709563E+02  0.00000000000E+00 0. -1.
         -5    1    3    3    0  503  0.29373786410E+02 -0.20313330360E+02 -0.15990778100E+02  0.39411238278E+02  0.47000000000E+01 0.  1.
         11    1    4    4    0    0  0.10689984180E+03  0.15641977841E+03 -0.14299742094E+03  0.23736677453E+03  0.00000000000E+00 0. -1.
        -12    1    4    4    0    0  0.96159420798E+02  0.98175120182E+02 -0.29820613598E+02  0.14062097079E+03  0.00000000000E+00 0.  1.
</event>
<event>
12    1  0.1061634E+000  0.2158975E+03  0.7818608E-02  0.1137063E+00
         21   -1    0    0  503  502  0.00000000000E+00  0.00000000000E+00  0.26502976920E+02  0.26502976920E+02  0.00000000000E+00 0.  1.
         21   -1    0    0  501  503 -0.00000000000E+00 -0.00000000000E+00 -0.17781058592E+04  0.17781058592E+04  0.00000000000E+00 0.  1.
          6    2    1    2  501    0 -0.90501490740E+02 -0.93645760484E+02 -0.97737417721E+03  0.10008415779E+04  0.17164944952E+03 0.  0.
         24    2    3    3    0    0 -0.10715421367E+03 -0.31219804265E+02 -0.80617067072E+03  0.81779228448E+03  0.80102238096E+02 0.  0.
         -6    2    1    2    0  502  0.90501490740E+02  0.93645760484E+02 -0.77422870509E+03  0.80376725822E+03  0.17219660080E+03 0.  0.
        -24    2    5    5    0    0  0.60808122814E+01 -0.34647366769E+02 -0.18380738744E+03  0.19368087107E+03  0.49896972258E+02 0.  0.
          5    1    3    3  501    0  0.16652722927E+02 -0.62425956219E+02 -0.17120350650E+03  0.18304929344E+03  0.47000000000E+01 0. -1.
        -13    1    4    4    0    0 -0.53049502316E+01 -0.29059442795E+02 -0.30141650344E+03  0.30286053269E+03  0.00000000000E+00 0.  1.
         14    1    4    4    0    0 -0.10184926344E+03 -0.21603614699E+01 -0.50475416727E+03  0.51493175179E+03  0.00000000000E+00 0. -1.
         -5    1    5    5    0  502  0.84420678458E+02  0.12829312725E+03 -0.59042131765E+03  0.61008638715E+03  0.47000000000E+01 0.  1.
         11    1    6    6    0    0 -0.37807774872E+01 -0.62217268170E+01 -0.14192428879E+03  0.14211090004E+03  0.00000000000E+00 0. -1.
        -12    1    6    6    0    0  0.98615897686E+01 -0.28425639952E+02 -0.41883098651E+02  0.51569971030E+02  0.00000000000E+00 0.  1.
</event>
<event>
12    1  0.1061634E+000  0.1778438E+03  0.7818608E-02  0.1170813E+00
         21   -1    0    0  501  502  0.00000000000E+00  0.00000000000E+00  0.74501935200E+02  0.74501935200E+02  0.00000000000E+00 0.  1.
         21   -1    0    0  502  503 -0.00000000000E+00 -0.00000000000E+00 -0.61189222236E+03  0.61189222236E+03  0.00000000000E+00 0.  1.
         -6    2    1    2    0  503  0.13036419947E+02  0.20964209866E+02 -0.72556288429E+02  0.18870041391E+03  0.17243545134E+03 0.  0.
        -24    2    3    3    0    0  0.30073877569E+02  0.42979881568E+02 -0.10793717780E+03  0.14343605602E+03  0.78560546599E+02 0.  0.
          6    2    1    2  501    0 -0.13036419947E+02 -0.20964209866E+02 -0.46483399873E+03  0.49769374365E+03  0.17612203085E+03 0.  0.
         24    2    5    5    0    0  0.23552082479E+02  0.93776942726E+01 -0.83215343921E+02  0.11309754326E+03  0.72274608878E+02 0.  0.
          5    1    5    5  501    0 -0.36588502426E+02 -0.30341904138E+02 -0.38161865481E+03  0.38459620039E+03  0.47000000000E+01 0. -1.
        -11    1    6    6    0    0  0.34370431692E+02 -0.20630494601E+02 -0.64992099490E+02  0.76360440533E+02  0.00000000000E+00 0.  1.
         12    1    6    6    0    0 -0.10818349213E+02  0.30008188874E+02 -0.18223244431E+02  0.36737102727E+02  0.00000000000E+00 0. -1.
         -5    1    3    3    0  503 -0.17037457623E+02 -0.22015671702E+02  0.35380889373E+02  0.45264357894E+02  0.47000000000E+01 0.  1.
         11    1    4    4    0    0  0.25222494521E+02  0.36772244485E+02 -0.10669552246E+02  0.45849880474E+02  0.00000000000E+00 0. -1.
        -12    1    4    4    0    0  0.48513830484E+01  0.62076370822E+01 -0.97267625555E+02  0.97586175542E+02  0.00000000000E+00 0.  1.
</event>
<event>
12    1  0.1061634E+000  0.1767418E+03  0.7818608E-02  0.1171246E+00
         21   -1    0    0  503  502  0.00000000000E+00  0.00000000000E+00  0.46476044007E+03  0.46476044007E+03  0.00000000000E+00 0.  1.
         21   -1    0    0  501  503 -0.00000000000E+00 -0.00000000000E+00 -0.90423582885E+02  0.90423582885E+02  0.00000000000E+00 0.  1.
          6    2    1    2  501    0  0.21339991631E+02 -0.36211754809E+02  0.32936943768E+03  0.37379390782E+03  0.17167111758E+03 0.  0.
         24    2    3    3    0    0 -0.37007315860E+02 -0.50294396398E+02  0.13027765863E+03  0.16579786080E+03  0.81348599084E+02 0.  0.
         -6    2    1    2    0  502 -0.21339991631E+02  0.36211754809E+02  0.44967419503E+02  0.18139011514E+03  0.17062713332E+03 0.  0.
        -24    2    5    5    0    0  0.41863825454E+02  0.64559300044E+02  0.43581395206E+02  0.11194721141E+03  0.68646609758E+02 0.  0.
          5    1    3    3  501    0  0.58347307491E+02  0.14082641589E+02  0.19909177906E+03  0.20799604701E+03  0.47000000000E+01 0. -1.
        -11    1    4    4    0    0  0.23376001848E+02 -0.11488297055E+02  0.59696302965E+02  0.65131152448E+02  0.00000000000E+00 0.  1.
         12    1    4    4    0    0 -0.60383317708E+02 -0.38806099343E+02  0.70581355664E+02  0.10066670835E+03  0.00000000000E+00 0. -1.
         -5    1    5    5    0  502 -0.63203817084E+02 -0.28347545235E+02  0.13860242966E+01  0.69442903728E+02  0.47000000000E+01 0.  1.
         13    1    6    6    0    0  0.17889498607E+02  0.22128350971E+02  0.54970357165E+02  0.61898612617E+02  0.00000000000E+00 0. -1.
        -14    1    6    6    0    0  0.23974326847E+02  0.42430949073E+02 -0.11388961959E+02  0.50048598796E+02  0.00000000000E+00 0.  1.
</event>
<event>
12    1  0.1061634E+000  0.1858265E+03  0.7818608E-02  0.1162325E+00
         21   -1    0    0  501  502  0.00000000000E+00  0.00000000000E+00  0.67211224401E+02  0.67211224401E+02  0.00000000000E+00 0. -1.
         21   -1    0    0  502  503 -0.00000000000E+00 -0.00000000000E+00 -0.61844497494E+03  0.61844497494E+03  0.00000000000E+00 0. -1.
         -6    2    1    2    0  503  0.32143086736E+02 -0.63231471987E+02 -0.41689364160E+03  0.45635566581E+03  0.17154820964E+03 0.  0.
        -24    2    3    3    0    0  0.71311639844E+01 -0.22489920324E+02 -0.82322585224E+02  0.11835366570E+03  0.81694137673E+02 0.  0.
          6    2    1    2  501    0 -0.32143086736E+02  0.63231471987E+02 -0.13434010893E+03  0.22930053353E+03  0.17175585211E+03 0.  0.
         24    2    5    5    0    0 -0.77855959030E+02  0.64914928425E+01 -0.82555387950E+02  0.13978606959E+03  0.81369916659E+02 0.  0.
          5    1    5    5  501    0  0.45712872294E+02  0.56739979145E+02 -0.51784720983E+02  0.89514463938E+02  0.47000000000E+01 0. -1.
        -13    1    6    6    0    0 -0.64663777090E+02 -0.19365453849E+02 -0.87321357429E+02  0.11036958065E+03  0.00000000000E+00 0.  1.
         14    1    6    6    0    0 -0.13192181940E+02  0.25856946692E+02  0.47659694784E+01  0.29416488941E+02  0.00000000000E+00 0. -1.
         -5    1    3    3    0  503  0.25011922752E+02 -0.40741551663E+02 -0.33457105638E+03  0.33800200011E+03  0.47000000000E+01 0.  1.
         13    1    4    4    0    0 -0.20048476507E+02  0.23893855513E+02 -0.27746164208E+02  0.41745746727E+02  0.00000000000E+00 0. -1.
        -14    1    4    4    0    0  0.27179640491E+02 -0.46383775837E+02 -0.54576421016E+02  0.76607918971E+02  0.00000000000E+00 0.  1.
</event>
<event>
12    1  0.1061634E+000  0.1785050E+03  0.7818608E-02  0.1169690E+00
         21   -1    0    0  503  502  0.00000000000E+00  0.00000000000E+00  0.44434621501E+03  0.44434621501E+03  0.00000000000E+00 0.  1.
         21   -1    0    0  501  503 -0.00000000000E+00 -0.00000000000E+00 -0.25387696414E+03  0.25387696414E+03  0.00000000000E+00 0.  1.
          6    2    1    2  501    0  0.31315703247E+02 -0.33940571653E+02  0.39139810249E+03  0.42945481449E+03  0.17060576598E+03 0.  0.
         24    2    3    3    0    0  0.31477724700E+02  0.42716662810E+02  0.17906176153E+03  0.20365585626E+03  0.81222120838E+02 0.  0.
         -6    2    1    2    0  502 -0.31315703247E+02  0.33940571653E+02 -0.20092885162E+03  0.26876836466E+03  0.17242794076E+03 0.  0.
        -24    2    5    5    0    0 -0.21181856171E+02  0.89006254266E+02 -0.13823882970E+03  0.18458372766E+03  0.81181242605E+02 0.  0.
          5    1    3    3  501    0 -0.16202145371E+00 -0.76657234463E+02  0.21233634096E+03  0.22579895823E+03  0.47000000000E+01 0. -1.
        -13    1    4    4    0    0  0.32940268136E+02  0.23540399821E+02  0.17990590337E+03  0.18440538429E+03  0.00000000000E+00 0.  1.
         14    1    4    4    0    0 -0.14625434355E+01  0.19176262988E+02 -0.84414184271E+00  0.19250471967E+02  0.00000000000E+00 0. -1.
         -5    1    5    5    0  502 -0.10133847075E+02 -0.55065682613E+02 -0.62690021920E+02  0.84184636998E+02  0.47000000000E+01 0.  1.
         11    1    6    6    0    0  0.82822889206E+01  0.75463924558E+02 -0.13092294483E+03  0.15134139454E+03  0.00000000000E+00 0. -1.
        -12    1    6    6    0    0 -0.29464145092E+02  0.13542329708E+02 -0.73158848771E+01  0.33242333123E+02  0.00000000000E+00 0.  1.
</event>
<event>
12    1  0.1061634E+000  0.3144686E+03  0.7818608E-02  0.1078640E+00
         21   -1    0    0  501  502  0.00000000000E+00  0.00000000000E+00  0.24312147897E+03  0.24312147897E+03  0.00000000000E+00 0.  1.
         21   -1    0    0  502  503 -0.00000000000E+00 -0.00000000000E+00 -0.40811318424E+03  0.40811318424E+03  0.00000000000E+00 0.  1.
         -6    2    1    2    0  503  0.25001468625E+03 -0.69490093992E+02 -0.12210431668E+03  0.33734249366E+03  0.17763523686E+03 0.  0.
        -24    2    3    3    0    0  0.51426870436E+02 -0.62293354429E+02 -0.25037068235E+02  0.11613432390E+03  0.79593601456E+02 0.  0.
          6    2    1    2  501    0 -0.25001468625E+03  0.69490093992E+02 -0.42887388593E+02  0.31389216954E+03  0.17132644132E+03 0.  0.
         24    2    5    5    0    0 -0.14843985642E+03 -0.61638525783E+01  0.24545824557E+02  0.17032931250E+03  0.79606489309E+02 0.  0.
          5    1    5    5  501    0 -0.10157482983E+03  0.75653946570E+02 -0.67433213150E+02  0.14356285704E+03  0.47000000000E+01 0. -1.
        -13    1    6    6    0    0 -0.77445764912E+02 -0.17469103134E+02 -0.24752979560E+02  0.83160844537E+02  0.00000000000E+00 0.  1.
         14    1    6    6    0    0 -0.70994091506E+02  0.11305250555E+02  0.49298804117E+02  0.87168467959E+02  0.00000000000E+00 0. -1.
         -5    1    3    3    0  503  0.19858781581E+03 -0.71967395622E+01 -0.97067248442E+02  0.22120816976E+03  0.47000000000E+01 0.  1.
         11    1    4    4    0    0  0.30167988778E+02 -0.42036591409E+02 -0.54071588540E+02  0.74839289491E+02  0.00000000000E+00 0. -1.
        -12    1    4    4    0    0  0.21258881658E+02 -0.20256763021E+02  0.29034520305E+02  0.41295034408E+02  0.00000000000E+00 0.  1.
</event>
<event>
12    1  0.1061634E+000  0.4073133E+03  0.7818608E-02  0.1041763E+00
         21   -1    0    0  501  502  0.00000000000E+00  0.00000000000E+00  0.22074162844E+03  0.22074162844E+03  0.00000000000E+00 0. -1.
         21   -1    0    0  502  503 -0.00000000000E+00 -0.00000000000E+00 -0.12643657936E+04  0.12643657936E+04  0.00000000000E+00 0. -1.
         -6    2    1    2    0  503 -0.27483358427E+03 -0.24673396720E+03 -0.41952193448E+02  0.40378837935E+03  0.15771467640E+03 0.  0.
        -24    2    3    3    0    0 -0.22932045878E+03 -0.23827700019E+03  0.21973095297E+01  0.33964608834E+03  0.77400487858E+02 0.  0.
          6    2    1    2  501    0  0.27483358427E+03  0.24673396720E+03 -0.10016719717E+04  0.10813190426E+04  0.17173521356E+03 0.  0.
         24    2    5    5    0    0  0.27377111684E+03  0.25014961239E+03 -0.10050856380E+04  0.10744971231E+04  0.82592220174E+02 0.  0.
          5    1    5    5  501    0  0.10624674278E+01 -0.34156451966E+01  0.34136663067E+01  0.68219195831E+01  0.47000000000E+01 0. -1.
        -11    1    6    6    0    0  0.71628859773E+02  0.11796377366E+03 -0.34214008023E+03  0.36892543955E+03  0.00000000000E+00 0.  1.
         12    1    6    6    0    0  0.20214225707E+03  0.13218583873E+03 -0.66294555774E+03  0.70557168352E+03  0.00000000000E+00 0. -1.
         -5    1    3    3    0  503 -0.45513125488E+02 -0.84569670070E+01 -0.44149502978E+02  0.64142291008E+02  0.47000000000E+01 0.  1.
         13    1    4    4    0    0 -0.33181318368E+02 -0.53292222034E+01 -0.94140258900E+01  0.34900206036E+02  0.00000000000E+00 0. -1.
        -14    1    4    4    0    0 -0.19613914041E+03 -0.23294777799E+03  0.11611335420E+02  0.30474588230E+03  0.00000000000E+00 0.  1.
</event>
<event>
12    1  0.1061634E+000  0.3100816E+03  0.7818608E-02  0.1080406E+00
         21   -1    0    0  501  502  0.00000000000E+00  0.00000000000E+00  0.30992338823E+03  0.30992338823E+03  0.00000000000E+00 0. -1.
         21   -1    0    0  502  503 -0.00000000000E+00 -0.00000000000E+00 -0.32517423438E+03  0.32517423438E+03  0.00000000000E+00 0. -1.
         -6    2    1    2    0  503 -0.23996541961E+03  0.97242080148E+02  0.62303413205E+02  0.31546463029E+03  0.16910586303E+03 0.  0.
        -24    2    3    3    0    0 -0.10254885141E+03  0.61615469334E+02  0.91258484509E+02  0.17050582660E+03  0.80195965757E+02 0.  0.
          6    2    1    2  501    0  0.23996541961E+03 -0.97242080148E+02 -0.77554259363E+02  0.31963299231E+03  0.17061993398E+03 0.  0.
         24    2    5    5    0    0  0.74263092856E+02 -0.83348585416E+02 -0.82504626495E+01  0.13942367922E+03  0.83119784302E+02 0.  0.
          5    1    5    5  501    0  0.16570232675E+03 -0.13893494731E+02 -0.69303796713E+02  0.18020931309E+03  0.47000000000E+01 0. -1.
        -11    1    6    6    0    0  0.76578852359E+02 -0.26033170547E+02 -0.12765461665E+02  0.81884086420E+02  0.00000000000E+00 0.  1.
         12    1    6    6    0    0 -0.23157595032E+01 -0.57315414869E+02  0.45149990151E+01  0.57539592802E+02  0.00000000000E+00 0. -1.
         -5    1    3    3    0  503 -0.13741656820E+03  0.35626610814E+02 -0.28955071304E+02  0.14495880369E+03  0.47000000000E+01 0.  1.
         11    1    4    4    0    0 -0.94820969782E+02  0.17288658083E+02  0.76813418538E+02  0.12324859138E+03  0.00000000000E+00 0. -1.
        -12    1    4    4    0    0 -0.77278816234E+01  0.44326811251E+02  0.14445065971E+02  0.47257235223E+02  0.00000000000E+00 0.  1.
</event>
<event>
12    1  0.1061634E+000  0.2137467E+03  0.7818608E-02  0.1141752E+00
         21   -1    0    0  503  502  0.00000000000E+00  0.00000000000E+00  0.20549050375E+03  0.20549050375E+03  0.00000000000E+00 0. -1.
         21   -1    0    0  501  503 -0.00000000000E+00 -0.00000000000E+00 -0.24105337865E+03  0.24105337865E+03  0.00000000000E+00 0. -1.
          6    2    1    2  501    0  0.17442134495E+01 -0.92207313154E+02  0.66103763540E+02  0.22373505878E+03  0.19282748272E+03 0.  0.
         24    2    3    3    0    0  0.36579949902E+02  0.14483588098E+02  0.19387726352E+02  0.10207588291E+03  0.92172310803E+02 0.  0.
         -6    2    1    2    0  502 -0.17442134495E+01  0.92207313154E+02 -0.10166663844E+03  0.22280882362E+03  0.17550622676E+03 0.  0.
        -24    2    5    5    0    0  0.16575506929E+02  0.83153379850E+01  0.85399046708E+01  0.83019525757E+02  0.80469990738E+02 0.  0.
          5    1    3    3  501    0 -0.34835736452E+02 -0.10669090125E+03  0.46716037187E+02  0.12165917588E+03  0.47000000000E+01 0. -1.
        -13    1    4    4    0    0  0.46407624092E+02  0.66880018346E+01  0.50270679069E+02  0.68742549534E+02  0.00000000000E+00 0.  1.
         14    1    4    4    0    0 -0.98276741903E+01  0.77955862638E+01 -0.30882952716E+02  0.33333333372E+02  0.00000000000E+00 0. -1.
         -5    1    5    5    0  502 -0.18319720378E+02  0.83891975169E+02 -0.11020654311E+03  0.13978929786E+03  0.47000000000E+01 0.  1.
         13    1    6    6    0    0  0.22269578958E+02 -0.85455455057E+01 -0.31319071384E+02  0.39368067356E+02  0.00000000000E+00 0. -1.
        -14    1    6    6    0    0 -0.56940720293E+01  0.16860883491E+02  0.39858976055E+02  0.43651458401E+02  0.00000000000E+00 0.  1.
</event>
<event>
12    1  0.1061634E+000  0.1917413E+03  0.7818608E-02  0.1157246E+00
         21   -1    0    0  501  502  0.00000000000E+00  0.00000000000E+00  0.23484072361E+04  0.23484072361E+04  0.00000000000E+00 0.  1.
         21   -1    0    0  502  503 -0.00000000000E+00 -0.00000000000E+00 -0.23235019654E+02  0.23235019654E+02  0.00000000000E+00 0.  1.
         -6    2    1    2    0  503 -0.71099880507E+02 -0.50127430199E+02  0.47655812071E+03  0.51311090424E+03  0.16913664702E+03 0.  0.
        -24    2    3    3    0    0 -0.98297558276E+02 -0.79261737546E+02  0.36121993008E+03  0.39099002249E+03  0.80302719747E+02 0.  0.
          6    2    1    2  501    0  0.71099880507E+02  0.50127430199E+02  0.18486140957E+04  0.18585313515E+04  0.17087058655E+03 0.  0.
         24    2    5    5    0    0  0.79275289831E+02  0.53710014454E+02  0.77604435412E+03  0.78591417243E+03  0.79037393962E+02 0.  0.
          5    1    5    5  501    0 -0.81754093240E+01 -0.35825842542E+01  0.10725697416E+04  0.10726171791E+04  0.47000000000E+01 0. -1.
        -11    1    6    6    0    0  0.23880807386E+02 -0.12306709743E+02  0.76472852032E+02  0.81054581388E+02  0.00000000000E+00 0.  1.
         12    1    6    6    0    0  0.55394482445E+02  0.66016724196E+02  0.69957150208E+03  0.70485959104E+03  0.00000000000E+00 0. -1.
         -5    1    3    3    0  503  0.27197677769E+02  0.29134307346E+02  0.11533819063E+03  0.12212088175E+03  0.47000000000E+01 0.  1.
         13    1    4    4    0    0 -0.51199496820E+02 -0.61246589846E+02  0.11713206340E+03  0.14174785190E+03  0.00000000000E+00 0. -1.
        -14    1    4    4    0    0 -0.47098061456E+02 -0.18015147700E+02  0.24408786668E+03  0.24924217059E+03  0.00000000000E+00 0.  1.
</event>
<event>
12    1  0.1061634E+000  0.1741864E+03  0.7818608E-02  0.1173620E+00
         21   -1    0    0  503  502  0.00000000000E+00  0.00000000000E+00  0.14877029019E+03  0.14877029019E+03  0.00000000000E+00 0. -1.
         21   -1    0    0  501  503 -0.00000000000E+00 -0.00000000000E+00 -0.20461889302E+03  0.20461889302E+03  0.00000000000E+00 0. -1.
          6    2    1    2  501    0  0.12413052797E+02  0.23481450095E+02 -0.15623657957E+02  0.17488565250E+03  0.17214944201E+03 0.  0.
         24    2    3    3    0    0 -0.46081717988E+02  0.53250002943E+02 -0.23763816734E+02  0.10858212972E+03  0.79159790063E+02 0.  0.
         -6    2    1    2    0  502 -0.12413052797E+02 -0.23481450095E+02 -0.40224944870E+02  0.17850353071E+03  0.17187205098E+03 0.  0.
        -24    2    5    5    0    0 -0.33068246250E+02  0.20053123960E+02 -0.77380588404E+02  0.11747461952E+03  0.79478890769E+02 0.  0.
          5    1    3    3  501    0  0.58494770784E+02 -0.29768552848E+02  0.81401587773E+01  0.66303522777E+02  0.47000000000E+01 0. -1.
        -11    1    4    4    0    0 -0.57282029251E+02  0.12222141542E+02  0.24509517264E+01  0.58622681475E+02  0.00000000000E+00 0.  1.
         12    1    4    4    0    0  0.11200311263E+02  0.41027861401E+02 -0.26214768461E+02  0.49959448245E+02  0.00000000000E+00 0. -1.
         -5    1    5    5    0  502  0.20655193454E+02 -0.43534574054E+02  0.37155643535E+02  0.61028911191E+02  0.47000000000E+01 0.  1.
         13    1    6    6    0    0 -0.34249697795E+02  0.17115934967E+02  0.17044298027E+01  0.38326258750E+02  0.00000000000E+00 0. -1.
        -14    1    6    6    0    0  0.11814515446E+01  0.29371889921E+01 -0.79085018207E+02  0.79148360765E+02  0.00000000000E+00 0.  1.
</event>
<event>
12    1  0.1061634E+000  0.3048076E+03  0.7818608E-02  0.1083174E+00
         21   -1    0    0  501  502  0.00000000000E+00  0.00000000000E+00  0.75649663776E+03  0.75649663776E+03  0.00000000000E+00 0. -1.
         21   -1    0    0  502  503 -0.00000000000E+00 -0.00000000000E+00 -0.23386696903E+03  0.23386696903E+03  0.00000000000E+00 0.  1.
         -6    2    1    2    0  503  0.90791247535E+02 -0.23093622441E+03  0.60468000686E+03  0.67715995908E+03  0.17701160727E+03 0.  0.
        -24    2    3    3    0    0 -0.13774300417E+02 -0.14106741208E+03  0.28572655144E+03  0.32964916216E+03  0.83301631517E+02 0.  0.
          6    2    1    2  501    0 -0.90791247535E+02  0.23093622441E+03 -0.82050338132E+02  0.31320364771E+03  0.17259686143E+03 0.  0.
         24    2    5    5    0    0 -0.94192777453E+02  0.84648820933E+02 -0.72341897309E+02  0.16647969382E+03  0.80277245457E+02 0.  0.
          5    1    5    5  501    0  0.34015299181E+01  0.14628740348E+03 -0.97084408238E+01  0.14672395389E+03  0.47000000000E+01 0. -1.
        -13    1    6    6    0    0 -0.10086171252E+03  0.85070965143E+02 -0.46678892862E+02  0.13996097028E+03  0.00000000000E+00 0.  1.
         14    1    6    6    0    0  0.66689350717E+01 -0.42214421025E+00 -0.25663004446E+02  0.26518723535E+02  0.00000000000E+00 0. -1.
         -5    1    3    3    0  503  0.10456554795E+03 -0.89868812331E+02  0.31895345542E+03  0.34751079692E+03  0.47000000000E+01 0.  1.
         13    1    4    4    0    0 -0.19137881893E+01 -0.77475283160E+02  0.23498222699E+03  0.24743227171E+03  0.00000000000E+00 0. -1.
        -14    1    4    4    0    0 -0.11860512228E+02 -0.63592128917E+02  0.50744324453E+02  0.82216890447E+02  0.00000000000E+00 0.  1.
</event>
<event>
12    1  0.1061634E+000  0.2552758E+03  0.7818608E-02  0.1110194E+00
         21   -1    0    0  501  502  0.00000000000E+00  0.00000000000E+00  0.14578720364E+04  0.14578720364E+04  0.00000000000E+00 0.  1.
         21   -1    0    0  502  503 -0.00000000000E+00 -0.00000000000E+00 -0.67649407888E+02  0.67649407888E+02  0.00000000000E+00 0.  1.
         -6    2    1    2    0  503 -0.18457924542E+03 -0.35019607622E+02  0.11403002342E+04  0.11682723067E+04  0.17111308453E+03 0.  0.
        -24    2    3    3    0    0 -0.16188110699E+03  0.44738462235E+01  0.61336944504E+03  0.63935540872E+03  0.79547183852E+02 0.  0.
          6    2    1    2  501    0  0.18457924542E+03  0.35019607622E+02  0.24992239431E+03  0.35724913760E+03  0.17282902643E+03 0.  0.
         24    2    5    5    0    0  0.80816423322E+02  0.36817762836E+02  0.21713310072E+03  0.24831253041E+03  0.81397096935E+02 0.  0.
          5    1    5    5  501    0  0.10376282210E+03 -0.17981552136E+01  0.32789293590E+02  0.10893660719E+03  0.47000000000E+01 0. -1.
        -13    1    6    6    0    0  0.46230745435E+02  0.56642678386E+02  0.95251733485E+02  0.12007733995E+03  0.00000000000E+00 0.  1.
         14    1    6    6    0    0  0.34585677887E+02 -0.19824915550E+02  0.12188136724E+03  0.12823519045E+03  0.00000000000E+00 0. -1.
         -5    1    3    3    0  503 -0.22698138432E+02 -0.39493453845E+02  0.52693078913E+03  0.52891689793E+03  0.47000000000E+01 0.  1.
         11    1    4    4    0    0 -0.49445892605E+02  0.29293526939E+02  0.30106482483E+03  0.30650128183E+03  0.00000000000E+00 0. -1.
        -12    1    4    4    0    0 -0.11243521439E+03 -0.24819680716E+02  0.31230462021E+03  0.33285412689E+03  0.00000000000E+00 0.  1.
</event>
<event>
12    1  0.1061634E+000  0.2583242E+03  0.7818608E-02  0.1108293E+00
         21   -1    0    0  501  502  0.00000000000E+00  0.00000000000E+00  0.87585388731E+03  0.87585388731E+03  0.00000000000E+00 0.  1.
         21   -1    0    0  502  503 -0.00000000000E+00 -0.00000000000E+00 -0.77342422503E+02  0.77342422503E+02  0.00000000000E+00 0.  1.
         -6    2    1    2    0  503 -0.25206327660E+02 -0.19109589648E+03  0.33534696368E+03  0.42330717368E+03  0.17198365224E+03 0.  0.
        -24    2    3    3    0    0 -0.32248040451E+02 -0.11305508621E+03  0.91045098710E+02  0.16670350065E+03  0.75362182160E+02 0.  0.
          6    2    1    2  501    0  0.25206327660E+02  0.19109589648E+03  0.46316450113E+03  0.52988913613E+03  0.17061108076E+03 0.  0.
         24    2    5    5    0    0  0.40831801233E+02  0.12635771701E+03  0.42633763897E+03  0.45364285700E+03  0.79965934383E+02 0.  0.
          5    1    5    5  501    0 -0.15625473573E+02  0.64738179468E+02  0.36826862159E+02  0.76246279133E+02  0.47000000000E+01 0. -1.
        -13    1    6    6    0    0  0.36614455287E+02  0.40513264008E+02  0.80419835751E+02  0.97207473369E+02  0.00000000000E+00 0.  1.
         14    1    6    6    0    0  0.42173459454E+01  0.85844453004E+02  0.34591780322E+03  0.35643538363E+03  0.00000000000E+00 0. -1.
         -5    1    3    3    0  503  0.70417127918E+01 -0.78040810275E+02  0.24430186497E+03  0.25660367303E+03  0.47000000000E+01 0.  1.
         13    1    4    4    0    0 -0.40654720088E+01 -0.10443872369E+03  0.88800666378E+02  0.13714785240E+03  0.00000000000E+00 0. -1.
        -14    1    4    4    0    0 -0.28182568443E+02 -0.86163625168E+01  0.22444323315E+01  0.29555648251E+02  0.00000000000E+00 0.  1.
</event>
<event>
12    1  0.1061634E+000  0.3179325E+03  0.7818608E-02  0.1076634E+00
         21   -1    0    0  501  502  0.00000000000E+00  0.00000000000E+00  0.47278747645E+03  0.47278747645E+03  0.00000000000E+00 0.  1.
         21   -1    0    0  502  503 -0.00000000000E+00 -0.00000000000E+00 -0.27798426668E+03  0.27798426668E+03  0.00000000000E+00 0.  1.
         -6    2    1    2    0  503  0.15062318358E+03  0.22063212559E+03  0.27799100102E+03  0.42213627647E+03  0.17191323683E+03 0.  0.
        -24    2    3    3    0    0  0.14740229974E+03  0.24013747257E+03  0.27478227038E+03  0.40156399887E+03  0.79717660374E+02 0.  0.
          6    2    1    2  501    0 -0.15062318358E+03 -0.22063212559E+03 -0.83187791252E+02  0.32863546665E+03  0.17238092428E+03 0.  0.
         24    2    5    5    0    0 -0.15890545249E+03 -0.11561888352E+03 -0.50496944032E+02  0.21824000262E+03  0.80374674668E+02 0.  0.
          5    1    5    5  501    0  0.82822689103E+01 -0.10501324207E+03 -0.32690847220E+02  0.11039546404E+03  0.47000000000E+01 0. -1.
        -11    1    6    6    0    0 -0.11372277633E+03 -0.12164275107E+03 -0.43626447014E+02  0.17214266067E+03  0.00000000000E+00 0.  1.
         12    1    6    6    0    0 -0.45182676160E+02  0.60238675469E+01 -0.68704970177E+01  0.46097341946E+02  0.00000000000E+00 0. -1.
         -5    1    3    3    0  503  0.32208838383E+01 -0.19505346977E+02  0.32087306351E+01  0.20572277601E+02  0.47000000000E+01 0.  1.
         11    1    4    4    0    0  0.13979984604E+03  0.18032062053E+03  0.18668004323E+03  0.29480325928E+03  0.00000000000E+00 0. -1.
        -12    1    4    4    0    0  0.76024537009E+01  0.59816852036E+02  0.88102227148E+02  0.10676073959E+03  0.00000000000E+00 0.  1.
</event>
<event>
12    1  0.1061634E+000  0.2268372E+03  0.7818608E-02  0.1128917E+00
         21   -1    0    0  501  502  0.00000000000E+00  0.00000000000E+00  0.37957329709E+03  0.37957329709E+03  0.00000000000E+00 0.  1.
         21   -1    0    0  502  503 -0.00000000000E+00 -0.00000000000E+00 -0.13553683922E+03  0.13553683922E+03  0.00000000000E+00 0.  1.
         -6    2    1    2    0  503 -0.11235189817E+03  0.97691394490E+02  0.11576413848E+03  0.25451672801E+03  0.17091188227E+03 0.  0.
        -24    2    3    3    0    0 -0.11554799576E+03  0.94230328558E+02  0.14568843774E+03  0.22386142335E+03  0.81597315095E+02 0.  0.
          6    2    1    2  501    0  0.11235189817E+03 -0.97691394490E+02  0.12827231939E+03  0.26059340830E+03  0.17113906318E+03 0.  0.
         24    2    5    5    0    0  0.60528044992E+02 -0.13880819865E+02  0.23908550743E+01  0.10066168151E+03  0.79187982327E+02 0.  0.
          5    1    5    5  501    0  0.51823853181E+02 -0.83810574625E+02  0.12588146431E+03  0.15993172679E+03  0.47000000000E+01 0. -1.
        -11    1    6    6    0    0  0.11297007851E+02  0.20806042366E+02  0.26728715899E+02  0.35706274504E+02  0.00000000000E+00 0.  1.
         12    1    6    6    0    0  0.49231037140E+02 -0.34686862231E+02 -0.24337860825E+02  0.64955407002E+02  0.00000000000E+00 0. -1.
         -5    1    3    3    0  503  0.31960975865E+01  0.34610659316E+01 -0.29924299264E+02  0.30655304657E+02  0.47000000000E+01 0.  1.
         13    1    4    4    0    0 -0.10306085513E+03  0.34677134890E+02  0.86141594502E+02  0.13872425112E+03  0.00000000000E+00 0. -1.
        -14    1    4    4    0    0 -0.12487140631E+02  0.59553193668E+02  0.59546843240E+02  0.85137172240E+02  0.00000000000E+00 0.  1.
</event>
<event>
12    1  0.1061634E+000  0.2574531E+03  0.7818608E-02  0.1109196E+00
         21   -1    0    0  501  502  0.00000000000E+00  0.00000000000E+00  0.30713504195E+03  0.30713504195E+03  0.00000000000E+00 0. -1.
         21   -1    0    0  502  503 -0.00000000000E+00 -0.00000000000E+00 -0.22571374168E+03  0.22571374168E+03  0.00000000000E+00 0. -1.
         -6    2    1    2    0  503 -0.39269083810E+01  0.19144437402E+03 -0.22241380622E+02  0.25841201001E+03  0.17209218155E+03 0.  0.
        -24    2    3    3    0    0 -0.40239538416E+02  0.78602533737E+02 -0.60693950835E+02  0.13370203377E+03  0.79968114920E+02 0.  0.
          6    2    1    2  501    0  0.39269083810E+01 -0.19144437402E+03  0.10366268089E+03  0.27443677362E+03  0.16704257647E+03 0.  0.
         24    2    5    5    0    0 -0.96064149451E+01 -0.21314844086E+03  0.88862730848E+02  0.24451444285E+03  0.79788387477E+02 0.  0.
          5    1    5    5  501    0  0.13533323326E+02  0.21704066844E+02  0.14799950045E+02  0.29922330778E+02  0.47000000000E+01 0. -1.
        -13    1    6    6    0    0 -0.44388864985E+02 -0.10824628874E+03  0.39603359727E+02  0.12351540981E+03  0.00000000000E+00 0.  1.
         14    1    6    6    0    0  0.34782450040E+02 -0.10490215213E+03  0.49259371121E+02  0.12099903303E+03  0.00000000000E+00 0. -1.
         -5    1    3    3    0  503  0.36312630035E+02  0.11284184028E+03  0.38452570213E+02  0.12470997624E+03  0.47000000000E+01 0.  1.
         11    1    4    4    0    0 -0.25931745720E+01 -0.61809942840E+00 -0.44413252191E+02  0.44493185674E+02  0.00000000000E+00 0. -1.
        -12    1    4    4    0    0 -0.37646363844E+02  0.79220633165E+02 -0.16280698644E+02  0.89208848093E+02  0.00000000000E+00 0.  1.
</event>
<event>
12    1  0.1061634E+000  0.2652761E+03  0.7818608E-02  0.1105553E+00
         21   -1    0    0  501  502  0.00000000000E+00  0.00000000000E+00  0.52683521231E+03  0.52683521231E+03  0.00000000000E+00 0.  1.
         21   -1    0    0  502  503 -0.00000000000E+00 -0.00000000000E+00 -0.14198147441E+03  0.14198147441E+03  0.00000000000E+00 0.  1.
         -6    2    1    2    0  503  0.31320335162E+02 -0.18555544757E+03  0.85732951214E+02  0.26901089788E+03  0.17206085185E+03 0.  0.
        -24    2    3    3    0    0 -0.98563568510E+01 -0.19566590959E+03  0.63893293849E+02  0.22108593527E+03  0.80089586284E+02 0.  0.
          6    2    1    2  501    0 -0.31320335162E+02  0.18555544757E+03  0.29912078669E+03  0.39980578884E+03  0.18697496154E+03 0.  0.
         24    2    5    5    0    0 -0.75332260767E+02  0.45763359760E+02  0.12354888715E+03  0.17105601437E+03  0.78908795001E+02 0.  0.
          5    1    5    5  501    0  0.44011925605E+02  0.13979208781E+03  0.17557189954E+03  0.22874977447E+03  0.47000000000E+01 0. -1.
        -13    1    6    6    0    0 -0.32291913539E+02 -0.18470638411E+02  0.61677122024E+02  0.72027769259E+02  0.00000000000E+00 0.  1.
         14    1    6    6    0    0 -0.43040347229E+02  0.64233998171E+02  0.61871765122E+02  0.99028245112E+02  0.00000000000E+00 0. -1.
         -5    1    3    3    0  503  0.41176692013E+02  0.10110462019E+02  0.21839657365E+02  0.47924962610E+02  0.47000000000E+01 0.  1.
         13    1    4    4    0    0 -0.39265034383E+02 -0.10125256479E+03  0.55183313349E+02  0.12181552805E+03  0.00000000000E+00 0. -1.
        -14    1    4    4    0    0  0.29408677532E+02 -0.94413344797E+02  0.87099805006E+01  0.99270407223E+02  0.00000000000E+00 0.  1.
</event>
<event>
12    1  0.1061634E+000  0.2000102E+03  0.7818608E-02  0.1150227E+00
         21   -1    0    0  503  502  0.00000000000E+00  0.00000000000E+00  0.72836527424E+03  0.72836527424E+03  0.00000000000E+00 0.  1.
         21   -1    0    0  501  503 -0.00000000000E+00 -0.00000000000E+00 -0.97035478815E+02  0.97035478815E+02  0.00000000000E+00 0.  1.
          6    2    1    2  501    0 -0.21209624044E+02 -0.10040716385E+03  0.59063989153E+03  0.62358604898E+03  0.17167595147E+03 0.  0.
         24    2    3    3    0    0 -0.35772139803E+02 -0.79480033428E+02  0.58479742983E+03  0.59701094763E+03  0.82688064195E+02 0.  0.
         -6    2    1    2    0  502  0.21209624044E+02  0.10040716385E+03  0.40689903896E+02  0.20181470408E+03  0.16894395461E+03 0.  0.
        -24    2    5    5    0    0  0.27306598012E+02  0.26792008690E+02  0.76503653072E+02  0.11958892472E+03  0.83577747985E+02 0.  0.
          5    1    3    3  501    0  0.14562515759E+02 -0.20927130419E+02  0.58424616998E+01  0.26575101345E+02  0.47000000000E+01 0. -1.
        -13    1    4    4    0    0 -0.21109953259E+02  0.56063582637E+01  0.41510744060E+02  0.46906324222E+02  0.00000000000E+00 0.  1.
         14    1    4    4    0    0 -0.14662186544E+02 -0.85086391692E+02  0.54328668577E+03  0.55010462341E+03  0.00000000000E+00 0. -1.
         -5    1    5    5    0  502 -0.60969739676E+01  0.73615155157E+02 -0.35813749175E+02  0.82225779354E+02  0.47000000000E+01 0.  1.
         11    1    6    6    0    0  0.31778033495E+02  0.47961856224E+02  0.23153757576E+02  0.62018380785E+02  0.00000000000E+00 0. -1.
        -12    1    6    6    0    0 -0.44714354832E+01 -0.21169847534E+02  0.53349895495E+02  0.57570543937E+02  0.00000000000E+00 0.  1.
</event>
<event>
12    1  0.1061634E+000  0.2774534E+03  0.7818608E-02  0.1097098E+00
         21   -1    0    0  501  502  0.00000000000E+00  0.00000000000E+00  0.28815139262E+03  0.28815139262E+03  0.00000000000E+00 0. -1.
         21   -1    0    0  502  503 -0.00000000000E+00 -0.00000000000E+00 -0.28594482377E+03  0.28594482377E+03  0.00000000000E+00 0. -1.
         -6    2    1    2    0  503 -0.21641641845E+03  0.27115891578E+02  0.74824765266E+02  0.28729697975E+03  0.17137523545E+03 0.  0.
        -24    2    3    3    0    0 -0.76063622361E+02  0.59768534993E+02  0.37696845691E+01  0.12656111883E+03  0.81520266542E+02 0.  0.
          6    2    1    2  501    0  0.21641641845E+03 -0.27115891578E+02 -0.72618196408E+02  0.28679923663E+03  0.17149070509E+03 0.  0.
         24    2    5    5    0    0  0.21370936511E+03 -0.65581004737E+02 -0.69676878429E+02  0.24784240900E+03  0.81230729353E+02 0.  0.
          5    1    5    5  501    0  0.27070533419E+01  0.38465113159E+02 -0.29413179789E+01  0.38956827637E+02  0.47000000000E+01 0. -1.
        -11    1    6    6    0    0  0.14074726241E+03 -0.16557186811E+01 -0.44498591243E+02  0.14762336503E+03  0.00000000000E+00 0.  1.
         12    1    6    6    0    0  0.72962102700E+02 -0.63925286056E+02 -0.25178287186E+02  0.10021904397E+03  0.00000000000E+00 0. -1.
         -5    1    3    3    0  503 -0.14035279609E+03 -0.32652643415E+02  0.71055080697E+02  0.16073586092E+03  0.47000000000E+01 0.  1.
         11    1    4    4    0    0  0.14969324415E+02  0.14055567462E+02  0.12959557670E+02  0.24281469995E+02  0.00000000000E+00 0. -1.
        -12    1    4    4    0    0 -0.91032946775E+02  0.45712967531E+02 -0.91898731013E+01  0.10227964884E+03  0.00000000000E+00 0.  1.
</event>
<event>
12    1  0.1061634E+000  0.3121031E+03  0.7818608E-02  0.1079355E+00
         21   -1    0    0  503  502  0.00000000000E+00  0.00000000000E+00  0.87069146315E+03  0.87069146315E+03  0.00000000000E+00 0.  1.
         21   -1    0    0  501  503 -0.00000000000E+00 -0.00000000000E+00 -0.11241156667E+03  0.11241156667E+03  0.00000000000E+00 0.  1.
          6    2    1    2  501    0 -0.22846129240E+03 -0.12507828717E+03  0.34387244146E+03  0.46431414284E+03  0.17175630177E+03 0.  0.
         24    2    3    3    0    0 -0.16223431464E+03 -0.54480709367E+02  0.12911030929E+03  0.22869815444E+03  0.79657098483E+02 0.  0.
         -6    2    1    2    0  502  0.22846129240E+03  0.12507828717E+03  0.41440745502E+03  0.51878888699E+03  0.17195705987E+03 0.  0.
        -24    2    5    5    0    0  0.23511256993E+03  0.11118542449E+03  0.42132242942E+03  0.50126296341E+03  0.78178320517E+02 0.  0.
          5    1    3    3  501    0 -0.66226977755E+02 -0.70597577804E+02  0.21476213217E+03  0.23561598840E+03  0.47000000000E+01 0. -1.
        -11    1    4    4    0    0 -0.66762669358E+01  0.15250636576E+02  0.21148007809E+02  0.26914544218E+02  0.00000000000E+00 0.  1.
         12    1    4    4    0    0 -0.15555804771E+03 -0.69731345943E+02  0.10796230148E+03  0.20178361022E+03  0.00000000000E+00 0. -1.
         -5    1    5    5    0  502 -0.66512775335E+01  0.13892862678E+02 -0.69149743984E+01  0.17525923575E+02  0.47000000000E+01 0.  1.
         13    1    6    6    0    0  0.16435808440E+03  0.87094255392E+02  0.22963334824E+03  0.29551728182E+03  0.00000000000E+00 0. -1.
        -14    1    6    6    0    0  0.70754485531E+02  0.24091169100E+02  0.19168908118E+03  0.20574568159E+03  0.00000000000E+00 0.  1.
</event>
<event>
12    1  0.1061634E+000  0.2541012E+03  0.7818608E-02  0.1110756E+00
         21   -1    0    0  501  502  0.00000000000E+00  0.00000000000E+00  0.75662154099E+03  0.75662154099E+03  0.00000000000E+00 0.  1.
         21   -1    0    0  502  503 -0.00000000000E+00 -0.00000000000E+00 -0.12340844290E+03  0.12340844290E+03  0.00000000000E+00 0.  1.
         -6    2    1    2    0  503 -0.12321541212E+03  0.14092214504E+03  0.72143362385E+02  0.26414409851E+03  0.17183233484E+03 0.  0.
        -24    2    3    3    0    0 -0.13735755921E+03  0.64502566617E+02  0.72874430911E+02  0.18628154813E+03  0.79764981804E+02 0.  0.
          6    2    1    2  501    0  0.12321541212E+03 -0.14092214504E+03  0.56106973571E+03  0.61588588537E+03  0.17168309970E+03 0.  0.
         24    2    5    5    0    0  0.81897203070E+02 -0.21084909046E+02  0.18465579053E+03  0.21867346656E+03  0.81046892237E+02 0.  0.
          5    1    5    5  501    0  0.41318209049E+02 -0.11983723600E+03  0.37641394518E+03  0.39721241881E+03  0.47000000000E+01 0. -1.
        -13    1    6    6    0    0  0.93149319049E+02 -0.17321091585E+02  0.18379339458E+03  0.20677724184E+03  0.00000000000E+00 0.  1.
         14    1    6    6    0    0 -0.11252115979E+02 -0.37638174617E+01  0.86239595605E+00  0.11896224723E+02  0.00000000000E+00 0. -1.
         -5    1    3    3    0  503  0.14142147086E+02  0.76419578427E+02 -0.73106852637E+00  0.77862550384E+02  0.47000000000E+01 0.  1.
         11    1    4    4    0    0 -0.11751986235E+03  0.69930182990E+02  0.31882602298E+02  0.14041954590E+03  0.00000000000E+00 0. -1.
        -12    1    4    4    0    0 -0.19837696853E+02 -0.54276163729E+01  0.40991828613E+02  0.45862002235E+02  0.00000000000E+00 0.  1.
</event>
<event>
12    1  0.1061634E+000  0.2507507E+03  0.7818608E-02  0.1114001E+00
         21   -1    0    0  501  502  0.00000000000E+00  0.00000000000E+00  0.23860573258E+03  0.23860573258E+03  0.00000000000E+00 0. -1.
         21   -1    0    0  502  503 -0.00000000000E+00 -0.00000000000E+00 -0.31952675077E+03  0.31952675077E+03  0.00000000000E+00 0. -1.
         -6    2    1    2    0  503  0.12510533963E+03 -0.11938287469E+03 -0.16547867450E+03  0.30043154337E+03  0.18158277386E+03 0.  0.
        -24    2    3    3    0    0  0.13815804719E+03 -0.11779812632E+03 -0.80010944468E+02  0.21383069188E+03  0.79735619317E+02 0.  0.
          6    2    1    2  501    0 -0.12510533963E+03  0.11938287469E+03  0.84557656305E+02  0.25770093997E+03  0.17133639558E+03 0.  0.
         24    2    5    5    0    0 -0.20129480064E+02  0.10248060125E+03  0.19004432941E+02  0.13270120784E+03  0.79630223474E+02 0.  0.
          5    1    5    5  501    0 -0.10497585957E+03  0.16902273435E+02  0.65553223364E+02  0.12499973213E+03  0.47000000000E+01 0. -1.
        -11    1    6    6    0    0 -0.98318200769E+01 -0.10280903895E+02 -0.79643195822E+01  0.16303130293E+02  0.00000000000E+00 0.  1.
         12    1    6    6    0    0 -0.10297659987E+02  0.11276150515E+03  0.26968752523E+02  0.11639807755E+03  0.00000000000E+00 0. -1.
         -5    1    3    3    0  503 -0.13052707559E+02 -0.15847483691E+01 -0.85467730027E+02  0.86600851486E+02  0.47000000000E+01 0.  1.
         11    1    4    4    0    0 -0.48541818397E+01 -0.13913686231E+02  0.75647922114E+01  0.16564414481E+02  0.00000000000E+00 0. -1.
        -12    1    4    4    0    0  0.14301222903E+03 -0.10388444009E+03 -0.87575736680E+02  0.19726627740E+03  0.00000000000E+00 0.  1.
</event>
<event>
12    1  0.1061634E+000  0.2172181E+03  0.7818608E-02  0.1136374E+00
         21   -1    0    0  501  502  0.00000000000E+00  0.00000000000E+00  0.58059413697E+03  0.58059413697E+03  0.00000000000E+00 0. -1.
         21   -1    0    0  502  503 -0.00000000000E+00 -0.00000000000E+00 -0.84039971199E+02  0.84039971199E+02  0.00000000000E+00 0. -1.
         -6    2    1    2    0  503  0.26546999297E+02  0.12683229419E+03  0.31547934676E+03  0.38184123979E+03  0.17171004674E+03 0.  0.
        -24    2    3    3    0    0  0.17035140933E+02  0.40278954762E+02  0.26822425252E+03  0.28265913481E+03  0.77713233307E+02 0.  0.
          6    2    1    2  501    0 -0.26546999297E+02 -0.12683229419E+03  0.18107481901E+03  0.28279286838E+03  0.17433457002E+03 0.  0.
         24    2    5    5    0    0 -0.46773552426E+02 -0.14623570749E+03  0.10692039749E+03  0.20337892672E+03  0.79739382248E+02 0.  0.
          5    1    5    5  501    0  0.20226553129E+02  0.19403413300E+02  0.74154421518E+02  0.79413941659E+02  0.47000000000E+01 0. -1.
        -11    1    6    6    0    0 -0.40640293037E+02 -0.18346091680E+02  0.21831298459E+02  0.49646934351E+02  0.00000000000E+00 0.  1.
         12    1    6    6    0    0 -0.61332593892E+01 -0.12788961581E+03  0.85089099033E+02  0.15373199237E+03  0.00000000000E+00 0. -1.
         -5    1    3    3    0  503  0.95118583639E+01  0.86553339430E+02  0.47255094242E+02  0.99182104978E+02  0.47000000000E+01 0.  1.
         11    1    4    4    0    0  0.34940680328E+02  0.55186922011E+02  0.18300923737E+03  0.19431631034E+03  0.00000000000E+00 0. -1.
        -12    1    4    4    0    0 -0.17905539394E+02 -0.14907967250E+02  0.85215015150E+02  0.88342824472E+02  0.00000000000E+00 0.  1.
</event>
<event>
12    1  0.1061634E+000  0.3353137E+03  0.7818608E-02  0.1068847E+00
         21   -1    0    0  501  502  0.00000000000E+00  0.00000000000E+00  0.13084656776E+03  0.13084656776E+03  0.00000000000E+00 0.  1.
         21   -1    0    0  502  503 -0.00000000000E+00 -0.00000000000E+00 -0.88746055951E+03  0.88746055951E+03  0.00000000000E+00 0. -1.
         -6    2    1    2    0  503 -0.13350335844E+03 -0.25477334722E+03 -0.47061307449E+03  0.57785113137E+03  0.17234459368E+03 0.  0.
        -24    2    3    3    0    0 -0.72392073477E+02 -0.25087227209E+03 -0.40383900505E+03  0.48712806988E+03  0.77655040121E+02 0.  0.
          6    2    1    2  501    0  0.13350335844E+03  0.25477334722E+03 -0.28600091725E+03  0.44045599590E+03  0.17167514230E+03 0.  0.
         24    2    5    5    0    0  0.14873625563E+03  0.14915236077E+03 -0.22041530633E+03  0.31511088711E+03  0.79643351583E+02 0.  0.
          5    1    5    5  501    0 -0.15232897189E+02  0.10562098645E+03 -0.65585610925E+02  0.12534510878E+03  0.47000000000E+01 0. -1.
        -11    1    6    6    0    0  0.63158124878E+02  0.92613058279E+02 -0.16221732340E+03  0.19718160998E+03  0.00000000000E+00 0.  1.
         12    1    6    6    0    0  0.85578130749E+02  0.56539302492E+02 -0.58197982927E+02  0.11792927713E+03  0.00000000000E+00 0. -1.
         -5    1    3    3    0  503 -0.61111284962E+02 -0.39010751375E+01 -0.66774069444E+02  0.90723061495E+02  0.47000000000E+01 0.  1.
         13    1    4    4    0    0  0.21794228686E+00  0.56387812677E+01 -0.11153418823E+02  0.12499684174E+02  0.00000000000E+00 0. -1.
        -14    1    4    4    0    0 -0.72610015763E+02 -0.25651105335E+03 -0.39268558623E+03  0.47462838570E+03  0.00000000000E+00 0.  1.
</event>
<event>
12    1  0.1061634E+000  0.4173331E+03  0.7818608E-02  0.1038375E+00
         21   -1    0    0  503  502  0.00000000000E+00  0.00000000000E+00  0.56344840115E+03  0.56344840115E+03  0.00000000000E+00 0.  1.
         21   -1    0    0  501  503 -0.00000000000E+00 -0.00000000000E+00 -0.32364197482E+03  0.32364197482E+03  0.00000000000E+00 0.  1.
          6    2    1    2  501    0 -0.75808939136E+01 -0.37984502447E+03  0.13306105961E+02  0.41225426588E+03  0.15948923072E+03 0.  0.
         24    2    3    3    0    0  0.13450891520E+02 -0.13018455938E+03  0.37859185266E+02  0.16046541083E+03  0.84775492794E+02 0.  0.
         -6    2    1    2    0  502  0.75808939136E+01  0.37984502447E+03  0.22650032036E+03  0.47483611008E+03  0.17270559848E+03 0.  0.
        -24    2    5    5    0    0 -0.59128230134E+02  0.20888307032E+03  0.95043567549E+02  0.24904624127E+03  0.76566741429E+02 0.  0.
          5    1    3    3  501    0 -0.21031785434E+02 -0.24966046509E+03 -0.24553079305E+02  0.25178885506E+03  0.47000000000E+01 0. -1.
        -11    1    4    4    0    0  0.14428299807E+01 -0.13195646250E+03  0.51990688053E+02  0.14183660105E+03  0.00000000000E+00 0.  1.
         12    1    4    4    0    0  0.12008061540E+02  0.17719031175E+01 -0.14131502787E+02  0.18628809775E+02  0.00000000000E+00 0. -1.
         -5    1    5    5    0  502  0.66709124048E+02  0.17096195415E+03  0.13145675281E+03  0.22578986882E+03  0.47000000000E+01 0.  1.
         13    1    6    6    0    0 -0.11094892561E+02  0.70534869374E+02  0.70893741085E+02  0.10061901890E+03  0.00000000000E+00 0. -1.
        -14    1    6    6    0    0 -0.48033337573E+02  0.13834820094E+03  0.24149826464E+02  0.14842722237E+03  0.00000000000E+00 0.  1.
</event>
<event>
12    1  0.1061634E+000  0.2044491E+03  0.7818608E-02  0.1146078E+00
         21   -1    0    0  501  502  0.00000000000E+00  0.00000000000E+00  0.98316755739E+02  0.98316755739E+02  0.00000000000E+00 0.  1.
         21   -1    0    0  502  503 -0.00000000000E+00 -0.00000000000E+00 -0.61910165683E+03  0.61910165683E+03  0.00000000000E+00 0. -1.
         -6    2    1    2    0  503  0.11027987403E+03  0.57979496588E+01 -0.46145722580E+03  0.50471994410E+03  0.17205866412E+03 0.  0.
        -24    2    3    3    0    0  0.11254944282E+03 -0.47427701772E+02 -0.28313254261E+03  0.31854823963E+03  0.79951112020E+02 0.  0.
          6    2    1    2  501    0 -0.11027987403E+03 -0.57979496588E+01 -0.59327675290E+02  0.21269846846E+03  0.17183014460E+03 0.  0.
         24    2    5    5    0    0 -0.10001787623E+02  0.19889399998E+02  0.14081683338E+02  0.85708081104E+02  0.81559532692E+02 0.  0.
          5    1    5    5  501    0 -0.10027808641E+03 -0.25687349657E+02 -0.73409358628E+02  0.12699038736E+03  0.47000000000E+01 0. -1.
        -13    1    6    6    0    0 -0.21596126576E+02  0.46967983478E+02 -0.27749663327E+01  0.51769533446E+02  0.00000000000E+00 0.  1.
         14    1    6    6    0    0  0.11594338953E+02 -0.27078583480E+02  0.16856649671E+02  0.33938547658E+02  0.00000000000E+00 0. -1.
         -5    1    3    3    0  503 -0.22695687841E+01  0.53225651431E+02 -0.17832468319E+03  0.18617170447E+03  0.47000000000E+01 0.  1.
         11    1    4    4    0    0  0.31146058195E+02 -0.32082275613E+02 -0.34491855878E+02  0.56471563388E+02  0.00000000000E+00 0. -1.
        -12    1    4    4    0    0  0.81403384622E+02 -0.15345426160E+02 -0.24864068673E+03  0.26207667624E+03  0.00000000000E+00 0.  1.
</event>
<event>
12    1  0.1061634E+000  0.2515327E+03  0.7818608E-02  0.1113908E+00
         21   -1    0    0  501  502  0.00000000000E+00  0.00000000000E+00  0.69555800861E+03  0.69555800861E+03  0.00000000000E+00 0.  1.
         21   -1    0    0  502  503 -0.00000000000E+00 -0.00000000000E+00 -0.11378382380E+03  0.11378382380E+03  0.00000000000E+00 0.  1.
         -6    2    1    2    0  503 -0.50696431501E+02  0.16420491382E+03  0.48996300842E+03  0.55075624187E+03  0.18367173558E+03 0.  0.
        -24    2    3    3    0    0 -0.54935704213E+02  0.18255760879E+03  0.32990557222E+03  0.38952576792E+03  0.80916161370E+02 0.  0.
          6    2    1    2  501    0  0.50696431501E+02 -0.16420491382E+03  0.91811176389E+02  0.25858559053E+03  0.17001127502E+03 0.  0.
         24    2    5    5    0    0  0.29935984374E+02 -0.20727452245E+02  0.66903451195E+02  0.11141472753E+03  0.81310388579E+02 0.  0.
          5    1    5    5  501    0  0.20760447128E+02 -0.14347746157E+03  0.24907725194E+02  0.14717086301E+03  0.47000000000E+01 0. -1.
        -13    1    6    6    0    0  0.17875425283E+02 -0.11568635831E+01 -0.16832514478E+02  0.24580535105E+02  0.00000000000E+00 0.  1.
         14    1    6    6    0    0  0.12060559091E+02 -0.19570588662E+02  0.83735965673E+02  0.86834192421E+02  0.00000000000E+00 0. -1.
         -5    1    3    3    0  503  0.42392727114E+01 -0.18352694975E+02  0.16005743621E+03  0.16123047395E+03  0.47000000000E+01 0.  1.
         13    1    4    4    0    0 -0.29390392834E+02  0.35274893894E+02  0.31219875048E+02  0.55522913542E+02  0.00000000000E+00 0. -1.
        -14    1    4    4    0    0 -0.25545311379E+02  0.14728271490E+03  0.29868569717E+03  0.33400285438E+03  0.00000000000E+00 0.  1.
</event>
<event>
12    1  0.1061634E+000  0.2054857E+03  0.7818608E-02  0.1146750E+00
         21   -1    0    0  501  502  0.00000000000E+00  0.00000000000E+00  0.22013672668E+03  0.22013672668E+03  0.00000000000E+00 0.  1.
         21   -1    0    0  502  503 -0.00000000000E+00 -0.00000000000E+00 -0.18577069388E+03  0.18577069388E+03  0.00000000000E+00 0.  1.
         -6    2    1    2    0  503 -0.89949584961E+02  0.67502440457E+02  0.31623131996E+02  0.20790473824E+03  0.17197921503E+03 0.  0.
        -24    2    3    3    0    0 -0.73243677690E+01 -0.12722051796E+02  0.42480736073E+02  0.92133959374E+02  0.80427337190E+02 0.  0.
          6    2    1    2  501    0  0.89949584961E+02 -0.67502440457E+02  0.27429008040E+01  0.19800268232E+03  0.16294180371E+03 0.  0.
         24    2    5    5    0    0  0.19608882963E+01  0.89298549225E+01  0.65251500430E+01  0.81296633085E+02  0.80516939684E+02 0.  0.
          5    1    5    5  501    0  0.87988696665E+02 -0.76432295380E+02 -0.37822492390E+01  0.11670604923E+03  0.47000000000E+01 0. -1.
        -13    1    6    6    0    0 -0.36342705513E+02 -0.90889666085E+01  0.10146727540E+02  0.38811823428E+02  0.00000000000E+00 0.  1.
         14    1    6    6    0    0  0.38303593809E+02  0.18018821531E+02 -0.36215774966E+01  0.42484809658E+02  0.00000000000E+00 0. -1.
         -5    1    3    3    0  503 -0.82625217192E+02  0.80224492253E+02 -0.10857604077E+02  0.11577077887E+03  0.47000000000E+01 0.  1.
         11    1    4    4    0    0 -0.25583301451E+02 -0.25185160009E+02 -0.82150034392E+01  0.36827759629E+02  0.00000000000E+00 0. -1.
        -12    1    4    4    0    0  0.18258933682E+02  0.12463108213E+02  0.50695739512E+02  0.55306199745E+02  0.00000000000E+00 0.  1.
</event>
<event>
12    1  0.1061634E+000  0.3875047E+03  0.7818608E-02  0.1048197E+00
         21   -1    0    0  501  502  0.00000000000E+00  0.00000000000E+00  0.36887764805E+03  0.36887764805E+03  0.00000000000E+00 0.  1.
         21   -1    0    0  502  503 -0.00000000000E+00 -0.00000000000E+00 -0.53416694699E+03  0.53416694699E+03  0.00000000000E+00 0.  1.
         -6    2    1    2    0  503  0.30993851024E+03 -0.15614392831E+03  0.13762293313E+03  0.41121769700E+03  0.17238653117E+03 0.  0.
        -24    2    3    3    0    0  0.23301225389E+03 -0.17640474380E+03  0.80712023731E+02  0.31329379201E+03  0.78900096583E+02 0.  0.
          6    2    1    2  501    0 -0.30993851024E+03  0.15614392831E+03 -0.30291223207E+03  0.49182689804E+03  0.17232257780E+03 0.  0.
         24    2    5    5    0    0 -0.14747252645E+03  0.57515106824E+02 -0.68568198401E+02  0.19006199546E+03  0.79786156147E+02 0.  0.
          5    1    5    5  501    0 -0.16246598378E+03  0.98628821482E+02 -0.23434403367E+03  0.30176490258E+03  0.47000000000E+01 0. -1.
        -11    1    6    6    0    0 -0.46297659317E+02  0.30180407517E+00  0.12971675544E+02  0.48081479910E+02  0.00000000000E+00 0.  1.
         12    1    6    6    0    0 -0.10117486714E+03  0.57213302748E+02 -0.81539873945E+02  0.14198051555E+03  0.00000000000E+00 0. -1.
         -5    1    3    3    0  503  0.76926256350E+02  0.20260815495E+02  0.56910909396E+02  0.97923904991E+02  0.47000000000E+01 0.  1.
         11    1    4    4    0    0  0.11892966991E+02 -0.50925162215E+01  0.24903761124E+02  0.28063743575E+02  0.00000000000E+00 0. -1.
        -12    1    4    4    0    0  0.22111928690E+03 -0.17131222758E+03  0.55808262608E+02  0.28523004844E+03  0.00000000000E+00 0.  1.
</event>
<event>
12    1  0.1203244E+000  0.1927596E+03  0.7818608E-02  0.1157171E+00
         21   -1    0    0  503  502  0.00000000000E+00  0.00000000000E+00  0.12747874490E+03  0.12747874490E+03  0.00000000000E+00 0. -1.
         21   -1    0    0  501  503 -0.00000000000E+00 -0.00000000000E+00 -0.11497542861E+04  0.11497542861E+04  0.00000000000E+00 0. -1.
          6    2    1    2  501    0  0.86451368298E+02 -0.22901806238E+02  0.41398576693E+02  0.19715499911E+03  0.17075690238E+03 0.  0.
         24    2    3    3    0    0  0.10306798618E+03  0.33405892079E+02  0.27890948345E+02  0.13672971546E+03  0.78601187586E+02 0.  0.
         -6    2    1    2    0  502 -0.86451368298E+02  0.22901806238E+02 -0.10636741178E+04  0.10800780318E+04  0.16482595092E+03 0.  0.
        -24    2    5    5    0    0 -0.12865257886E+02  0.56839913080E+02 -0.37369586276E+03  0.38534153991E+03  0.73778140097E+02 0.  0.
          5    1    3    3  501    0 -0.16616617885E+02 -0.56307698317E+02  0.13507628349E+02  0.60425283643E+02  0.47000000000E+01 0. -1.
        -13    1    4    4    0    0  0.16921646153E+02  0.22114024552E+02 -0.22932605496E+02  0.36073211463E+02  0.00000000000E+00 0.  1.
         14    1    4    4    0    0  0.86146340029E+02  0.11291867527E+02  0.50823553841E+02  0.10065650400E+03  0.00000000000E+00 0. -1.
         -5    1    5    5    0  502 -0.73586110411E+02 -0.33938106842E+02 -0.68997825508E+03  0.69473649193E+03  0.47000000000E+01 0.  1.
         11    1    6    6    0    0 -0.49304282491E+01  0.15558297571E+02 -0.30042622636E+03  0.30086921948E+03  0.00000000000E+00 0. -1.
        -12    1    6    6    0    0 -0.79348296374E+01  0.41281615510E+02 -0.73269636404E+02  0.84472320433E+02  0.00000000000E+00 0.  1.
</event>
<event>
12    1  0.1061634E+000  0.2138827E+03  0.7818608E-02  0.1138717E+00
         21   -1    0    0  503  502  0.00000000000E+00  0.00000000000E+00  0.89656888523E+02  0.89656888523E+02  0.00000000000E+00 0. -1.
         21   -1    0    0  501  503 -0.00000000000E+00 -0.00000000000E+00 -0.50917209001E+03  0.50917209001E+03  0.00000000000E+00 0. -1.
          6    2    1    2  501    0 -0.12242398920E+03  0.21062952281E+02 -0.22425284389E+03  0.30922027685E+03  0.17290621890E+03 0.  0.
         24    2    3    3    0    0 -0.85904240752E+02 -0.52347651552E+02 -0.15649411333E+03  0.20274894574E+03  0.80603426037E+02 0.  0.
         -6    2    1    2    0  502  0.12242398920E+03 -0.21062952281E+02 -0.19526235759E+03  0.28960870168E+03  0.17411068521E+03 0.  0.
        -24    2    5    5    0    0 -0.31883344618E+01 -0.31689423448E+02 -0.77227763588E+02  0.11684981442E+03  0.81702916879E+02 0.  0.
          5    1    3    3  501    0 -0.36519748446E+02  0.73410603833E+02 -0.67758730563E+02  0.10647133111E+03  0.47000000000E+01 0. -1.
        -13    1    4    4    0    0 -0.77905446411E+02 -0.50511974918E+02 -0.71055453698E+02  0.11691704619E+03  0.00000000000E+00 0.  1.
         14    1    4    4    0    0 -0.79987943406E+01 -0.18356766344E+01 -0.85438659631E+02  0.85831899543E+02  0.00000000000E+00 0. -1.
         -5    1    5    5    0  502  0.12561232366E+03  0.10626471167E+02 -0.11803459401E+03  0.17275888726E+03  0.47000000000E+01 0.  1.
         11    1    6    6    0    0  0.29043073216E+02 -0.30410347077E+02 -0.11439719459E+02  0.43579312666E+02  0.00000000000E+00 0. -1.
        -12    1    6    6    0    0 -0.32231407677E+02 -0.12790763716E+01 -0.65788044129E+02  0.73270501756E+02  0.00000000000E+00 0.  1.
</event>
<event>
12    1  0.1061634E+000  0.2414069E+03  0.7818608E-02  0.1119018E+00
         21   -1    0    0  501  502  0.00000000000E+00  0.00000000000E+00  0.60309429127E+03  0.60309429127E+03  0.00000000000E+00 0. -1.
         21   -1    0    0  502  503 -0.00000000000E+00 -0.00000000000E+00 -0.97126518671E+02  0.97126518671E+02  0.00000000000E+00 0. -1.
         -6    2    1    2    0  503 -0.11296222309E+02 -0.16871951492E+03  0.21918885944E+03  0.32536159905E+03  0.17094599931E+03 0.  0.
        -24    2    3    3    0    0  0.42506424337E+02 -0.66163660625E+02  0.15731353589E+03  0.19397258238E+03  0.81813128799E+02 0.  0.
          6    2    1    2  501    0  0.11296222309E+02  0.16871951492E+03  0.28677891316E+03  0.37485921089E+03  0.17228872164E+03 0.  0.
         24    2    5    5    0    0 -0.13348576137E+02  0.79389651379E+02  0.55660284778E+02  0.12581082002E+03  0.79053108111E+02 0.  0.
          5    1    5    5  501    0  0.24644798446E+02  0.89329863541E+02  0.23111862838E+03  0.24904839087E+03  0.47000000000E+01 0. -1.
        -11    1    6    6    0    0  0.17677896060E+02 -0.61186302180E+01 -0.84518545536E+00  0.18725917422E+02  0.00000000000E+00 0.  1.
         12    1    6    6    0    0 -0.31026472196E+02  0.85508281597E+02  0.56505470233E+02  0.10708490260E+03  0.00000000000E+00 0. -1.
         -5    1    3    3    0  503 -0.53802646646E+02 -0.10255585429E+03  0.61875323546E+02  0.13138901666E+03  0.47000000000E+01 0.  1.
         11    1    4    4    0    0  0.70583405896E+01  0.71484643134E+01 -0.58441669386E+01  0.11622177125E+02  0.00000000000E+00 0. -1.
        -12    1    4    4    0    0  0.35448083747E+02 -0.73312124939E+02  0.16315770283E+03  0.18235040526E+03  0.00000000000E+00 0.  1.
</event>
<event>
12    1  0.1061634E+000  0.2996559E+03  0.7818608E-02  0.1085460E+00
         21   -1    0    0  501  502  0.00000000000E+00  0.00000000000E+00  0.13687085936E+03  0.13687085936E+03  0.00000000000E+00 0. -1.
         21   -1    0    0  502  503 -0.00000000000E+00 -0.00000000000E+00 -0.65793923472E+03  0.65793923472E+03  0.00000000000E+00 0. -1.
         -6    2    1    2    0  503  0.92308739779E+02 -0.22738814326E+03 -0.28622791073E+03  0.41439118438E+03  0.17195163760E+03 0.  0.
        -24    2    3    3    0    0  0.30243688270E+02 -0.93917087977E+02 -0.23139505970E+03  0.25724372252E+03  0.53810398868E+02 0.  0.
          6    2    1    2  501    0 -0.92308739779E+02  0.22738814326E+03 -0.23484046463E+03  0.38041890970E+03  0.17129574396E+03 0.  0.
         24    2    5    5    0    0  0.59731717862E+00  0.39407186014E+02 -0.95441639756E+02  0.12858067178E+03  0.76619837232E+02 0.  0.
          5    1    5    5  501    0 -0.92906056958E+02  0.18798095725E+03 -0.13939882487E+03  0.25183823793E+03  0.47000000000E+01 0. -1.
        -11    1    6    6    0    0 -0.35291825831E+02  0.53427331758E+01 -0.49747863214E+02  0.61228324023E+02  0.00000000000E+00 0.  1.
         12    1    6    6    0    0  0.35889143009E+02  0.34064452838E+02 -0.45693776542E+02  0.67352347752E+02  0.00000000000E+00 0. -1.
         -5    1    3    3    0  503  0.62065051509E+02 -0.13347105529E+03 -0.54832851032E+02  0.15714746186E+03  0.47000000000E+01 0.  1.
         13    1    4    4    0    0 -0.10424958338E+02 -0.51674977100E+00 -0.24424754399E+02  0.26561540131E+02  0.00000000000E+00 0. -1.
        -14    1    4    4    0    0  0.40668646607E+02 -0.93400338206E+02 -0.20697030530E+03  0.23068218239E+03  0.00000000000E+00 0.  1.
</event>
<event>
12    1  0.1061634E+000  0.1803352E+03  0.7818608E-02  0.1169632E+00
         21   -1    0    0  501  502  0.00000000000E+00  0.00000000000E+00  0.26856199323E+02  0.26856199323E+02  0.00000000000E+00 0.  1.
         21   -1    0    0  502  503 -0.00000000000E+00 -0.00000000000E+00 -0.12210969636E+04  0.12210969636E+04  0.00000000000E+00 0.  1.
         -6    2    1    2    0  503 -0.52371449884E+01 -0.57267510420E+02 -0.73018979686E+03  0.75009365451E+03  0.16172926657E+03 0.  0.
        -24    2    3    3    0    0  0.59189369247E+02 -0.69315089420E+02 -0.40328434457E+03  0.41664922941E+03  0.51481596112E+02 0.  0.
          6    2    1    2  501    0  0.52371449884E+01  0.57267510420E+02 -0.46405096740E+03  0.49785950839E+03  0.17092043270E+03 0.  0.
         24    2    5    5    0    0  0.89504167745E+01 -0.33173061218E+02 -0.21516987861E+03  0.23298751715E+03  0.82489663213E+02 0.  0.
          5    1    5    5  501    0 -0.37132717861E+01  0.90440571638E+02 -0.24888108879E+03  0.26487199124E+03  0.47000000000E+01 0. -1.
        -13    1    6    6    0    0  0.44888147962E+02 -0.96868941674E+01 -0.98787062783E+02  0.10893881549E+03  0.00000000000E+00 0.  1.
         14    1    6    6    0    0 -0.35937731187E+02 -0.23486167051E+02 -0.11638281582E+03  0.12404870166E+03  0.00000000000E+00 0. -1.
         -5    1    3    3    0  503 -0.64426514235E+02  0.12047579000E+02 -0.32690545228E+03  0.33344442510E+03  0.47000000000E+01 0.  1.
         11    1    4    4    0    0  0.66791036715E+02 -0.61249598408E+02 -0.31843709615E+03  0.33108116844E+03  0.00000000000E+00 0. -1.
        -12    1    4    4    0    0 -0.76016674686E+01 -0.80654910120E+01 -0.84847248424E+02  0.85568060973E+02  0.00000000000E+00 0.  1.
</event>
<event>
12    1  0.1061634E+000  0.2387640E+03  0.7818608E-02  0.1120814E+00
         21   -1    0    0  503  502  0.00000000000E+00  0.00000000000E+00  0.11508230683E+03  0.11508230683E+03  0.00000000000E+00 0.  1.
         21   -1    0    0  501  503 -0.00000000000E+00 -0.00000000000E+00 -0.49908780257E+03  0.49908780257E+03  0.00000000000E+00 0. -1.
          6    2    1    2  501    0  0.44313545848E+02 -0.15741465623E+03 -0.22554636541E+03  0.32760849297E+03  0.17237487455E+03 0.  0.
         24    2    3    3    0    0  0.90906437706E+02 -0.14537298802E+03 -0.18628538254E+03  0.26532355000E+03  0.79353994061E+02 0.  0.
         -6    2    1    2    0  502 -0.44313545848E+02  0.15741465623E+03 -0.15845913033E+03  0.28656161643E+03  0.17396896184E+03 0.  0.
        -24    2    5    5    0    0 -0.35455638515E+02  0.39867202209E+02 -0.82899908744E+01  0.95593747632E+02  0.78885642059E+02 0.  0.
          5    1    3    3  501    0 -0.46592891859E+02 -0.12041668206E+02 -0.39260982866E+02  0.62284942968E+02  0.47000000000E+01 0. -1.
        -13    1    4    4    0    0  0.57928474777E+02 -0.92367665308E+02 -0.16799156124E+03  0.20027146185E+03  0.00000000000E+00 0.  1.
         14    1    4    4    0    0  0.32977962929E+02 -0.53005322712E+02 -0.18293821305E+02  0.65052088151E+02  0.00000000000E+00 0. -1.
         -5    1    5    5    0  502 -0.88579073326E+01  0.11754745402E+03 -0.15016913946E+03  0.19096786880E+03  0.47000000000E+01 0.  1.
         11    1    6    6    0    0 -0.13518793671E+02  0.29128001001E+02 -0.42680879406E+02  0.53412130566E+02  0.00000000000E+00 0. -1.
        -12    1    6    6    0    0 -0.21936844844E+02  0.10739201208E+02  0.34390888532E+02  0.42181617066E+02  0.00000000000E+00 0.  1.
</event>
<event>
12    1  0.1061634E+000  0.2596908E+03  0.7818608E-02  0.1109193E+00
         21   -1    0    0  501  502  0.00000000000E+00  0.00000000000E+00  0.49907950044E+03  0.49907950044E+03  0.00000000000E+00 0. -1.
         21   -1    0    0  502  503 -0.00000000000E+00 -0.00000000000E+00 -0.17733332008E+03  0.17733332008E+03  0.00000000000E+00 0. -1.
         -6    2    1    2    0  503 -0.35466605942E+02  0.17526391878E+03  0.34034015234E+03  0.42810133668E+03  0.18831891518E+03 0.  0.
        -24    2    3    3    0    0 -0.20124601198E+02  0.10557475335E+03  0.63056433288E+02  0.14174437809E+03  0.67559801820E+02 0.  0.
          6    2    1    2  501    0  0.35466605942E+02 -0.17526391878E+03 -0.18593971979E+02  0.24831148384E+03  0.17128203599E+03 0.  0.
         24    2    5    5    0    0 -0.43692156434E+02 -0.11455305350E+03 -0.30775171252E+02  0.14770139271E+03  0.76401463605E+02 0.  0.
          5    1    5    5  501    0  0.79158762375E+02 -0.60710865273E+02  0.12181199273E+02  0.10061009114E+03  0.47000000000E+01 0. -1.
        -13    1    6    6    0    0  0.11027430817E+02 -0.34095315594E+02  0.16584296889E+02  0.39485866829E+02  0.00000000000E+00 0.  1.
         14    1    6    6    0    0 -0.54719587251E+02 -0.80457737910E+02 -0.47359468141E+02  0.10821552588E+03  0.00000000000E+00 0. -1.
         -5    1    3    3    0  503 -0.15342004744E+02  0.69689165430E+02  0.27728371905E+03  0.28635695860E+03  0.47000000000E+01 0.  1.
         13    1    4    4    0    0 -0.34545640442E+02  0.55809339706E+02  0.79672330897E+01  0.66117777300E+02  0.00000000000E+00 0. -1.
        -14    1    4    4    0    0  0.14421039245E+02  0.49765413642E+02  0.55089200199E+02  0.75626600785E+02  0.00000000000E+00 0.  1.
</event>
<event>
12    1  0.1061634E+000  0.2705364E+03  0.7818608E-02  0.1101694E+00
         21   -1    0    0  501  502  0.00000000000E+00  0.00000000000E+00  0.14693832204E+03  0.14693832204E+03  0.00000000000E+00 0.  1.
         21   -1    0    0  502  503 -0.00000000000E+00 -0.00000000000E+00 -0.49114851212E+03  0.49114851212E+03  0.00000000000E+00 0.  1.
         -6    2    1    2    0  503 -0.58978102874E+01  0.20228553521E+03 -0.14905373822E+03  0.30450630915E+03  0.17190943404E+03 0.  0.
        -24    2    3    3    0    0  0.39416343263E+02  0.65339310318E+02 -0.22697157691E+02  0.11268421327E+03  0.79747710708E+02 0.  0.
          6    2    1    2  501    0  0.58978102874E+01 -0.20228553521E+03 -0.19515645186E+03  0.33358052502E+03  0.17954304232E+03 0.  0.
         24    2    5    5    0    0 -0.54342845777E+02 -0.14677257512E+03 -0.17690390530E+03  0.24952179057E+03  0.80441274000E+02 0.  0.
          5    1    5    5  501    0  0.60240656064E+02 -0.55512960096E+02 -0.18252546555E+02  0.84058734450E+02  0.47000000000E+01 0. -1.
        -13    1    6    6    0    0 -0.18562852337E+01  0.15969696094E+01 -0.42472804288E+02  0.42543333330E+02  0.00000000000E+00 0.  1.
         14    1    6    6    0    0 -0.52486560543E+02 -0.14836954473E+03 -0.13443110102E+03  0.20697845724E+03  0.00000000000E+00 0. -1.
         -5    1    3    3    0  503 -0.45314153550E+02  0.13694622489E+03 -0.12635658053E+03  0.19182209588E+03  0.47000000000E+01 0.  1.
         13    1    4    4    0    0  0.26014028176E+02  0.83431648468E+02 -0.22174423285E+02  0.90162490405E+02  0.00000000000E+00 0. -1.
        -14    1    4    4    0    0  0.13402315087E+02 -0.18092338150E+02 -0.52273440588E+00  0.22521722862E+02  0.00000000000E+00 0.  1.
</event>
<event>
12    1  0.1061634E+000  0.2519181E+03  0.7818608E-02  0.1112314E+00
         21   -1    0    0  501  502  0.00000000000E+00  0.00000000000E+00  0.30795587767E+03  0.30795587767E+03  0.00000000000E+00 0.  1.
         21   -1    0    0  502  503 -0.00000000000E+00 -0.00000000000E+00 -0.20498984286E+03  0.20498984286E+03  0.00000000000E+00 0.  1.
         -6    2    1    2    0  503 -0.15714741429E+03 -0.91322321719E+02  0.54859019375E+02  0.25782208496E+03  0.17443520065E+03 0.  0.
        -24    2    3    3    0    0 -0.11458411002E+03 -0.12560783450E+03  0.72654592544E+02  0.20015143661E+03  0.76648949125E+02 0.  0.
          6    2    1    2  501    0  0.15714741429E+03  0.91322321719E+02  0.48107015432E+02  0.25512363557E+03  0.17244914679E+03 0.  0.
         24    2    5    5    0    0  0.17756694058E+03  0.60369113781E+02  0.65692532495E+02  0.21381505842E+03  0.78910849024E+02 0.  0.
          5    1    5    5  501    0 -0.20419526292E+02  0.30953207938E+02 -0.17585517063E+02  0.41308577149E+02  0.47000000000E+01 0. -1.
        -11    1    6    6    0    0  0.43249443733E+01  0.18960509347E+02  0.23978911070E+02  0.30873843859E+02  0.00000000000E+00 0.  1.
         12    1    6    6    0    0  0.17324199621E+03  0.41408604434E+02  0.41713621425E+02  0.18294121456E+03  0.00000000000E+00 0. -1.
         -5    1    3    3    0  503 -0.42563304267E+02  0.34285512784E+02 -0.17795573169E+02  0.57670648352E+02  0.47000000000E+01 0.  1.
         13    1    4    4    0    0 -0.91160601332E+02 -0.89187965138E+02  0.15538595498E+02  0.12847644263E+03  0.00000000000E+00 0. -1.
        -14    1    4    4    0    0 -0.23423508691E+02 -0.36419869365E+02  0.57115997045E+02  0.71674993983E+02  0.00000000000E+00 0.  1.
</event>
<event>
12    1  0.1061634E+000  0.1931295E+03  0.7818608E-02  0.1155753E+00
         21   -1    0    0  503  502  0.00000000000E+00  0.00000000000E+00  0.57058532910E+03  0.57058532910E+03  0.00000000000E+00 0. -1.
         21   -1    0    0  501  503 -0.00000000000E+00 -0.00000000000E+00 -0.72868406663E+02  0.72868406663E+02  0.00000000000E+00 0. -1.
          6    2    1    2  501    0  0.87268842215E+02 -0.74153619583E+00  0.35317080565E+03  0.40252777865E+03  0.17228637185E+03 0.  0.
         24    2    3    3    0    0  0.54309862018E+02  0.55843396773E+02  0.13381832170E+03  0.17356107533E+03  0.78409550259E+02 0.  0.
         -6    2    1    2    0  502 -0.87268842215E+02  0.74153619583E+00  0.14454611679E+03  0.24092595711E+03  0.17185847734E+03 0.  0.
        -24    2    5    5    0    0 -0.70894876798E+02  0.61553887904E+02  0.64362947440E+02  0.13885892272E+03  0.79525132774E+02 0.  0.
          5    1    3    3  501    0  0.32958980197E+02 -0.56584932969E+02  0.21935248395E+03  0.22896670332E+03  0.47000000000E+01 0. -1.
        -13    1    4    4    0    0  0.19065882164E+02  0.39714528289E+02  0.12671730218E+03  0.13415672287E+03  0.00000000000E+00 0.  1.
         14    1    4    4    0    0  0.35243979854E+02  0.16128868484E+02  0.71010195213E+01  0.39404352460E+02  0.00000000000E+00 0. -1.
         -5    1    5    5    0  502 -0.16373965417E+02 -0.60812351708E+02  0.80183169347E+02  0.10206703440E+03  0.47000000000E+01 0.  1.
         11    1    6    6    0    0  0.41943586013E+01 -0.14734503018E+02  0.34714304478E+01  0.15708247917E+02  0.00000000000E+00 0. -1.
        -12    1    6    6    0    0 -0.75089235399E+02  0.76288390922E+02  0.60891516992E+02  0.12315067480E+03  0.00000000000E+00 0.  1.
</event>
<event>
12    1  0.1061634E+000  0.1730671E+03  0.7818608E-02  0.1174726E+00
         21   -1    0    0  501  502  0.00000000000E+00  0.00000000000E+00  0.23193827624E+03  0.23193827624E+03  0.00000000000E+00 0.  1.
         21   -1    0    0  502  503 -0.00000000000E+00 -0.00000000000E+00 -0.13277970853E+03  0.13277970853E+03  0.00000000000E+00 0.  1.
         -6    2    1    2    0  503  0.39934885803E+01  0.25213481930E+02  0.18891209587E+02  0.17394307838E+03  0.17101944069E+03 0.  0.
        -24    2    3    3    0    0 -0.55471660241E+02  0.47680926005E+02  0.23003271290E+02  0.11006906943E+03  0.78965016055E+02 0.  0.
          6    2    1    2  501    0 -0.39934885803E+01 -0.25213481930E+02  0.80267358123E+02  0.19077490639E+03  0.17117402988E+03 0.  0.
         24    2    5    5    0    0 -0.66862606443E+02  0.30466693617E+01  0.37708504602E+02  0.10962992413E+03  0.78210604215E+02 0.  0.
          5    1    5    5  501    0  0.62869117862E+02 -0.28260151292E+02  0.42558853520E+02  0.81144982253E+02  0.47000000000E+01 0. -1.
        -13    1    6    6    0    0 -0.72763402194E+02 -0.21538451288E+02  0.36784222711E+02  0.84329690046E+02  0.00000000000E+00 0.  1.
         14    1    6    6    0    0  0.59007957516E+01  0.24585120650E+02  0.92428189133E+00  0.25300234088E+02  0.00000000000E+00 0. -1.
         -5    1    3    3    0  503  0.59465148822E+02 -0.22467444075E+02 -0.41120617029E+01  0.63874008948E+02  0.47000000000E+01 0.  1.
         13    1    4    4    0    0  0.35557476453E+01  0.36897322181E+02 -0.13941402345E+02  0.39603262805E+02  0.00000000000E+00 0. -1.
        -14    1    4    4    0    0 -0.59027407887E+02  0.10783603824E+02  0.36944673636E+02  0.70465806625E+02  0.00000000000E+00 0.  1.
</event>
<event>
12    1  0.1061634E+000  0.2496995E+03  0.7818608E-02  0.1113546E+00
         21   -1    0    0  501  502  0.00000000000E+00  0.00000000000E+00  0.97864534869E+02  0.97864534869E+02  0.00000000000E+00 0.  1.
         21   -1    0    0  502  503 -0.00000000000E+00 -0.00000000000E+00 -0.66719775752E+03  0.66719775752E+03  0.00000000000E+00 0.  1.
         -6    2    1    2    0  503 -0.10171244048E+03 -0.15164966998E+03 -0.20213453774E+03  0.32100743506E+03  0.16983627133E+03 0.  0.
        -24    2    3    3    0    0 -0.10633266355E+03 -0.86295570757E+02 -0.19953271848E+03  0.25527035108E+03  0.81216288564E+02 0.  0.
          6    2    1    2  501    0  0.10171244048E+03  0.15164966998E+03 -0.36719868491E+03  0.44405485734E+03  0.17031382554E+03 0.  0.
         24    2    5    5    0    0 -0.79117135756E+01  0.76352312049E+02 -0.11693595254E+03  0.16061055508E+03  0.78926944969E+02 0.  0.
          5    1    5    5  501    0  0.10962415406E+03  0.75297357928E+02 -0.25026273237E+03  0.28344430225E+03  0.47000000000E+01 0. -1.
        -13    1    6    6    0    0  0.99962772710E+01  0.45935172305E+02 -0.11615191480E+03  0.12530456067E+03  0.00000000000E+00 0.  1.
         14    1    6    6    0    0 -0.17907990847E+02  0.30417139743E+02 -0.78403773890E+00  0.35305994413E+02  0.00000000000E+00 0. -1.
         -5    1    3    3    0  503  0.46202230664E+01 -0.65354099220E+02 -0.26018192666E+01  0.65737083975E+02  0.47000000000E+01 0.  1.
         11    1    4    4    0    0 -0.52964716046E+02 -0.22263229746E+02 -0.26633540200E+02  0.63326597952E+02  0.00000000000E+00 0. -1.
        -12    1    4    4    0    0 -0.53367947502E+02 -0.64032341011E+02 -0.17289917828E+03  0.19194375313E+03  0.00000000000E+00 0.  1.
</event>
<event>
12    1  0.1061634E+000  0.2343714E+03  0.7818608E-02  0.1123874E+00
         21   -1    0    0  501  502  0.00000000000E+00  0.00000000000E+00  0.70575333707E+03  0.70575333707E+03  0.00000000000E+00 0. -1.
         21   -1    0    0  502  503 -0.00000000000E+00 -0.00000000000E+00 -0.23698147870E+03  0.23698147870E+03  0.00000000000E+00 0. -1.
         -6    2    1    2    0  503  0.14425513595E+03 -0.61669669406E+02  0.62156572720E+03  0.66428451682E+03  0.17411856213E+03 0.  0.
        -24    2    3    3    0    0  0.27039995563E+02  0.43993324506E+01  0.13620274588E+03  0.16059431860E+03  0.80553284819E+02 0.  0.
          6    2    1    2  501    0 -0.14425513595E+03  0.61669669406E+02 -0.15279386884E+03  0.27845029896E+03  0.17197648171E+03 0.  0.
         24    2    5    5    0    0 -0.57412987604E+02  0.53253869474E+02 -0.58967161225E+01  0.10753146473E+03  0.73457599239E+02 0.  0.
          5    1    5    5  501    0 -0.86842148347E+02  0.84157999320E+01 -0.14689715272E+03  0.17091883423E+03  0.47000000000E+01 0. -1.
        -13    1    6    6    0    0 -0.21424176166E+02  0.63586713775E+02 -0.15522888191E+02  0.68871079205E+02  0.00000000000E+00 0.  1.
         14    1    6    6    0    0 -0.35988811439E+02 -0.10332844300E+02  0.96261720684E+01  0.38660385523E+02  0.00000000000E+00 0. -1.
         -5    1    3    3    0  503  0.11721514039E+03 -0.66069001857E+02  0.48536298132E+03  0.50369019822E+03  0.47000000000E+01 0.  1.
         11    1    4    4    0    0 -0.26029726508E+02 -0.12775625695E+02  0.53228279251E+02  0.60613636964E+02  0.00000000000E+00 0. -1.
        -12    1    4    4    0    0  0.53069722071E+02  0.17174958145E+02  0.82974466630E+02  0.99980681637E+02  0.00000000000E+00 0.  1.
</event>
<event>
12    1  0.1391953E+000  0.2737114E+03  0.7818608E-02  0.1099549E+00
         21   -1    0    0  501  502  0.00000000000E+00  0.00000000000E+00  0.66473239107E+03  0.66473239107E+03  0.00000000000E+00 0. -1.
         21   -1    0    0  502  503 -0.00000000000E+00 -0.00000000000E+00 -0.39041208536E+03  0.39041208536E+03  0.00000000000E+00 0.  1.
         -6    2    1    2    0  503  0.15538996239E+03 -0.14028676223E+03  0.58279386468E+03  0.64274437114E+03  0.17217787852E+03 0.  0.
        -24    2    3    3    0    0  0.12005141527E+03 -0.17252410666E+03  0.46423561224E+03  0.51481388801E+03  0.73087111981E+02 0.  0.
          6    2    1    2  501    0 -0.15538996239E+03  0.14028676223E+03 -0.30847355897E+03  0.41240010530E+03  0.17632780324E+03 0.  0.
         24    2    5    5    0    0 -0.11106894113E+03  0.26456783544E+02 -0.10336986792E+03  0.17362985786E+03  0.80160631676E+02 0.  0.
          5    1    5    5  501    0 -0.44321021265E+02  0.11382997868E+03 -0.20510369106E+03  0.23877024743E+03  0.47000000000E+01 0. -1.
        -13    1    6    6    0    0 -0.58469417017E+02 -0.13148667408E+02 -0.87237687491E+02  0.10583937972E+03  0.00000000000E+00 0.  1.
         14    1    6    6    0    0 -0.52599524110E+02  0.39605450952E+02 -0.16132180425E+02  0.67790478144E+02  0.00000000000E+00 0. -1.
         -5    1    3    3    0  503  0.35338547122E+02  0.32237344435E+02  0.11855825245E+03  0.12793048312E+03  0.47000000000E+01 0.  1.
         13    1    4    4    0    0  0.14125453350E+02 -0.81881545229E+02  0.16984040105E+03  0.18907638063E+03  0.00000000000E+00 0. -1.
        -14    1    4    4    0    0  0.10592596192E+03 -0.90642561432E+02  0.29439521118E+03  0.32573750739E+03  0.00000000000E+00 0.  1.
</event>
<event>
12    1  0.1061634E+000  0.2363913E+03  0.7818608E-02  0.1122272E+00
         21   -1    0    0  503  502  0.00000000000E+00  0.00000000000E+00  0.59712413078E+03  0.59712413078E+03  0.00000000000E+00 0.  1.
         21   -1    0    0  501  503 -0.00000000000E+00 -0.00000000000E+00 -0.18716489908E+03  0.18716489908E+03  0.00000000000E+00 0.  1.
          6    2    1    2  501    0 -0.28746621970E+02  0.15927388442E+03 -0.72552595254E+02  0.24698230937E+03  0.17187740843E+03 0.  0.
         24    2    3    3    0    0  0.33472918984E+02  0.11383614035E+03 -0.13776966789E+01  0.14198794738E+03  0.77971635853E+02 0.  0.
         -6    2    1    2    0  502  0.28746621970E+02 -0.15927388442E+03  0.48251182695E+03  0.53730672049E+03  0.17229715667E+03 0.  0.
        -24    2    5    5    0    0  0.38718413678E+02 -0.66813404910E+02  0.38781403401E+03  0.40449806531E+03  0.85181061478E+02 0.  0.
          5    1    3    3  501    0 -0.62219540954E+02  0.45437744070E+02 -0.71174898575E+02  0.10499436199E+03  0.47000000000E+01 0. -1.
        -13    1    4    4    0    0  0.76023269600E+01 -0.38765190726E+01  0.17997804464E+02  0.19918427169E+02  0.00000000000E+00 0.  1.
         14    1    4    4    0    0  0.25870592024E+02  0.11771265942E+03 -0.19375501143E+02  0.12206952021E+03  0.00000000000E+00 0. -1.
         -5    1    5    5    0  502 -0.99717917084E+01 -0.92460479506E+02  0.94697792946E+02  0.13280865517E+03  0.47000000000E+01 0.  1.
         11    1    6    6    0    0 -0.22311897388E+01 -0.53926140015E+02  0.10125643646E+03  0.11474263684E+03  0.00000000000E+00 0. -1.
        -12    1    6    6    0    0  0.40949603417E+02 -0.12887264895E+02  0.28655759755E+03  0.28975542847E+03  0.00000000000E+00 0.  1.
</event>
<event>
12    1  0.1061634E+000  0.1784984E+03  0.7818608E-02  0.1169293E+00
         21   -1    0    0  501  502  0.00000000000E+00  0.00000000000E+00  0.44974412215E+03  0.44974412215E+03  0.00000000000E+00 0.  1.
         21   -1    0    0  502  503 -0.00000000000E+00 -0.00000000000E+00 -0.93800042443E+02  0.93800042443E+02  0.00000000000E+00 0.  1.
         -6    2    1    2    0  503  0.40636160800E+02 -0.23873952101E+02  0.31259828104E+03  0.35997135927E+03  0.17216396555E+03 0.  0.
        -24    2    3    3    0    0 -0.42460180524E+02 -0.39561745034E+02  0.18883215706E+03  0.21000052132E+03  0.71236485158E+02 0.  0.
          6    2    1    2  501    0 -0.40636160800E+02  0.23873952101E+02  0.43345798669E+02  0.18357280532E+03  0.17204317318E+03 0.  0.
         24    2    5    5    0    0 -0.56802642711E+01 -0.15305983639E+02 -0.34433916625E+02  0.89611344192E+02  0.81104622904E+02 0.  0.
          5    1    5    5  501    0 -0.34955896529E+02  0.39179935740E+02  0.77779715294E+02  0.93961461131E+02  0.47000000000E+01 0. -1.
        -11    1    6    6    0    0 -0.71361408140E+01  0.27829086315E+02  0.72272973557E+01  0.29624590764E+02  0.00000000000E+00 0.  1.
         12    1    6    6    0    0  0.14558765429E+01 -0.43135069954E+02 -0.41661213981E+02  0.59986753428E+02  0.00000000000E+00 0. -1.
         -5    1    3    3    0  503  0.83096341324E+02  0.15687792933E+02  0.12376612398E+03  0.14997083795E+03  0.47000000000E+01 0.  1.
         11    1    4    4    0    0  0.58545949583E+01 -0.85267224917E+01  0.11962844560E+03  0.12007475286E+03  0.00000000000E+00 0. -1.
        -12    1    4    4    0    0 -0.48314775482E+02 -0.31035022542E+02  0.69203711460E+02  0.89925768465E+02  0.00000000000E+00 0.  1.
</event>
<event>
12    1  0.1061634E+000  0.2652659E+03  0.7818608E-02  0.1104049E+00
         21   -1    0    0  501  502  0.00000000000E+00  0.00000000000E+00  0.17367700044E+03  0.17367700044E+03  0.00000000000E+00 0.  1.
         21   -1    0    0  502  503 -0.00000000000E+00 -0.00000000000E+00 -0.43801850158E+03  0.43801850158E+03  0.00000000000E+00 0.  1.
         -6    2    1    2    0  503  0.62380090738E+02  0.19193203795E+03 -0.48055009385E+02  0.26958351128E+03  0.17215342783E+03 0.  0.
        -24    2    3    3    0    0  0.32624910717E+02  0.17728857976E+03 -0.89094415261E+02  0.21661064614E+03  0.80540250056E+02 0.  0.
          6    2    1    2  501    0 -0.62380090738E+02 -0.19193203795E+03 -0.21628649175E+03  0.34211199075E+03  0.17184756264E+03 0.  0.
         24    2    5    5    0    0 -0.55214553849E+02 -0.28588601813E+02 -0.64982292971E+02  0.11929486031E+03  0.78374805810E+02 0.  0.
          5    1    5    5  501    0 -0.71655368885E+01 -0.16334343614E+03 -0.15130419878E+03  0.22281713044E+03  0.47000000000E+01 0. -1.
        -11    1    6    6    0    0 -0.67260390933E+02 -0.31912281771E+02 -0.26806749374E+02  0.79126201276E+02  0.00000000000E+00 0.  1.
         12    1    6    6    0    0  0.12045837084E+02  0.33236799576E+01 -0.38175543597E+02  0.40168659033E+02  0.00000000000E+00 0. -1.
         -5    1    3    3    0  503  0.29755180020E+02  0.14643458193E+02  0.41039405875E+02  0.52972865134E+02  0.47000000000E+01 0.  1.
         11    1    4    4    0    0  0.45603414350E+02  0.46913129374E+02 -0.19584319034E+02  0.68293913785E+02  0.00000000000E+00 0. -1.
        -12    1    4    4    0    0 -0.12978503633E+02  0.13037545039E+03 -0.69510096227E+02  0.14831673236E+03  0.00000000000E+00 0.  1.
</event>
<event>
12    1  0.1061634E+000  0.1823934E+03  0.7818608E-02  0.1166277E+00
         21   -1    0    0  503  502  0.00000000000E+00  0.00000000000E+00  0.13849594358E+03  0.13849594358E+03  0.00000000000E+00 0.  1.
         21   -1    0    0  501  503 -0.00000000000E+00 -0.00000000000E+00 -0.46921007547E+03  0.46921007547E+03  0.00000000000E+00 0.  1.
          6    2    1    2  501    0 -0.12515639930E+02 -0.49386825743E+02 -0.38030762347E+03  0.42178339278E+03  0.17513321261E+03 0.  0.
         24    2    3    3    0    0 -0.66167382010E+02 -0.58670590898E+02 -0.18870453478E+03  0.22253848991E+03  0.78061625458E+02 0.  0.
         -6    2    1    2    0  502  0.12515639930E+02  0.49386825743E+02  0.49593491576E+02  0.18592262627E+03  0.17179059565E+03 0.  0.
        -24    2    5    5    0    0  0.14831045856E+02  0.21452839220E+01 -0.35165735482E+02  0.88745772293E+02  0.80091329017E+02 0.  0.
          5    1    3    3  501    0  0.53651742080E+02  0.92837651554E+01 -0.19160308869E+03  0.19924490287E+03  0.47000000000E+01 0. -1.
        -11    1    4    4    0    0 -0.11490907990E+01  0.13482093886E+02 -0.58814516381E+02  0.60350928761E+02  0.00000000000E+00 0.  1.
         12    1    4    4    0    0 -0.65018291211E+02 -0.72152684784E+02 -0.12989001840E+03  0.16218756115E+03  0.00000000000E+00 0. -1.
         -5    1    5    5    0  502 -0.23154059263E+01  0.47241541821E+02  0.84759227058E+02  0.97176853981E+02  0.47000000000E+01 0.  1.
         11    1    6    6    0    0  0.47678992734E+02 -0.40419896153E+01 -0.23787974806E+02  0.53436801678E+02  0.00000000000E+00 0. -1.
        -12    1    6    6    0    0 -0.32847946878E+02  0.61872735372E+01 -0.11377760676E+02  0.35308970616E+02  0.00000000000E+00 0.  1.
</event>
<event>
12    1  0.1061634E+000  0.2186996E+03  0.7818608E-02  0.1134857E+00
         21   -1    0    0  503  502  0.00000000000E+00  0.00000000000E+00  0.16134888140E+04  0.16134888140E+04  0.00000000000E+00 0.  1.
         21   -1    0    0  501  503 -0.00000000000E+00 -0.00000000000E+00 -0.35300288612E+02  0.35300288612E+02  0.00000000000E+00 0.  1.
          6    2    1    2  501    0  0.57766155936E+02  0.12290319628E+03  0.11191121110E+04  0.11402808342E+04  0.17142444238E+03 0.  0.
         24    2    3    3    0    0  0.80452882431E+02  0.81398869471E+02  0.10290865609E+04  0.10384771684E+04  0.79481049327E+02 0.  0.
         -6    2    1    2    0  502 -0.57766155936E+02 -0.12290319628E+03  0.45907641435E+03  0.50850826837E+03  0.17142747842E+03 0.  0.
        -24    2    5    5    0    0 -0.13010771347E+02  0.20639957134E+01  0.22797782908E+03  0.24195904282E+03  0.79979669938E+02 0.  0.
          5    1    3    3  501    0 -0.22686726495E+02  0.41504326806E+02  0.90025550099E+02  0.10180366581E+03  0.47000000000E+01 0. -1.
        -13    1    4    4    0    0  0.48970225163E+02  0.86236354785E+02  0.59357339130E+03  0.60180076661E+03  0.00000000000E+00 0.  1.
         14    1    4    4    0    0  0.31482657268E+02 -0.48374853143E+01  0.43551316963E+03  0.43667640181E+03  0.00000000000E+00 0. -1.
         -5    1    5    5    0  502 -0.44755384589E+02 -0.12496719199E+03  0.23109858527E+03  0.26654922554E+03  0.47000000000E+01 0.  1.
         13    1    6    6    0    0 -0.18276613739E+02 -0.27786727739E+02  0.19224863691E+03  0.19510426762E+03  0.00000000000E+00 0. -1.
        -14    1    6    6    0    0  0.52658423923E+01  0.29850723453E+02  0.35729192170E+02  0.46854775209E+02  0.00000000000E+00 0.  1.
</event>
<event>
12    1  0.1061634E+000  0.2305376E+03  0.7818608E-02  0.1126405E+00
         21   -1    0    0  501  502  0.00000000000E+00  0.00000000000E+00  0.98959927006E+02  0.98959927006E+02  0.00000000000E+00 0.  1.
         21   -1    0    0  502  503 -0.00000000000E+00 -0.00000000000E+00 -0.61848967537E+03  0.61848967537E+03  0.00000000000E+00 0. -1.
         -6    2    1    2    0  503 -0.13472440389E+03 -0.73467134058E+02 -0.12770185304E+03  0.26283250988E+03  0.17095344451E+03 0.  0.
        -24    2    3    3    0    0 -0.10048606160E+03 -0.36266800053E+02 -0.15496929527E+03  0.20519803809E+03  0.81719171562E+02 0.  0.
          6    2    1    2  501    0  0.13472440389E+03  0.73467134058E+02 -0.39182789533E+03  0.45461709250E+03  0.17204510003E+03 0.  0.
         24    2    5    5    0    0  0.37874511096E+01  0.21555893735E+02 -0.20474260463E+03  0.22039015453E+03  0.78570253417E+02 0.  0.
          5    1    5    5  501    0  0.13093695278E+03  0.51911240324E+02 -0.18708529069E+03  0.23422693797E+03  0.47000000000E+01 0. -1.
        -13    1    6    6    0    0  0.25558388601E+02  0.37701966125E+02 -0.17177191896E+03  0.17770836115E+03  0.00000000000E+00 0.  1.
         14    1    6    6    0    0 -0.21770937491E+02 -0.16146072391E+02 -0.32970685667E+02  0.42681793381E+02  0.00000000000E+00 0. -1.
         -5    1    3    3    0  503 -0.34238342293E+02 -0.37200334005E+02  0.27267442222E+02  0.57634471789E+02  0.47000000000E+01 0.  1.
         13    1    4    4    0    0 -0.62776982636E+02 -0.56906000586E+02 -0.13090268629E+03  0.15593189452E+03  0.00000000000E+00 0. -1.
        -14    1    4    4    0    0 -0.37709078963E+02  0.20639200533E+02 -0.24066608979E+02  0.49266143574E+02  0.00000000000E+00 0.  1.
</event>
<event>
12    1  0.1061634E+000  0.2266771E+03  0.7818608E-02  0.1129357E+00
         21   -1    0    0  503  502  0.00000000000E+00  0.00000000000E+00  0.23097947381E+03  0.23097947381E+03  0.00000000000E+00 0.  1.
         21   -1    0    0  501  503 -0.00000000000E+00 -0.00000000000E+00 -0.24191079167E+03  0.24191079167E+03  0.00000000000E+00 0.  1.
          6    2    1    2  501    0  0.13160691635E+03 -0.55087797544E+02 -0.75801307437E+02  0.23901533417E+03  0.17614609246E+03 0.  0.
         24    2    3    3    0    0  0.25902782811E+02  0.31461293865E+02 -0.25203085608E+02  0.93253956833E+02  0.80002111046E+02 0.  0.
         -6    2    1    2    0  502 -0.13160691635E+03  0.55087797544E+02  0.64869989576E+02  0.23387493130E+03  0.17359240213E+03 0.  0.
        -24    2    5    5    0    0 -0.14926211538E+03  0.13272144901E+02  0.77344515687E+02  0.18656786354E+03  0.79812684955E+02 0.  0.
          5    1    3    3  501    0  0.10570413354E+03 -0.86549091409E+02 -0.50598221828E+02  0.14576137733E+03  0.47000000000E+01 0. -1.
        -11    1    4    4    0    0  0.33824854527E+02  0.55180458980E+02 -0.16722535172E+02  0.66847939531E+02  0.00000000000E+00 0.  1.
         12    1    4    4    0    0 -0.79220717159E+01 -0.23719165115E+02 -0.84805504362E+01  0.26406017302E+02  0.00000000000E+00 0. -1.
         -5    1    5    5    0  502  0.17655199036E+02  0.41815652643E+02 -0.12474526111E+02  0.47307067766E+02  0.47000000000E+01 0.  1.
         13    1    6    6    0    0 -0.11328577495E+03  0.44540079749E+02  0.49831445309E+02  0.13153196742E+03  0.00000000000E+00 0. -1.
        -14    1    6    6    0    0 -0.35976340429E+02 -0.31267934848E+02  0.27513070378E+02  0.55035896122E+02  0.00000000000E+00 0.  1.
</event>
<event>
12    1  0.1061634E+000  0.2124224E+03  0.7818608E-02  0.1140316E+00
         21   -1    0    0  501  502  0.00000000000E+00  0.00000000000E+00  0.10170669568E+03  0.10170669568E+03  0.00000000000E+00 0.  1.
         21   -1    0    0  502  503 -0.00000000000E+00 -0.00000000000E+00 -0.43816532329E+03  0.43816532329E+03  0.00000000000E+00 0.  1.
         -6    2    1    2    0  503 -0.62894866851E+02 -0.10838105831E+03 -0.15151652399E+03  0.25822177339E+03  0.16738879632E+03 0.  0.
        -24    2    3    3    0    0 -0.90131945886E+02 -0.20083400751E+02 -0.74651439515E+02  0.13793600525E+03  0.70188271591E+02 0.  0.
          6    2    1    2  501    0  0.62894866851E+02  0.10838105831E+03 -0.18494210362E+03  0.28165024557E+03  0.17152568631E+03 0.  0.
         24    2    5    5    0    0  0.48226331798E+02  0.93099258314E+02 -0.21044499469E+03  0.24816611821E+03  0.79410801917E+02 0.  0.
          5    1    5    5  501    0  0.14668535054E+02  0.15281799997E+02  0.25502891077E+02  0.33484127360E+02  0.47000000000E+01 0. -1.
        -11    1    6    6    0    0 -0.13921990279E+01  0.41930381254E+01 -0.91455323563E+02  0.91561978981E+02  0.00000000000E+00 0.  1.
         12    1    6    6    0    0  0.49618530825E+02  0.88906220188E+02 -0.11898967113E+03  0.15660413923E+03  0.00000000000E+00 0. -1.
         -5    1    3    3    0  503  0.27237079035E+02 -0.88297657560E+02 -0.76865084480E+02  0.12028576814E+03  0.47000000000E+01 0.  1.
         11    1    4    4    0    0 -0.27204518993E+02 -0.27672081264E+02 -0.62244309170E+02  0.73349737281E+02  0.00000000000E+00 0. -1.
        -12    1    4    4    0    0 -0.62927426893E+02  0.75886805132E+01 -0.12407130345E+02  0.64586267973E+02  0.00000000000E+00 0.  1.
</event>
<event>
12    1  0.1061634E+000  0.2280750E+03  0.7818608E-02  0.1129666E+00
         21   -1    0    0  501  502  0.00000000000E+00  0.00000000000E+00  0.18928286999E+03  0.18928286999E+03  0.00000000000E+00 0. -1.
         21   -1    0    0  502  503 -0.00000000000E+00 -0.00000000000E+00 -0.26821381368E+03  0.26821381368E+03  0.00000000000E+00 0. -1.
         -6    2    1    2    0  503  0.13504410686E+03  0.22686998987E+01 -0.11251856727E+02  0.22835238240E+03  0.18378288405E+03 0.  0.
        -24    2    3    3    0    0  0.13902623727E+03  0.69569423730E+01 -0.65891660881E+02  0.17316692074E+03  0.79173087404E+02 0.  0.
          6    2    1    2  501    0 -0.13504410686E+03 -0.22686998987E+01 -0.67679086967E+02  0.22914430128E+03  0.17229217683E+03 0.  0.
         24    2    5    5    0    0 -0.13047825004E+03 -0.30005644318E+02  0.70308578486E+00  0.15506058725E+03  0.78220067514E+02 0.  0.
          5    1    5    5  501    0 -0.45658568179E+01  0.27736944419E+02 -0.68382172752E+02  0.74083714030E+02  0.47000000000E+01 0. -1.
        -13    1    6    6    0    0 -0.81434741696E+02 -0.56634389014E+02  0.25287338154E+01  0.99224319946E+02  0.00000000000E+00 0.  1.
         14    1    6    6    0    0 -0.49043508349E+02  0.26628744696E+02 -0.18256480306E+01  0.55836267300E+02  0.00000000000E+00 0. -1.
         -5    1    3    3    0  503 -0.39821304072E+01 -0.46882424742E+01  0.54639804153E+02  0.55185461654E+02  0.47000000000E+01 0.  1.
         13    1    4    4    0    0  0.25504136179E+02 -0.27654162009E+02 -0.32923898215E+02  0.49991966478E+02  0.00000000000E+00 0. -1.
        -14    1    4    4    0    0  0.11352210109E+03  0.34611104382E+02 -0.32967762665E+02  0.12317495426E+03  0.00000000000E+00 0.  1.
</event>
<event>
12    1  0.1061634E+000  0.2897605E+03  0.7818608E-02  0.1090580E+00
         21   -1    0    0  501  502  0.00000000000E+00  0.00000000000E+00  0.18463787395E+03  0.18463787395E+03  0.00000000000E+00 0. -1.
         21   -1    0    0  502  503 -0.00000000000E+00 -0.00000000000E+00 -0.54610888115E+03  0.54610888115E+03  0.00000000000E+00 0.  1.
         -6    2    1    2    0  503 -0.82519873013E+02  0.21878096079E+03 -0.30457000049E+02  0.29135677059E+03  0.17113299118E+03 0.  0.
        -24    2    3    3    0    0  0.98753062704E+01  0.56537078623E+02 -0.35374711183E+02  0.10452470605E+03  0.79875409554E+02 0.  0.
          6    2    1    2  501    0  0.82519873013E+02 -0.21878096079E+03 -0.33101400715E+03  0.43938998451E+03  0.16976055879E+03 0.  0.
         24    2    5    5    0    0 -0.50051893579E+01 -0.13984119420E+03 -0.24579087354E+03  0.29386611776E+03  0.79771737724E+02 0.  0.
          5    1    5    5  501    0  0.87525062371E+02 -0.78939766585E+02 -0.85223133609E+02  0.14552386675E+03  0.47000000000E+01 0. -1.
        -13    1    6    6    0    0 -0.43514797476E+01 -0.87583188216E+02 -0.21733510230E+03  0.23435933292E+03  0.00000000000E+00 0.  1.
         14    1    6    6    0    0 -0.65370961034E+00 -0.52258005985E+02 -0.28455771233E+02  0.59506784843E+02  0.00000000000E+00 0. -1.
         -5    1    3    3    0  503 -0.92395179283E+02  0.16224388216E+03  0.49177111339E+01  0.18683206453E+03  0.47000000000E+01 0.  1.
         11    1    4    4    0    0  0.84080593188E+01  0.37078562851E+02  0.21997315146E+02  0.43924903623E+02  0.00000000000E+00 0. -1.
        -12    1    4    4    0    0  0.14672469516E+01  0.19458515771E+02 -0.57372026329E+02  0.60599802431E+02  0.00000000000E+00 0.  1.
</event>
<event>
12    1  0.1061634E+000  0.1968795E+03  0.7818608E-02  0.1152512E+00
         21   -1    0    0  501  502  0.00000000000E+00  0.00000000000E+00  0.46459851175E+02  0.46459851175E+02  0.00000000000E+00 0. -1.
         21   -1    0    0  502  503 -0.00000000000E+00 -0.00000000000E+00 -0.93777862796E+03  0.93777862796E+03  0.00000000000E+00 0. -1.
         -6    2    1    2    0  503  0.66352639772E+02 -0.67638872121E+02 -0.61141283504E+03  0.64232949982E+03  0.17257995731E+03 0.  0.
        -24    2    3    3    0    0  0.21754968720E+02 -0.75000187889E+02 -0.57084570043E+03  0.58141214889E+03  0.77954899403E+02 0.  0.
          6    2    1    2  501    0 -0.66352639772E+02  0.67638872121E+02 -0.27990594175E+03  0.34190897931E+03  0.17197884778E+03 0.  0.
         24    2    5    5    0    0 -0.81914016280E+02  0.10545231461E+03 -0.22488217678E+03  0.27319422411E+03  0.78949312425E+02 0.  0.
          5    1    5    5  501    0  0.15561376508E+02 -0.37813442492E+02 -0.55023764967E+02  0.68714755206E+02  0.47000000000E+01 0. -1.
        -11    1    6    6    0    0 -0.46672932990E+02  0.43073912747E+01 -0.53846661610E+02  0.71388929534E+02  0.00000000000E+00 0.  1.
         12    1    6    6    0    0 -0.35241083290E+02  0.10114492334E+03 -0.17103551517E+03  0.20180529457E+03  0.00000000000E+00 0. -1.
         -5    1    3    3    0  503  0.44597671052E+02  0.73613157685E+01 -0.40567134612E+02  0.60917350925E+02  0.47000000000E+01 0.  1.
         13    1    4    4    0    0  0.95812543671E+01 -0.45389906715E+02 -0.10903893119E+03  0.11849697288E+03  0.00000000000E+00 0. -1.
        -14    1    4    4    0    0  0.12173714353E+02 -0.29610281174E+02 -0.46180676924E+03  0.46291517601E+03  0.00000000000E+00 0.  1.
</event>
<event>
12    1  0.1061634E+000  0.2048483E+03  0.7818608E-02  0.1146239E+00
         21   -1    0    0  501  502  0.00000000000E+00  0.00000000000E+00  0.56419529858E+03  0.56419529858E+03  0.00000000000E+00 0. -1.
         21   -1    0    0  502  503 -0.00000000000E+00 -0.00000000000E+00 -0.79630265308E+02  0.79630265308E+02  0.00000000000E+00 0. -1.
         -6    2    1    2    0  503  0.99086407046E+02 -0.37605905311E+02  0.15118854428E+03  0.25254214723E+03  0.17229985500E+03 0.  0.
        -24    2    3    3    0    0 -0.73664055223E+01  0.95754057119E+01  0.32017495947E+02  0.85862495883E+02  0.78748306824E+02 0.  0.
          6    2    1    2  501    0 -0.99086407046E+02  0.37605905311E+02  0.33337648899E+03  0.39128341665E+03  0.17530119383E+03 0.  0.
         24    2    5    5    0    0  0.72526772125E+00 -0.21093441156E+02  0.86985862699E+02  0.11899971457E+03  0.78415129185E+02 0.  0.
          5    1    5    5  501    0 -0.99811674767E+02  0.58699346467E+02  0.24639062629E+03  0.27228370208E+03  0.47000000000E+01 0. -1.
        -11    1    6    6    0    0 -0.20364677215E+02 -0.37786763040E+02  0.80657123047E+02  0.91368107332E+02  0.00000000000E+00 0.  1.
         12    1    6    6    0    0  0.21089944937E+02  0.16693321884E+02  0.63287396517E+01  0.27631607237E+02  0.00000000000E+00 0. -1.
         -5    1    3    3    0  503  0.10645281257E+03 -0.47181311023E+02  0.11917104833E+03  0.16667965135E+03  0.47000000000E+01 0.  1.
         13    1    4    4    0    0 -0.27089778522E+01 -0.13079701330E+02 -0.22766845480E+02  0.26395954255E+02  0.00000000000E+00 0. -1.
        -14    1    4    4    0    0 -0.46574276702E+01  0.22655107042E+02  0.54784341427E+02  0.59466541628E+02  0.00000000000E+00 0.  1.
</event>
<event>
12    1  0.1061634E+000  0.2951519E+03  0.7818608E-02  0.1087694E+00
         21   -1    0    0  501  502  0.00000000000E+00  0.00000000000E+00  0.35227591987E+03  0.35227591987E+03  0.00000000000E+00 0. -1.
         21   -1    0    0  502  503 -0.00000000000E+00 -0.00000000000E+00 -0.25260856195E+03  0.25260856195E+03  0.00000000000E+00 0. -1.
         -6    2    1    2    0  503  0.14508156601E+03 -0.19093872403E+03  0.93824594285E+02  0.30970584694E+03  0.17207091562E+03 0.  0.
        -24    2    3    3    0    0  0.61326472167E+02 -0.57666525191E+02  0.98686805393E+02  0.15215545555E+03  0.79535104071E+02 0.  0.
          6    2    1    2  501    0 -0.14508156601E+03  0.19093872403E+03  0.58427636337E+01  0.29517863488E+03  0.17201753246E+03 0.  0.
         24    2    5    5    0    0 -0.21791173257E+02  0.10664631126E+03 -0.35759571641E+02  0.14007036271E+03  0.80577097293E+02 0.  0.
          5    1    5    5  501    0 -0.12329039276E+03  0.84292412777E+02  0.41602335274E+02  0.15510827218E+03  0.47000000000E+01 0. -1.
        -13    1    6    6    0    0 -0.42423810711E+02  0.41649811325E+02  0.65614460563E+01  0.59812532742E+02  0.00000000000E+00 0.  1.
         14    1    6    6    0    0  0.20632637454E+02  0.64996499933E+02 -0.42321017697E+02  0.80257829965E+02  0.00000000000E+00 0. -1.
         -5    1    3    3    0  503  0.83755093845E+02 -0.13327219884E+03 -0.48622111084E+01  0.15755039139E+03  0.47000000000E+01 0.  1.
         11    1    4    4    0    0  0.22126986252E+01 -0.10406237288E+02 -0.13275709541E+02  0.17012650397E+02  0.00000000000E+00 0. -1.
        -12    1    4    4    0    0  0.59113773542E+02 -0.47260287903E+02  0.11196251493E+03  0.13514280516E+03  0.00000000000E+00 0.  1.
</event>
<event>
12    1  0.1061634E+000  0.2722528E+03  0.7818608E-02  0.1100101E+00
         21   -1    0    0  503  502  0.00000000000E+00  0.00000000000E+00  0.27275994763E+03  0.27275994763E+03  0.00000000000E+00 0. -1.
         21   -1    0    0  501  503 -0.00000000000E+00 -0.00000000000E+00 -0.30825653396E+03  0.30825653396E+03  0.00000000000E+00 0. -1.
          6    2    1    2  501    0  0.20970964705E+03 -0.16118511368E+02 -0.11874713694E+03  0.29702264464E+03  0.17286881275E+03 0.  0.
         24    2    3    3    0    0  0.20273926595E+03  0.30910289997E+02 -0.11648603408E+03  0.24919486028E+03  0.80438959901E+02 0.  0.
         -6    2    1    2    0  502 -0.20970964705E+03  0.16118511368E+02  0.83250550615E+02  0.28399383695E+03  0.17170877314E+03 0.  0.
        -24    2    5    5    0    0 -0.65941173774E+02  0.27475431427E+02  0.90273389145E+02  0.13953012593E+03  0.78843094327E+02 0.  0.
          5    1    3    3  501    0  0.69703811008E+01 -0.47028801365E+02 -0.22611028653E+01  0.47827784359E+02  0.47000000000E+01 0. -1.
        -11    1    4    4    0    0  0.42475784147E+02  0.35487145422E+02 -0.53373678171E+02  0.76891347046E+02  0.00000000000E+00 0.  1.
         12    1    4    4    0    0  0.16026348180E+03 -0.45768554256E+01 -0.63112355908E+02  0.17230351323E+03  0.00000000000E+00 0. -1.
         -5    1    5    5    0  502 -0.14376847327E+03 -0.11356920058E+02 -0.70228385304E+01  0.14446371102E+03  0.47000000000E+01 0.  1.
         13    1    6    6    0    0 -0.64833925565E+02 -0.88573723672E+01  0.76475347358E+02  0.10064973772E+03  0.00000000000E+00 0. -1.
        -14    1    6    6    0    0 -0.11072482093E+01  0.36332803794E+02  0.13798041787E+02  0.38880388209E+02  0.00000000000E+00 0.  1.
</event>
<event>
12    1  0.1061634E+000  0.2148632E+03  0.7818608E-02  0.1137787E+00
         21   -1    0    0  501  502  0.00000000000E+00  0.00000000000E+00  0.75083712202E+02  0.75083712202E+02  0.00000000000E+00 0.  1.
         21   -1    0    0  502  503 -0.00000000000E+00 -0.00000000000E+00 -0.75099897835E+03  0.75099897835E+03  0.00000000000E+00 0.  1.
         -6    2    1    2    0  503 -0.30399198680E+02  0.12486373640E+03 -0.16190325328E+03  0.26896999834E+03  0.17209628885E+03 0.  0.
        -24    2    3    3    0    0 -0.15427697746E+02  0.10427310219E+03 -0.29133441988E+02  0.13369977675E+03  0.76915402647E+02 0.  0.
          6    2    1    2  501    0  0.30399198680E+02 -0.12486373640E+03 -0.51401201287E+03  0.55711269221E+03  0.17219505947E+03 0.  0.
         24    2    5    5    0    0 -0.19556904987E+02 -0.12029205760E+03 -0.46308972981E+03  0.48547693680E+03  0.79894346886E+02 0.  0.
          5    1    5    5  501    0  0.49956103667E+02 -0.45716788014E+01 -0.50922283060E+02  0.71635755407E+02  0.47000000000E+01 0. -1.
        -11    1    6    6    0    0 -0.28242192953E+02 -0.77492208839E+01 -0.14566038105E+03  0.14857529571E+03  0.00000000000E+00 0.  1.
         12    1    6    6    0    0  0.86852879656E+01 -0.11254283671E+03 -0.31742934876E+03  0.33690164110E+03  0.00000000000E+00 0. -1.
         -5    1    3    3    0  503 -0.14971500933E+02  0.20590634210E+02 -0.13276981129E+03  0.13527022159E+03  0.47000000000E+01 0.  1.
         11    1    4    4    0    0 -0.36028291767E+02  0.51458943975E+02 -0.42004323829E+02  0.75567347068E+02  0.00000000000E+00 0. -1.
        -12    1    4    4    0    0  0.20600594021E+02  0.52814158212E+02  0.12870881841E+02  0.58132429684E+02  0.00000000000E+00 0.  1.
</event>
<event>
12    1  0.1061634E+000  0.3356722E+03  0.7818608E-02  0.1068721E+00
         21   -1    0    0  503  502  0.00000000000E+00  0.00000000000E+00  0.26678933278E+03  0.26678933278E+03  0.00000000000E+00 0.  1.
         21   -1    0    0  501  503 -0.00000000000E+00 -0.00000000000E+00 -0.45773111551E+03  0.45773111551E+03  0.00000000000E+00 0.  1.
          6    2    1    2  501    0 -0.23574603972E+03  0.16543795533E+03  0.64340847635E+01  0.33511954156E+03  0.17122440650E+03 0.  0.
         24    2    3    3    0    0 -0.31155515474E+02  0.38598179752E+02 -0.28911157082E+01  0.94174193725E+02  0.79999591180E+02 0.  0.
         -6    2    1    2    0  502  0.23574603972E+03 -0.16543795533E+03 -0.19737586749E+03  0.38940090673E+03  0.17242366656E+03 0.  0.
        -24    2    5    5    0    0  0.53882462974E+02 -0.26639018647E+02 -0.23700338501E+02  0.10212963295E+03  0.79093607520E+02 0.  0.
          5    1    3    3  501    0 -0.20459052425E+03  0.12683977558E+03  0.93252004717E+01  0.24094534784E+03  0.47000000000E+01 0. -1.
        -11    1    4    4    0    0 -0.49788623898E+00  0.52326705886E+02  0.17139239588E+02  0.55064376627E+02  0.00000000000E+00 0.  1.
         12    1    4    4    0    0 -0.30657629235E+02 -0.13728526134E+02 -0.20030355296E+02  0.39109817098E+02  0.00000000000E+00 0. -1.
         -5    1    5    5    0  502  0.18186357674E+03 -0.13879893669E+03 -0.17367552899E+03  0.28727127378E+03  0.47000000000E+01 0.  1.
         11    1    6    6    0    0  0.61730196009E+02 -0.43562140587E+02 -0.50037981427E+01  0.75718658121E+02  0.00000000000E+00 0. -1.
        -12    1    6    6    0    0 -0.78477330345E+01  0.16923121940E+02 -0.18696540358E+02  0.26410974828E+02  0.00000000000E+00 0.  1.
</event>
<event>
12    1  0.1061634E+000  0.2041531E+03  0.7818608E-02  0.1146536E+00
         21   -1    0    0  501  502  0.00000000000E+00  0.00000000000E+00  0.27380406953E+02  0.27380406953E+02  0.00000000000E+00 0. -1.
         21   -1    0    0  502  503 -0.00000000000E+00 -0.00000000000E+00 -0.15130318932E+04  0.15130318932E+04  0.00000000000E+00 0. -1.
         -6    2    1    2    0  503 -0.53243348816E+02 -0.93142327770E+02 -0.73781856835E+03  0.76521389153E+03  0.17223737276E+03 0.  0.
        -24    2    3    3    0    0 -0.52661463898E+02 -0.97521509193E+02 -0.74368240173E+03  0.75649664645E+03  0.83306583847E+02 0.  0.
          6    2    1    2  501    0  0.53243348816E+02  0.93142327770E+02 -0.74783291795E+03  0.77519840867E+03  0.17368981613E+03 0.  0.
         24    2    5    5    0    0  0.88978413469E+02  0.20248869374E+02 -0.39284304083E+03  0.41101390327E+03  0.79243922000E+02 0.  0.
          5    1    5    5  501    0 -0.35735064653E+02  0.72893458396E+02 -0.35498987711E+03  0.36418450540E+03  0.47000000000E+01 0. -1.
        -13    1    6    6    0    0 -0.36865315502E+01  0.27437465537E+02 -0.10125546144E+03  0.10497177478E+03  0.00000000000E+00 0.  1.
         14    1    6    6    0    0  0.92664945019E+02 -0.71885961634E+01 -0.29158757939E+03  0.30604212848E+03  0.00000000000E+00 0. -1.
         -5    1    3    3    0  503 -0.58188491823E+00  0.43791814233E+01  0.58638333765E+01  0.87172450846E+01  0.47000000000E+01 0.  1.
         11    1    4    4    0    0  0.16942842602E+01  0.14253354772E+02 -0.75044906376E+02  0.76405279232E+02  0.00000000000E+00 0. -1.
        -12    1    4    4    0    0 -0.54355748158E+02 -0.11177486397E+03 -0.66863749535E+03  0.68009136722E+03  0.00000000000E+00 0.  1.
</event>
<event>
12    1  0.1061634E+000  0.2430680E+03  0.7818608E-02  0.1118100E+00
         21   -1    0    0  503  502  0.00000000000E+00  0.00000000000E+00  0.37368646204E+03  0.37368646204E+03  0.00000000000E+00 0. -1.
         21   -1    0    0  501  503 -0.00000000000E+00 -0.00000000000E+00 -0.18187848977E+03  0.18187848977E+03  0.00000000000E+00 0. -1.
          6    2    1    2  501    0 -0.15999594503E+03  0.56811096622E+02 -0.69243026603E+01  0.24316665282E+03  0.17394215117E+03 0.  0.
         24    2    3    3    0    0 -0.82747536076E+02 -0.47120259533E+00  0.57022509465E+02  0.12758177807E+03  0.78601315207E+02 0.  0.
         -6    2    1    2    0  502  0.15999594503E+03 -0.56811096622E+02  0.19873227493E+03  0.31239829899E+03  0.17109055201E+03 0.  0.
        -24    2    5    5    0    0  0.67266194796E+02 -0.24628864507E+02  0.21204363251E+02  0.10948759925E+03  0.80041160911E+02 0.  0.
          5    1    3    3  501    0 -0.77248408958E+02  0.57282299217E+02 -0.63946812126E+02  0.11558487475E+03  0.47000000000E+01 0. -1.
        -11    1    4    4    0    0 -0.56699552364E+01 -0.20370474306E+01 -0.18623512404E+02  0.19573787801E+02  0.00000000000E+00 0.  1.
         12    1    4    4    0    0 -0.77077580839E+02  0.15658448353E+01  0.75646021869E+02  0.10800799027E+03  0.00000000000E+00 0. -1.
         -5    1    5    5    0  502  0.92729750237E+02 -0.32182232115E+02  0.17752791167E+03  0.20291069973E+03  0.47000000000E+01 0.  1.
         11    1    6    6    0    0 -0.60209422306E+00 -0.35918208190E+02  0.19029949875E+02  0.40652419230E+02  0.00000000000E+00 0. -1.
        -12    1    6    6    0    0  0.67868289019E+02  0.11289343683E+02  0.21744133761E+01  0.68835180022E+02  0.00000000000E+00 0.  1.
</event>
<event>
12    1  0.1061634E+000  0.2585140E+03  0.7818608E-02  0.1108229E+00
         21   -1    0    0  501  502  0.00000000000E+00  0.00000000000E+00  0.11140462441E+03  0.11140462441E+03  0.00000000000E+00 0.  1.
         21   -1    0    0  502  503 -0.00000000000E+00 -0.00000000000E+00 -0.60152562865E+03  0.60152562865E+03  0.00000000000E+00 0.  1.
         -6    2    1    2    0  503 -0.17304131018E+03  0.88635706778E+02 -0.27665254812E+03  0.37863718494E+03  0.17038163603E+03 0.  0.
        -24    2    3    3    0    0 -0.17234353299E+03  0.97582011046E+02 -0.17533422225E+03  0.27681372787E+03  0.81603971737E+02 0.  0.
          6    2    1    2  501    0  0.17304131018E+03 -0.88635706778E+02 -0.21346845612E+03  0.33429306811E+03  0.16847400418E+03 0.  0.
         24    2    5    5    0    0  0.10190367159E+03  0.83692852211E+01 -0.71883960368E+02  0.14844691794E+03  0.80092324655E+02 0.  0.
          5    1    5    5  501    0  0.71137638588E+02 -0.97004991999E+02 -0.14158449576E+03  0.18584615018E+03  0.47000000000E+01 0. -1.
        -13    1    6    6    0    0  0.15774871632E+02  0.33402041812E+02 -0.36784082095E+02  0.52130717123E+02  0.00000000000E+00 0.  1.
         14    1    6    6    0    0  0.86128799957E+02 -0.25032756591E+02 -0.35099878273E+02  0.96316200815E+02  0.00000000000E+00 0. -1.
         -5    1    3    3    0  503 -0.69777718911E+00 -0.89463042679E+01 -0.10131832587E+03  0.10182345707E+03  0.47000000000E+01 0.  1.
         13    1    4    4    0    0 -0.74329824178E+02  0.73050025379E+02 -0.49327440133E+02  0.11530145411E+03  0.00000000000E+00 0. -1.
        -14    1    4    4    0    0 -0.98013708810E+02  0.24531985667E+02 -0.12600678212E+03  0.16151227376E+03  0.00000000000E+00 0.  1.
</event>
<event>
12    1  0.1061634E+000  0.2206258E+03  0.7818608E-02  0.1133506E+00
         21   -1    0    0  503  502  0.00000000000E+00  0.00000000000E+00  0.99000167089E+02  0.99000167089E+02  0.00000000000E+00 0. -1.
         21   -1    0    0  501  503 -0.00000000000E+00 -0.00000000000E+00 -0.11145284651E+04  0.11145284651E+04  0.00000000000E+00 0. -1.
          6    2    1    2  501    0 -0.13358337462E+03  0.32848399364E+02 -0.54024330647E+02  0.22714396324E+03  0.17248830807E+03 0.  0.
         24    2    3    3    0    0 -0.16671336004E+03  0.25834226222E+02 -0.42530387509E+02  0.19107465097E+03  0.78993270106E+02 0.  0.
         -6    2    1    2    0  502  0.13358337462E+03 -0.32848399364E+02 -0.96150396736E+03  0.98638466894E+03  0.17187582891E+03 0.  0.
        -24    2    5    5    0    0  0.12781829246E+03 -0.40249612724E+02 -0.47994011252E+03  0.50470650832E+03  0.80178555271E+02 0.  0.
          5    1    3    3  501    0  0.33129985421E+02  0.70141731416E+01 -0.11493943137E+02  0.36069312271E+02  0.47000000000E+01 0. -1.
        -11    1    4    4    0    0 -0.65728541493E+02 -0.12780235370E+02  0.14979920559E+02  0.68614674836E+02  0.00000000000E+00 0.  1.
         12    1    4    4    0    0 -0.10098481855E+03  0.38614461592E+02 -0.57510308069E+02  0.12245997613E+03  0.00000000000E+00 0. -1.
         -5    1    5    5    0  502  0.57650821547E+01  0.74012133609E+01 -0.48156385484E+03  0.48167816062E+03  0.47000000000E+01 0.  1.
         11    1    6    6    0    0  0.42830728875E+02  0.23621127787E+02 -0.12664055058E+03  0.13575808656E+03  0.00000000000E+00 0. -1.
        -12    1    6    6    0    0  0.84987563587E+02 -0.63870740512E+02 -0.35329956193E+03  0.36894842176E+03  0.00000000000E+00 0.  1.
</event>
<event>
12    1  0.1061634E+000  0.2138123E+03  0.7818608E-02  0.1138680E+00
         21   -1    0    0  503  502  0.00000000000E+00  0.00000000000E+00  0.63470586552E+02  0.63470586552E+02  0.00000000000E+00 0. -1.
         21   -1    0    0  501  503 -0.00000000000E+00 -0.00000000000E+00 -0.91355946290E+03  0.91355946290E+03  0.00000000000E+00 0.  1.
          6    2    1    2  501    0 -0.99476380416E+02 -0.77429066924E+02 -0.65034433876E+03  0.68443203316E+03  0.17207160836E+03 0.  0.
         24    2    3    3    0    0 -0.27939356743E+02  0.20973989660E+02 -0.21606924873E+03  0.23341357332E+03  0.81089210545E+02 0.  0.
         -6    2    1    2    0  502  0.99476380416E+02  0.77429066924E+02 -0.19974453759E+03  0.29259801628E+03  0.17269889453E+03 0.  0.
        -24    2    5    5    0    0  0.96880130704E+02  0.35864781055E+02 -0.56404354182E+02  0.14325670066E+03  0.81663877381E+02 0.  0.
          5    1    3    3  501    0 -0.71537023673E+02 -0.98403056583E+02 -0.43427509003E+03  0.45101845984E+03  0.47000000000E+01 0. -1.
        -11    1    4    4    0    0  0.66819983252E+01  0.14062075633E+02 -0.18709512061E+03  0.18774177806E+03  0.00000000000E+00 0.  1.
         12    1    4    4    0    0 -0.34621355068E+02  0.69119140265E+01 -0.28974128121E+02  0.45671795264E+02  0.00000000000E+00 0. -1.
         -5    1    5    5    0  502  0.25962497120E+01  0.41564285869E+02 -0.14334018341E+03  0.14934131562E+03  0.47000000000E+01 0.  1.
         13    1    6    6    0    0  0.10525100334E+03  0.36553711546E+02 -0.66787308800E+02  0.12990185583E+03  0.00000000000E+00 0. -1.
        -14    1    6    6    0    0 -0.83708726358E+01 -0.68893049103E+00  0.10382954617E+02  0.13354844832E+02  0.00000000000E+00 0.  1.
</event>
<event>
12    1  0.1061634E+000  0.2143317E+03  0.7818608E-02  0.1138537E+00
         21   -1    0    0  503  502  0.00000000000E+00  0.00000000000E+00  0.19899213772E+03  0.19899213772E+03  0.00000000000E+00 0.  1.
         21   -1    0    0  501  503 -0.00000000000E+00 -0.00000000000E+00 -0.22975121132E+03  0.22975121132E+03  0.00000000000E+00 0.  1.
          6    2    1    2  501    0  0.11946851718E+03 -0.47327647256E+02 -0.21115414647E+01  0.21250559448E+03  0.16923810530E+03 0.  0.
         24    2    3    3    0    0  0.76527941477E+02 -0.90459762127E+02 -0.31537867939E+02  0.14473929707E+03  0.76911199522E+02 0.  0.
         -6    2    1    2    0  502 -0.11946851718E+03  0.47327647256E+02 -0.28647532134E+02  0.21623775455E+03  0.17153848724E+03 0.  0.
        -24    2    5    5    0    0 -0.15234145732E+03  0.36911796851E+02 -0.92483576856E+01  0.17639383278E+03  0.80366981747E+02 0.  0.
          5    1    3    3  501    0  0.42940575706E+02  0.43132114871E+02  0.29426326474E+02  0.67766297412E+02  0.47000000000E+01 0. -1.
        -11    1    4    4    0    0  0.85553189651E+02 -0.48554919969E+02 -0.20725956400E+02  0.10053105879E+03  0.00000000000E+00 0.  1.
         12    1    4    4    0    0 -0.90252481745E+01 -0.41904842158E+02 -0.10811911539E+02  0.44208238282E+02  0.00000000000E+00 0. -1.
         -5    1    5    5    0  502  0.32872940141E+02  0.10415850405E+02 -0.19399174449E+02  0.39843921776E+02  0.47000000000E+01 0.  1.
         11    1    6    6    0    0 -0.21316331004E+02  0.35599929496E+02  0.13008774608E+02  0.43485275259E+02  0.00000000000E+00 0. -1.
        -12    1    6    6    0    0 -0.13102512632E+03  0.13118673552E+01 -0.22257132294E+02  0.13290855752E+03  0.00000000000E+00 0.  1.
</event>
<event>
12    1  0.1061634E+000  0.2332024E+03  0.7818608E-02  0.1124410E+00
         21   -1    0    0  501  502  0.00000000000E+00  0.00000000000E+00  0.15196406682E+03  0.15196406682E+03  0.00000000000E+00 0.  1.
         21   -1    0    0  502  503 -0.00000000000E+00 -0.00000000000E+00 -0.35824018253E+03  0.35824018253E+03  0.00000000000E+00 0. -1.
         -6    2    1    2    0  503  0.67088060980E+02 -0.14150119601E+03 -0.11173540862E+03  0.25856703525E+03  0.17276780308E+03 0.  0.
        -24    2    3    3    0    0  0.22770601877E+02 -0.12249028966E+03 -0.13700237959E+03  0.20392308258E+03  0.85396722554E+02 0.  0.
          6    2    1    2  501    0 -0.67088060980E+02  0.14150119601E+03 -0.94540707101E+02  0.25163721410E+03  0.17280030620E+03 0.  0.
         24    2    5    5    0    0 -0.78057852064E+02  0.10698625358E+03 -0.41096919426E+01  0.15411041743E+03  0.78702251987E+02 0.  0.
          5    1    5    5  501    0  0.10969791084E+02  0.34514942435E+02 -0.90431015158E+02  0.97526796678E+02  0.47000000000E+01 0. -1.
        -13    1    6    6    0    0 -0.21657963587E+02 -0.82957013222E+01  0.94778119298E+01  0.25054240482E+02  0.00000000000E+00 0.  1.
         14    1    6    6    0    0 -0.56399888477E+02  0.11528195490E+03 -0.13587503872E+02  0.12905617694E+03  0.00000000000E+00 0. -1.
         -5    1    3    3    0  503  0.44317459102E+02 -0.19010906351E+02  0.25266970973E+02  0.54643952673E+02  0.47000000000E+01 0.  1.
         11    1    4    4    0    0  0.10855411007E+02 -0.12547505221E+03 -0.88599778840E+02  0.15398619901E+03  0.00000000000E+00 0. -1.
        -12    1    4    4    0    0  0.11915190870E+02  0.29847625482E+01 -0.48402600750E+02  0.49936883566E+02  0.00000000000E+00 0.  1.
</event>
<event>
12    1  0.1061634E+000  0.2334588E+03  0.7818608E-02  0.1124395E+00
         21   -1    0    0  503  502  0.00000000000E+00  0.00000000000E+00  0.64351356728E+02  0.64351356728E+02  0.00000000000E+00 0.  1.
         21   -1    0    0  501  503 -0.00000000000E+00 -0.00000000000E+00 -0.86536170140E+03  0.86536170140E+03  0.00000000000E+00 0.  1.
          6    2    1    2  501    0  0.61194689750E+02 -0.14638787686E+03 -0.32576942243E+03  0.40022563381E+03  0.16994305171E+03 0.  0.
         24    2    3    3    0    0  0.30498025422E+02 -0.10942980495E+03 -0.10925530050E+03  0.17839543011E+03  0.83565525373E+02 0.  0.
         -6    2    1    2    0  502 -0.61194689750E+02  0.14638787686E+03 -0.47524092225E+03  0.52948742432E+03  0.17125652626E+03 0.  0.
        -24    2    5    5    0    0 -0.21968604083E+02  0.62606316911E+02 -0.10454010953E+03  0.14738898394E+03  0.79954409543E+02 0.  0.
          5    1    3    3  501    0  0.30696664328E+02 -0.36958071911E+02 -0.21651412192E+03  0.22183020370E+03  0.47000000000E+01 0. -1.
        -11    1    4    4    0    0 -0.15141841640E+02 -0.53911263862E+02 -0.11669777110E+02  0.57200379695E+02  0.00000000000E+00 0.  1.
         12    1    4    4    0    0  0.45639867062E+02 -0.55518541092E+02 -0.97585523392E+02  0.12119505042E+03  0.00000000000E+00 0. -1.
         -5    1    5    5    0  502 -0.39226085667E+02  0.83781559954E+02 -0.37070081272E+03  0.38209844038E+03  0.47000000000E+01 0.  1.
         11    1    6    6    0    0  0.20037808618E+02  0.10149643292E+02  0.75659656596E+00  0.22474462653E+02  0.00000000000E+00 0. -1.
        -12    1    6    6    0    0 -0.42006412701E+02  0.52456673619E+02 -0.10529670609E+03  0.12491452129E+03  0.00000000000E+00 0.  1.
</event>
<event>
12    1  0.1061634E+000  0.1835507E+03  0.7818608E-02  0.1165062E+00
         21   -1    0    0  503  502  0.00000000000E+00  0.00000000000E+00  0.15175288622E+03  0.15175288622E+03  0.00000000000E+00 0. -1.
         21   -1    0    0  501  503 -0.00000000000E+00 -0.00000000000E+00 -0.21990259649E+03  0.21990259649E+03  0.00000000000E+00 0. -1.
          6    2    1    2  501    0 -0.10663156784E+02  0.62716652924E+02 -0.47500775961E+02  0.18694698966E+03  0.16925061820E+03 0.  0.
         24    2    3    3    0    0  0.36099283991E+02 -0.70436382040E+01  0.42155509801E+01  0.88205445426E+02  0.80060343423E+02 0.  0.
         -6    2    1    2    0  502  0.10663156784E+02 -0.62716652924E+02 -0.20648934310E+02  0.18470849305E+03  0.17217365492E+03 0.  0.
        -24    2    5    5    0    0  0.74063633663E+01 -0.10126374091E+03 -0.46659666586E+02  0.13785624775E+03  0.80734262343E+02 0.  0.
          5    1    3    3  501    0 -0.46762440775E+02  0.69760291128E+02 -0.51716326941E+02  0.98741544235E+02  0.47000000000E+01 0. -1.
        -11    1    4    4    0    0 -0.19556567730E+02 -0.78706251178E+01 -0.18537944075E+02  0.28072432236E+02  0.00000000000E+00 0.  1.
         12    1    4    4    0    0  0.55655851721E+02  0.82698691383E+00  0.22753495055E+02  0.60133013190E+02  0.00000000000E+00 0. -1.
         -5    1    5    5    0  502  0.32567934180E+01  0.38547087990E+02  0.26010732276E+02  0.46852245298E+02  0.47000000000E+01 0.  1.
         13    1    6    6    0    0  0.30216290116E+02 -0.26845608793E+02  0.99329070418E+01  0.41621791674E+02  0.00000000000E+00 0. -1.
        -14    1    6    6    0    0 -0.22809926750E+02 -0.74418132122E+02 -0.56592573628E+02  0.96234456078E+02  0.00000000000E+00 0.  1.
</event>
<event>
12    1  0.1061634E+000  0.1937547E+03  0.7818608E-02  0.1155287E+00
         21   -1    0    0  501  502  0.00000000000E+00  0.00000000000E+00  0.71330529937E+03  0.71330529937E+03  0.00000000000E+00 0.  1.
         21   -1    0    0  502  503 -0.00000000000E+00 -0.00000000000E+00 -0.52776100391E+02  0.52776100391E+02  0.00000000000E+00 0.  1.
         -6    2    1    2    0  503  0.88286377554E+02 -0.26465545358E+02  0.29821924343E+03  0.35521719339E+03  0.16955715195E+03 0.  0.
        -24    2    3    3    0    0  0.71432238642E+02 -0.73717053016E+01  0.75604021981E+02  0.13110056405E+03  0.79463721267E+02 0.  0.
          6    2    1    2  501    0 -0.88286377554E+02  0.26465545358E+02  0.36230995554E+03  0.41086420636E+03  0.17042881984E+03 0.  0.
         24    2    5    5    0    0 -0.77449707388E+02  0.39540206462E+02  0.37228819559E+03  0.39061487409E+03  0.80122370060E+02 0.  0.
          5    1    5    5  501    0 -0.10836670166E+02 -0.13074661103E+02 -0.99782400444E+01  0.20249332276E+02  0.47000000000E+01 0. -1.
        -11    1    6    6    0    0 -0.86053043640E+01  0.24271835650E+02  0.23807387805E+02  0.35070856606E+02  0.00000000000E+00 0.  1.
         12    1    6    6    0    0 -0.68844403024E+02  0.15268370812E+02  0.34848080778E+03  0.35554401748E+03  0.00000000000E+00 0. -1.
         -5    1    3    3    0  503  0.16854138911E+02 -0.19093840057E+02  0.22261522145E+03  0.22411662935E+03  0.47000000000E+01 0.  1.
         11    1    4    4    0    0  0.50736671318E+02  0.16228165597E+02  0.45989566047E+01  0.53466939102E+02  0.00000000000E+00 0. -1.
        -12    1    4    4    0    0  0.20695567324E+02 -0.23599870898E+02  0.71005065376E+02  0.77633624946E+02  0.00000000000E+00 0.  1.
</event>
<event>
12    1  0.1061634E+000  0.2537776E+03  0.7818608E-02  0.1111216E+00
         21   -1    0    0  501  502  0.00000000000E+00  0.00000000000E+00  0.10750218647E+03  0.10750218647E+03  0.00000000000E+00 0. -1.
         21   -1    0    0  502  503 -0.00000000000E+00 -0.00000000000E+00 -0.17488403580E+04  0.17488403580E+04  0.00000000000E+00 0. -1.
         -6    2    1    2    0  503 -0.54614249740E+02  0.17915959131E+03 -0.67698194961E+02  0.26265203387E+03  0.17123717430E+03 0.  0.
        -24    2    3    3    0    0 -0.20324939879E+01  0.71510385127E+02  0.26453392485E+02  0.11020596456E+03  0.79546882012E+02 0.  0.
          6    2    1    2  501    0  0.54614249740E+02 -0.17915959131E+03 -0.15736399766E+04  0.15936905106E+04  0.16859950262E+03 0.  0.
         24    2    5    5    0    0  0.72740874844E+02 -0.17198051218E+03 -0.10367167496E+04  0.10563928693E+04  0.79471654752E+02 0.  0.
          5    1    5    5  501    0 -0.18126625104E+02 -0.71790791275E+01 -0.53692322694E+03  0.53729764130E+03  0.47000000000E+01 0. -1.
        -13    1    6    6    0    0  0.49408109633E+02 -0.16424780590E+03 -0.97481512778E+03  0.98978938992E+03  0.00000000000E+00 0.  1.
         14    1    6    6    0    0  0.23332765211E+02 -0.77327062787E+01 -0.61901621834E+02  0.66603479372E+02  0.00000000000E+00 0. -1.
         -5    1    3    3    0  503 -0.52581755752E+02  0.10764920618E+03 -0.94151587446E+02  0.15244606931E+03  0.47000000000E+01 0.  1.
         13    1    4    4    0    0 -0.28344587590E+02  0.53863972289E+02  0.42942465881E+02  0.74490257970E+02  0.00000000000E+00 0. -1.
        -14    1    4    4    0    0  0.26312093602E+02  0.17646412838E+02 -0.16489073396E+02  0.35715706590E+02  0.00000000000E+00 0.  1.
</event>
<event>
12    1  0.1061634E+000  0.4106588E+03  0.7818608E-02  0.1040166E+00
         21   -1    0    0  501  502  0.00000000000E+00  0.00000000000E+00  0.37326413824E+03  0.37326413824E+03  0.00000000000E+00 0.  1.
         21   -1    0    0  502  503 -0.00000000000E+00 -0.00000000000E+00 -0.11535060368E+04  0.11535060368E+04  0.00000000000E+00 0.  1.
         -6    2    1    2    0  503  0.35094382456E+03  0.12559090654E+03  0.20540987748E+03  0.45899208838E+03  0.17188913761E+03 0.  0.
        -24    2    3    3    0    0  0.31450048224E+03  0.14088712398E+03  0.21983266424E+03  0.41665772592E+03  0.80731191425E+02 0.  0.
          6    2    1    2  501    0 -0.35094382456E+03 -0.12559090654E+03 -0.98565177609E+03  0.10677780867E+04  0.17235421349E+03 0.  0.
         24    2    5    5    0    0 -0.18360955688E+03 -0.54537730736E+02 -0.34956123884E+03  0.40620226148E+03  0.78232883603E+02 0.  0.
          5    1    5    5  501    0 -0.16733426768E+03 -0.71053175805E+02 -0.63609053725E+03  0.66157582522E+03  0.47000000000E+01 0. -1.
        -11    1    6    6    0    0 -0.47924943173E+02 -0.52848285188E+01 -0.16497983159E+03  0.17188098913E+03  0.00000000000E+00 0.  1.
         12    1    6    6    0    0 -0.13568461371E+03 -0.49252902217E+02 -0.18458140724E+03  0.23432127235E+03  0.00000000000E+00 0. -1.
         -5    1    3    3    0  503  0.36443342326E+02 -0.15296217434E+02 -0.14422786760E+02  0.42334362469E+02  0.47000000000E+01 0.  1.
         13    1    4    4    0    0  0.12801221623E+03  0.70316721575E+02  0.13860694287E+03  0.20135405000E+03  0.00000000000E+00 0. -1.
        -14    1    4    4    0    0  0.18648826600E+03  0.70570402401E+02  0.81225721369E+02  0.21530367592E+03  0.00000000000E+00 0.  1.
</event>
<event>
12    1  0.1061634E+000  0.3057659E+03  0.7818608E-02  0.1082541E+00
         21   -1    0    0  501  502  0.00000000000E+00  0.00000000000E+00  0.21936296462E+03  0.21936296462E+03  0.00000000000E+00 0.  1.
         21   -1    0    0  502  503 -0.00000000000E+00 -0.00000000000E+00 -0.84637055663E+03  0.84637055663E+03  0.00000000000E+00 0.  1.
         -6    2    1    2    0  503 -0.18424747161E+03 -0.17215193572E+03  0.63006141466E+02  0.31100726132E+03  0.17079907192E+03 0.  0.
        -24    2    3    3    0    0 -0.15025444658E+03 -0.17131405111E+03  0.99360709204E+02  0.26100753736E+03  0.79545466239E+02 0.  0.
          6    2    1    2  501    0  0.18424747161E+03  0.17215193572E+03 -0.69001373347E+03  0.75472625993E+03  0.17294321402E+03 0.  0.
         24    2    5    5    0    0  0.17648193805E+03  0.19223296157E+03 -0.67520988919E+03  0.72817828606E+03  0.78967308828E+02 0.  0.
          5    1    5    5  501    0  0.77655335554E+01 -0.20081025853E+02 -0.14803844286E+02  0.26547973865E+02  0.47000000000E+01 0. -1.
        -13    1    6    6    0    0  0.33203964553E+02  0.88113239090E+02 -0.27011265935E+03  0.28605470614E+03  0.00000000000E+00 0.  1.
         14    1    6    6    0    0  0.14327797350E+03  0.10411972248E+03 -0.40509722984E+03  0.44212357992E+03  0.00000000000E+00 0. -1.
         -5    1    3    3    0  503 -0.33993025027E+02 -0.83788460747E+00 -0.36354567738E+02  0.49999723964E+02  0.47000000000E+01 0.  1.
         11    1    4    4    0    0 -0.14898606346E+03 -0.13027924171E+03  0.67730783128E+02  0.20918170788E+03  0.00000000000E+00 0. -1.
        -12    1    4    4    0    0 -0.12683831209E+01 -0.41034809394E+02  0.31629926076E+02  0.51825829480E+02  0.00000000000E+00 0.  1.
</event>
<event>
12    1  0.1061634E+000  0.1840005E+03  0.7818608E-02  0.1164278E+00
         21   -1    0    0  501  502  0.00000000000E+00  0.00000000000E+00  0.12728463884E+03  0.12728463884E+03  0.00000000000E+00 0. -1.
         21   -1    0    0  502  503 -0.00000000000E+00 -0.00000000000E+00 -0.26977974909E+03  0.26977974909E+03  0.00000000000E+00 0. -1.
         -6    2    1    2    0  503  0.56629769124E+02  0.27660631327E+02 -0.99556367952E+02  0.20812013988E+03  0.17155314322E+03 0.  0.
        -24    2    3    3    0    0  0.23171106726E+02  0.24390290266E+01 -0.13102617509E+03  0.15550787826E+03  0.80448695407E+02 0.  0.
          6    2    1    2  501    0 -0.56629769124E+02 -0.27660631327E+02 -0.42938742301E+02  0.18894424805E+03  0.17287033292E+03 0.  0.
         24    2    5    5    0    0 -0.31318343920E+02  0.28075529586E+01 -0.92057910822E+02  0.12566896681E+03  0.79556956039E+02 0.  0.
          5    1    5    5  501    0 -0.25311425204E+02 -0.30468184285E+02  0.49119168521E+02  0.63275281237E+02  0.47000000000E+01 0. -1.
        -13    1    6    6    0    0 -0.39814968340E+02 -0.18632508794E+02 -0.16972892449E+02  0.47121981770E+02  0.00000000000E+00 0.  1.
         14    1    6    6    0    0  0.84966244205E+01  0.21440061752E+02 -0.75085018372E+02  0.78546985037E+02  0.00000000000E+00 0. -1.
         -5    1    3    3    0  503  0.33458662398E+02  0.25221602300E+02  0.31469807134E+02  0.52612261623E+02  0.47000000000E+01 0.  1.
         11    1    4    4    0    0 -0.27568783144E+01 -0.35818434229E+02 -0.72696608301E+02  0.81088577908E+02  0.00000000000E+00 0. -1.
        -12    1    4    4    0    0  0.25927985040E+02  0.38257463256E+02 -0.58329566786E+02  0.74419300349E+02  0.00000000000E+00 0.  1.
</event>
<event>
12    1  0.1061634E+000  0.2484643E+03  0.7818608E-02  0.1114652E+00
         21   -1    0    0  503  502  0.00000000000E+00  0.00000000000E+00  0.93041062123E+02  0.93041062123E+02  0.00000000000E+00 0.  1.
         21   -1    0    0  501  503 -0.00000000000E+00 -0.00000000000E+00 -0.84483114624E+03  0.84483114624E+03  0.00000000000E+00 0.  1.
          6    2    1    2  501    0  0.14551594247E+03  0.10495495946E+03 -0.59544422287E+03  0.64431043952E+03  0.16849832905E+03 0.  0.
         24    2    3    3    0    0  0.27011063206E+02  0.88706091816E+02 -0.24071625145E+03  0.26992900859E+03  0.79492060666E+02 0.  0.
         -6    2    1    2    0  502 -0.14551594247E+03 -0.10495495946E+03 -0.15634586125E+03  0.29356176885E+03  0.17188382929E+03 0.  0.
        -24    2    5    5    0    0 -0.17105976556E+03 -0.10856185348E+03 -0.14501929479E+03  0.26499819606E+03  0.90257014294E+02 0.  0.
          5    1    3    3  501    0  0.11850487926E+03  0.16248867641E+02 -0.35472797142E+03  0.37438143092E+03  0.47000000000E+01 0. -1.
        -11    1    4    4    0    0 -0.11069971247E+02  0.20430994851E+02 -0.82317173734E+01  0.24652200407E+02  0.00000000000E+00 0.  1.
         12    1    4    4    0    0  0.38081034454E+02  0.68275096966E+02 -0.23248453407E+03  0.24527680819E+03  0.00000000000E+00 0. -1.
         -5    1    5    5    0  502  0.25543823090E+02  0.36068940236E+01 -0.11326566456E+02  0.28563572785E+02  0.47000000000E+01 0.  1.
         11    1    6    6    0    0 -0.12414500545E+03 -0.72479975183E+02 -0.14722990142E+03  0.20577165269E+03  0.00000000000E+00 0. -1.
        -12    1    6    6    0    0 -0.46914760111E+02 -0.36081878298E+02  0.22106066255E+01  0.59226543369E+02  0.00000000000E+00 0.  1.
</event>
<event>
12    1  0.1061634E+000  0.4582475E+03  0.7818608E-02  0.1025295E+00
         21   -1    0    0  503  502  0.00000000000E+00  0.00000000000E+00  0.41030295299E+03  0.41030295299E+03  0.00000000000E+00 0. -1.
         21   -1    0    0  501  503 -0.00000000000E+00 -0.00000000000E+00 -0.94777517004E+03  0.94777517004E+03  0.00000000000E+00 0. -1.
          6    2    1    2  501    0 -0.20729255588E+03 -0.37018983342E+03  0.19185723639E+03  0.49673484310E+03  0.17299014047E+03 0.  0.
         24    2    3    3    0    0 -0.20790771716E+03 -0.37548195787E+03  0.16215301313E+03  0.46619280839E+03  0.82642697093E+02 0.  0.
         -6    2    1    2    0  502  0.20729255588E+03  0.37018983342E+03 -0.72932945345E+03  0.86134327993E+03  0.17314756053E+03 0.  0.
        -24    2    5    5    0    0  0.83526645620E+02  0.83777318577E+02 -0.18123247403E+03  0.23064325769E+03  0.79723039574E+02 0.  0.
          5    1    3    3  501    0  0.61516128259E+00  0.52921244509E+01  0.29704223263E+02  0.30542034711E+02  0.47000000000E+01 0. -1.
        -13    1    4    4    0    0 -0.15576388852E+03 -0.33227634688E+03  0.15403218652E+03  0.39798979151E+03  0.00000000000E+00 0.  1.
         14    1    4    4    0    0 -0.52143828640E+02 -0.43205610998E+02  0.81208266116E+01  0.68203016882E+02  0.00000000000E+00 0. -1.
         -5    1    5    5    0  502  0.12376591026E+03  0.28641251485E+03 -0.54809697942E+03  0.63070002224E+03  0.47000000000E+01 0.  1.
         13    1    6    6    0    0  0.57577530494E+02  0.20162723806E+02 -0.38234456981E+02  0.71997091258E+02  0.00000000000E+00 0. -1.
        -14    1    6    6    0    0  0.25949115126E+02  0.63614594771E+02 -0.14299801705E+03  0.15864616643E+03  0.00000000000E+00 0.  1.
</event>
<event>
12    1  0.1061634E+000  0.2632284E+03  0.7818608E-02  0.1105568E+00
         21   -1    0    0  503  502  0.00000000000E+00  0.00000000000E+00  0.11698310367E+03  0.11698310367E+03  0.00000000000E+00 0. -1.
         21   -1    0    0  501  503 -0.00000000000E+00 -0.00000000000E+00 -0.84911472332E+03  0.84911472332E+03  0.00000000000E+00 0. -1.
          6    2    1    2  501    0  0.18212732052E+03 -0.78344801031E+02 -0.98832786740E+02  0.28117093535E+03  0.17314995357E+03 0.  0.
         24    2    3    3    0    0  0.78708049550E+02  0.24956850578E+02 -0.61089993862E+02  0.13012993016E+03  0.79899999494E+02 0.  0.
         -6    2    1    2    0  502 -0.18212732052E+03  0.78344801031E+02 -0.63329883291E+03  0.68492689164E+03  0.16955579141E+03 0.  0.
        -24    2    5    5    0    0 -0.16541287001E+03  0.33080710082E+01 -0.43187386739E+03  0.46927905269E+03  0.79595421126E+02 0.  0.
          5    1    3    3  501    0  0.10341927097E+03 -0.10330165161E+03 -0.37742792879E+02  0.15104100518E+03  0.47000000000E+01 0. -1.
        -13    1    4    4    0    0  0.35522913545E+01 -0.21151498675E+02 -0.29493085552E+02  0.36467064118E+02  0.00000000000E+00 0.  1.
         14    1    4    4    0    0  0.75155758195E+02  0.46108349253E+02 -0.31596908310E+02  0.93662866043E+02  0.00000000000E+00 0. -1.
         -5    1    5    5    0  502 -0.16714450510E+02  0.75036730023E+02 -0.20142496552E+03  0.21564783895E+03  0.47000000000E+01 0.  1.
         11    1    6    6    0    0 -0.15313378439E+03  0.22471389762E+02 -0.40763795079E+03  0.43603167110E+03  0.00000000000E+00 0. -1.
        -12    1    6    6    0    0 -0.12279085613E+02 -0.19163318754E+02 -0.24235916602E+02  0.33247381592E+02  0.00000000000E+00 0.  1.
</event>
<event>
12    1  0.1061634E+000  0.2035726E+03  0.7818608E-02  0.1146791E+00
         21   -1    0    0  503  502  0.00000000000E+00  0.00000000000E+00  0.85466033637E+02  0.85466033637E+02  0.00000000000E+00 0.  1.
         21   -1    0    0  501  503 -0.00000000000E+00 -0.00000000000E+00 -0.51264868562E+03  0.51264868562E+03  0.00000000000E+00 0.  1.
          6    2    1    2  501    0 -0.47892322425E+02 -0.95177484212E+02 -0.28371392807E+03  0.34919247341E+03  0.17346285612E+03 0.  0.
         24    2    3    3    0    0 -0.41219671522E+00 -0.21739054651E+02 -0.44661061088E+02  0.94602747600E+02  0.80512813096E+02 0.  0.
         -6    2    1    2    0  502  0.47892322425E+02  0.95177484212E+02 -0.14346872391E+03  0.24892224585E+03  0.17328179850E+03 0.  0.
        -24    2    5    5    0    0  0.18228777664E+02  0.10989608809E+03 -0.16350607683E+03  0.20993316148E+03  0.70201542835E+02 0.  0.
          5    1    3    3  501    0 -0.47480125710E+02 -0.73438429561E+02 -0.23905286698E+03  0.25458972581E+03  0.47000000000E+01 0. -1.
        -11    1    4    4    0    0  0.15526730290E+02  0.27382677978E+02 -0.20678083589E+02  0.37662627998E+02  0.00000000000E+00 0.  1.
         12    1    4    4    0    0 -0.15938927005E+02 -0.49121732629E+02 -0.23982977499E+02  0.56940119602E+02  0.00000000000E+00 0. -1.
         -5    1    5    5    0  502  0.29663544761E+02 -0.14718603882E+02  0.20037352915E+02  0.38989084369E+02  0.47000000000E+01 0.  1.
         11    1    6    6    0    0 -0.20548166217E+02  0.20049420134E+02 -0.15850119259E+02  0.32793790009E+02  0.00000000000E+00 0. -1.
        -12    1    6    6    0    0  0.38776943881E+02  0.89846667960E+02 -0.14765595757E+03  0.17713937147E+03  0.00000000000E+00 0.  1.
</event>
<event>
12    1  0.1061634E+000  0.1823977E+03  0.7818608E-02  0.1165835E+00
         21   -1    0    0  501  502  0.00000000000E+00  0.00000000000E+00  0.41453710312E+03  0.41453710312E+03  0.00000000000E+00 0.  1.
         21   -1    0    0  502  503 -0.00000000000E+00 -0.00000000000E+00 -0.22793904814E+03  0.22793904814E+03  0.00000000000E+00 0.  1.
         -6    2    1    2    0  503  0.44889819262E+02  0.45021612002E+02  0.35253120471E+03  0.39692210577E+03  0.17095866850E+03 0.  0.
        -24    2    3    3    0    0  0.55339442346E+02  0.85148253469E+02  0.31280527570E+03  0.33930629706E+03  0.83480199859E+02 0.  0.
          6    2    1    2  501    0 -0.44889819262E+02 -0.45021612002E+02 -0.16593314973E+03  0.24555404550E+03  0.16947252775E+03 0.  0.
         24    2    5    5    0    0 -0.86349483835E+02 -0.23636221104E+02 -0.15715222246E+03  0.19785254223E+03  0.80211614717E+02 0.  0.
          5    1    5    5  501    0  0.41459664573E+02 -0.21385390898E+02 -0.87809272671E+01  0.47701503268E+02  0.47000000000E+01 0. -1.
        -11    1    6    6    0    0 -0.71674365575E+02  0.10656371425E+02 -0.61002602915E+02  0.94721119582E+02  0.00000000000E+00 0.  1.
         12    1    6    6    0    0 -0.14675118260E+02 -0.34292592529E+02 -0.96149619547E+02  0.10313142265E+03  0.00000000000E+00 0. -1.
         -5    1    3    3    0  503 -0.10449623084E+02 -0.40126641467E+02  0.39725929003E+02  0.57615808709E+02  0.47000000000E+01 0.  1.
         13    1    4    4    0    0  0.16804291669E+02  0.77449555824E+02  0.12941690778E+03  0.15175491404E+03  0.00000000000E+00 0. -1.
        -14    1    4    4    0    0  0.38535150677E+02  0.76986976452E+01  0.18338836793E+03  0.18755138302E+03  0.00000000000E+00 0.  1.
</event>
<event>
12    1  0.1061634E+000  0.3166776E+03  0.7818608E-02  0.1077392E+00
         21   -1    0    0  503  502  0.00000000000E+00  0.00000000000E+00  0.45624156041E+03  0.45624156041E+03  0.00000000000E+00 0.  1.
         21   -1    0    0  501  503 -0.00000000000E+00 -0.00000000000E+00 -0.23420784755E+03  0.23420784755E+03  0.00000000000E+00 0.  1.
          6    2    1    2  501    0 -0.26065555185E+03  0.43558648785E+02  0.19984867020E+03  0.37299561973E+03  0.17131132118E+03 0.  0.
         24    2    3    3    0    0 -0.69551704751E+02  0.57193382453E+02  0.85635859372E+02  0.14989644336E+03  0.83826730179E+02 0.  0.
         -6    2    1    2    0  502  0.26065555185E+03 -0.43558648785E+02  0.22185042659E+02  0.31745378823E+03  0.17448799084E+03 0.  0.
        -24    2    5    5    0    0  0.20750927112E+03 -0.95275509531E+02  0.17388762703E+02  0.24299403305E+03  0.81278599331E+02 0.  0.
          5    1    3    3  501    0 -0.19110384710E+03 -0.13634733668E+02  0.11421281083E+03  0.22309917637E+03  0.47000000000E+01 0. -1.
        -13    1    4    4    0    0 -0.64129048357E+02  0.19288068913E+02  0.13626334256E+02  0.68339164692E+02  0.00000000000E+00 0.  1.
         14    1    4    4    0    0 -0.54226563945E+01  0.37905313540E+02  0.72009525116E+02  0.81557278672E+02  0.00000000000E+00 0. -1.
         -5    1    5    5    0  502  0.53146280728E+02  0.51716860745E+02  0.47962799559E+01  0.74459755183E+02  0.47000000000E+01 0.  1.
         11    1    6    6    0    0  0.49507509219E+02 -0.14688232069E+02 -0.29582225832E+02  0.59513407863E+02  0.00000000000E+00 0. -1.
        -12    1    6    6    0    0  0.15800176190E+03 -0.80587277461E+02  0.46970988534E+02  0.18348062518E+03  0.00000000000E+00 0.  1.
</event>
<event>
12    1  0.1061634E+000  0.1906190E+03  0.7818608E-02  0.1158287E+00
         21   -1    0    0  501  502  0.00000000000E+00  0.00000000000E+00  0.36259086391E+03  0.36259086391E+03  0.00000000000E+00 0.  1.
         21   -1    0    0  502  503 -0.00000000000E+00 -0.00000000000E+00 -0.10205723287E+03  0.10205723287E+03  0.00000000000E+00 0.  1.
         -6    2    1    2    0  503  0.76574433564E+02 -0.29658463810E+02  0.16886838283E+03  0.25466080282E+03  0.17202420012E+03 0.  0.
        -24    2    3    3    0    0  0.26693529844E+02 -0.63287111491E+02  0.16275206506E+03  0.19401024764E+03  0.80211835116E+02 0.  0.
          6    2    1    2  501    0 -0.76574433564E+02  0.29658463810E+02  0.91665248220E+02  0.20998729396E+03  0.17014369674E+03 0.  0.
         24    2    5    5    0    0 -0.60972101715E+02 -0.41621132099E+02  0.84313030304E+02  0.13650016134E+03  0.77933889564E+02 0.  0.
          5    1    5    5  501    0 -0.15602331849E+02  0.71279595909E+02  0.73522179159E+01  0.73487132617E+02  0.47000000000E+01 0. -1.
        -11    1    6    6    0    0 -0.18923604182E+02 -0.40892376163E+02  0.82979782064E+02  0.94424220700E+02  0.00000000000E+00 0.  1.
         12    1    6    6    0    0 -0.42048497533E+02 -0.72875593568E+00  0.13332482403E+01  0.42075940642E+02  0.00000000000E+00 0. -1.
         -5    1    3    3    0  503  0.49880903720E+02  0.33628647681E+02  0.61163177646E+01  0.60650555180E+02  0.47000000000E+01 0.  1.
         13    1    4    4    0    0  0.60536437836E+01  0.19413899979E+02  0.29605288782E+02  0.35916837824E+02  0.00000000000E+00 0. -1.
        -14    1    4    4    0    0  0.20639886061E+02 -0.82701011469E+02  0.13314677628E+03  0.15809340982E+03  0.00000000000E+00 0.  1.
</event>
<event>
12    1  0.1061634E+000  0.1867185E+03  0.7818608E-02  0.1161543E+00
         21   -1    0    0  503  502  0.00000000000E+00  0.00000000000E+00  0.40443533925E+03  0.40443533925E+03  0.00000000000E+00 0.  1.
         21   -1    0    0  501  503 -0.00000000000E+00 -0.00000000000E+00 -0.86486285310E+02  0.86486285310E+02  0.00000000000E+00 0.  1.
          6    2    1    2  501    0  0.46302779350E+02  0.54879198802E+02  0.14092790476E+03  0.23362749650E+03  0.17194609313E+03 0.  0.
         24    2    3    3    0    0  0.57560969766E+02 -0.28160838957E+02  0.87084070458E+02  0.13390967856E+03  0.79005497231E+02 0.  0.
         -6    2    1    2    0  502 -0.46302779350E+02 -0.54879198802E+02  0.17702114917E+03  0.25729412806E+03  0.17236039928E+03 0.  0.
        -24    2    5    5    0    0 -0.31906199335E+02 -0.47588660755E+02  0.20327856010E+03  0.22611793378E+03  0.80774134438E+02 0.  0.
          5    1    3    3  501    0 -0.11258190415E+02  0.83040037759E+02  0.53843834305E+02  0.99717817942E+02  0.47000000000E+01 0. -1.
        -11    1    4    4    0    0  0.95050856410E+01 -0.33529161447E+02  0.63521664742E+00  0.34856202038E+02  0.00000000000E+00 0.  1.
         12    1    4    4    0    0  0.48055884125E+02  0.53683224896E+01  0.86448853810E+02  0.99053476519E+02  0.00000000000E+00 0. -1.
         -5    1    5    5    0  502 -0.14396580016E+02 -0.72905380469E+01 -0.26257410923E+02  0.31176194276E+02  0.47000000000E+01 0.  1.
         13    1    6    6    0    0 -0.11697735970E+02  0.22121562009E+02  0.36760552333E+02  0.44469525974E+02  0.00000000000E+00 0. -1.
        -14    1    6    6    0    0 -0.20208463365E+02 -0.69710222764E+02  0.16651800776E+03  0.18164840781E+03  0.00000000000E+00 0.  1.
</event>
<event>
12    1  0.1061634E+000  0.2118286E+03  0.7818608E-02  0.1140647E+00
         21   -1    0    0  501  502  0.00000000000E+00  0.00000000000E+00  0.12268269959E+03  0.12268269959E+03  0.00000000000E+00 0.  1.
         21   -1    0    0  502  503 -0.00000000000E+00 -0.00000000000E+00 -0.55402547446E+03  0.55402547446E+03  0.00000000000E+00 0.  1.
         -6    2    1    2    0  503  0.10687377652E+03 -0.66557094721E+00 -0.41616580022E+03  0.46697464249E+03  0.18289039440E+03 0.  0.
        -24    2    3    3    0    0  0.75559096767E+02 -0.73287351263E+02 -0.25700832373E+03  0.28918902871E+03  0.80602747482E+02 0.  0.
          6    2    1    2  501    0 -0.10687377652E+03  0.66557094721E+00 -0.15176974647E+02  0.20973353156E+03  0.17982037317E+03 0.  0.
         24    2    5    5    0    0 -0.67307253468E+02 -0.55829991373E+02 -0.53692059001E+02  0.13059592968E+03  0.80778743137E+02 0.  0.
          5    1    5    5  501    0 -0.39566523050E+02  0.56495562320E+02  0.38515084354E+02  0.79137601877E+02  0.47000000000E+01 0. -1.
        -11    1    6    6    0    0 -0.82485382754E+02 -0.31675329284E+02 -0.50803872048E+02  0.10192251110E+03  0.00000000000E+00 0.  1.
         12    1    6    6    0    0  0.15178129286E+02 -0.24154662089E+02 -0.28881869532E+01  0.28673418581E+02  0.00000000000E+00 0. -1.
         -5    1    3    3    0  503  0.31314679751E+02  0.72621780316E+02 -0.15915747649E+03  0.17778561378E+03  0.47000000000E+01 0.  1.
         13    1    4    4    0    0  0.13563862460E+02  0.11203871466E+02 -0.92350141266E+02  0.94010923262E+02  0.00000000000E+00 0. -1.
        -14    1    4    4    0    0  0.61995234307E+02 -0.84491222729E+02 -0.16465818247E+03  0.19517810545E+03  0.00000000000E+00 0.  1.
</event>
<event>
12    1  0.1061634E+000  0.1808834E+03  0.7818608E-02  0.1167465E+00
         21   -1    0    0  503  502  0.00000000000E+00  0.00000000000E+00  0.52098995476E+03  0.52098995476E+03  0.00000000000E+00 0. -1.
         21   -1    0    0  501  503 -0.00000000000E+00 -0.00000000000E+00 -0.71593880079E+02  0.71593880079E+02  0.00000000000E+00 0. -1.
          6    2    1    2  501    0  0.36932942273E+02  0.40524684102E+02  0.33163710190E+03  0.37674599404E+03  0.17014136599E+03 0.  0.
         24    2    3    3    0    0  0.21440055587E+01  0.67477616516E+02  0.11577762221E+03  0.15639596419E+03  0.80606540174E+02 0.  0.
         -6    2    1    2    0  502 -0.36932942273E+02 -0.40524684102E+02  0.11775897279E+03  0.21583784081E+03  0.17237315802E+03 0.  0.
        -24    2    5    5    0    0 -0.57434061064E+02 -0.67270891814E+02  0.30637737550E+02  0.12230787166E+03  0.78717852188E+02 0.  0.
          5    1    3    3  501    0  0.34788936714E+02 -0.26952932414E+02  0.21585947969E+03  0.22035002985E+03  0.47000000000E+01 0. -1.
        -11    1    4    4    0    0 -0.33852692187E+02  0.88523288195E+01  0.51382192576E+02  0.62165088335E+02  0.00000000000E+00 0.  1.
         12    1    4    4    0    0  0.35996697745E+02  0.58625287696E+02  0.64395429633E+02  0.94230875851E+02  0.00000000000E+00 0. -1.
         -5    1    5    5    0  502  0.20501118791E+02  0.26746207712E+02  0.87121235238E+02  0.93529969144E+02  0.47000000000E+01 0.  1.
         13    1    6    6    0    0 -0.70300993620E+02 -0.53768817286E+02  0.44505703164E+02  0.99066003404E+02  0.00000000000E+00 0. -1.
        -14    1    6    6    0    0  0.12866932556E+02 -0.13502074528E+02 -0.13867965614E+02  0.23241868260E+02  0.00000000000E+00 0.  1.
</event>
<event>
12    1  0.1061634E+000  0.2388159E+03  0.7818608E-02  0.1121539E+00
         21   -1    0    0  501  502  0.00000000000E+00  0.00000000000E+00  0.55380812204E+02  0.55380812204E+02  0.00000000000E+00 0.  1.
         21   -1    0    0  502  503 -0.00000000000E+00 -0.00000000000E+00 -0.13943825580E+04  0.13943825580E+04  0.00000000000E+00 0.  1.
         -6    2    1    2    0  503  0.16379241199E+03 -0.22046787561E+02 -0.29256919182E+03  0.37766354467E+03  0.17239201229E+03 0.  0.
        -24    2    3    3    0    0  0.14362187256E+03 -0.73149507090E+02 -0.19822362013E+03  0.26838630321E+03  0.82222329728E+02 0.  0.
          6    2    1    2  501    0 -0.16379241199E+03  0.22046787561E+02 -0.10464325539E+04  0.10720998255E+04  0.16450814820E+03 0.  0.
         24    2    5    5    0    0 -0.51873140877E+02  0.29512490862E+02 -0.30885946291E+03  0.32603158828E+03  0.85677411654E+02 0.  0.
          5    1    5    5  501    0 -0.11191927111E+03 -0.74657033015E+01 -0.73757309103E+03  0.74606823722E+03  0.47000000000E+01 0. -1.
        -13    1    6    6    0    0  0.96852877917E+01  0.55105106213E+01 -0.18767457339E+03  0.18800509574E+03  0.00000000000E+00 0.  1.
         14    1    6    6    0    0 -0.61558428669E+02  0.24001980241E+02 -0.12118488952E+03  0.13802649254E+03  0.00000000000E+00 0. -1.
         -5    1    3    3    0  503  0.20170539433E+02  0.51102719529E+02 -0.94345571685E+02  0.10927724146E+03  0.47000000000E+01 0.  1.
         13    1    4    4    0    0  0.13403045300E+03 -0.31058136180E+02 -0.14558605834E+03  0.20030993620E+03  0.00000000000E+00 0. -1.
        -14    1    4    4    0    0  0.95914195547E+01 -0.42091370910E+02 -0.52637561789E+02  0.68076367010E+02  0.00000000000E+00 0.  1.
</event>
<event>
12    1  0.1061634E+000  0.1127275E+04  0.7818608E-02  0.9179192E-01
         21   -1    0    0  501  502  0.00000000000E+00  0.00000000000E+00  0.79725813222E+03  0.79725813222E+03  0.00000000000E+00 0.  1.
         21   -1    0    0  502  503 -0.00000000000E+00 -0.00000000000E+00 -0.16469184044E+04  0.16469184044E+04  0.00000000000E+00 0. -1.
         -6    2    1    2    0  503 -0.29452386945E+03  0.10744588508E+04 -0.20315575126E+03  0.11446698653E+04  0.16670545791E+03 0.  0.
        -24    2    3    3    0    0 -0.30599536198E+03  0.10643095750E+04 -0.19615448624E+03  0.11271852821E+04  0.75379338950E+02 0.  0.
          6    2    1    2  501    0  0.29452386945E+03 -0.10744588508E+04 -0.64650452095E+03  0.12995066713E+04  0.17188182418E+03 0.  0.
         24    2    5    5    0    0  0.14122126227E+03 -0.33245567246E+03 -0.20598862869E+03  0.42306685744E+03  0.78000202879E+02 0.  0.
          5    1    5    5  501    0  0.15330260719E+03 -0.74200317831E+03 -0.44051589226E+03  0.87643981386E+03  0.47000000000E+01 0. -1.
        -13    1    6    6    0    0  0.17665583950E+02 -0.13786170199E+03 -0.74551729538E+02  0.15772089941E+03  0.00000000000E+00 0.  1.
         14    1    6    6    0    0  0.12355567832E+03 -0.19459397046E+03 -0.13143689915E+03  0.26534595803E+03  0.00000000000E+00 0. -1.
         -5    1    3    3    0  503  0.11471492522E+02  0.10149275776E+02 -0.70012650266E+01  0.17484583250E+02  0.47000000000E+01 0.  1.
         13    1    4    4    0    0 -0.17690397613E+03  0.48566521105E+03 -0.79756412419E+02  0.52299789610E+03  0.00000000000E+00 0. -1.
        -14    1    4    4    0    0 -0.12909138584E+03  0.57864436394E+03 -0.11639807382E+03  0.60418738600E+03  0.00000000000E+00 0.  1.
</event>
<event>
12    1  0.1061634E+000  0.1802857E+03  0.7818608E-02  0.1167941E+00
         21   -1    0    0  501  502  0.00000000000E+00  0.00000000000E+00  0.86512014661E+02  0.86512014661E+02  0.00000000000E+00 0. -1.
         21   -1    0    0  502  503 -0.00000000000E+00 -0.00000000000E+00 -0.37303989474E+03  0.37303989474E+03  0.00000000000E+00 0. -1.
         -6    2    1    2    0  503  0.18638790291E+02 -0.46461601059E+02 -0.15374169512E+03  0.23564320658E+03  0.17142090628E+03 0.  0.
        -24    2    3    3    0    0  0.71441182001E+02 -0.23250244181E+02 -0.59322340118E+02  0.12490042235E+03  0.80228169159E+02 0.  0.
          6    2    1    2  501    0 -0.18638790291E+02  0.46461601059E+02 -0.13278618496E+03  0.22390870283E+03  0.17319599132E+03 0.  0.
         24    2    5    5    0    0  0.19960046225E+02  0.63126524670E+02 -0.15830841882E+02  0.99537355106E+02  0.72620299810E+02 0.  0.
          5    1    5    5  501    0 -0.38598836516E+02 -0.16664923611E+02 -0.11695534308E+03  0.12437134772E+03  0.47000000000E+01 0. -1.
        -13    1    6    6    0    0 -0.11183643558E+02  0.48803128803E+02  0.16198087547E+02  0.52623163193E+02  0.00000000000E+00 0.  1.
         14    1    6    6    0    0  0.31143689783E+02  0.14323395867E+02 -0.32028929430E+02  0.46914191913E+02  0.00000000000E+00 0. -1.
         -5    1    3    3    0  503 -0.52802391710E+02 -0.23211356878E+02 -0.94419355002E+02  0.11074278422E+03  0.47000000000E+01 0.  1.
         11    1    4    4    0    0  0.99223260638E+01  0.31313668264E+01 -0.56980314426E+02  0.57922484795E+02  0.00000000000E+00 0. -1.
        -12    1    4    4    0    0  0.61518855937E+02 -0.26381611007E+02 -0.23420256922E+01  0.66977937558E+02  0.00000000000E+00 0.  1.
</event>
<event>
12    1  0.1061634E+000  0.1989902E+03  0.7818608E-02  0.1150821E+00
         21   -1    0    0  501  502  0.00000000000E+00  0.00000000000E+00  0.50678069494E+03  0.50678069494E+03  0.00000000000E+00 0. -1.
         21   -1    0    0  502  503 -0.00000000000E+00 -0.00000000000E+00 -0.87125062080E+02  0.87125062080E+02  0.00000000000E+00 0. -1.
         -6    2    1    2    0  503  0.12517824394E+02 -0.97835147705E+02  0.30691223299E+03  0.36519593655E+03  0.17159411778E+03 0.  0.
        -24    2    3    3    0    0  0.16157264574E+02  0.85539238755E+01  0.79680888019E+02  0.11422172629E+03  0.79770495978E+02 0.  0.
          6    2    1    2  501    0 -0.12517824394E+02  0.97835147705E+02  0.11274339987E+03  0.22870982047E+03  0.17282562227E+03 0.  0.
         24    2    5    5    0    0 -0.51799942410E+02  0.44031050214E+02  0.86400284759E+01  0.10502648434E+03  0.79586084860E+02 0.  0.
          5    1    5    5  501    0  0.39282118016E+02  0.53804097492E+02  0.10410337139E+03  0.12368333613E+03  0.47000000000E+01 0. -1.
        -13    1    6    6    0    0 -0.40531147187E+02  0.59616605520E+01  0.37819218342E+02  0.55754897227E+02  0.00000000000E+00 0.  1.
         14    1    6    6    0    0 -0.11268795222E+02  0.38069389662E+02 -0.29179189866E+02  0.49271587109E+02  0.00000000000E+00 0. -1.
         -5    1    3    3    0  503 -0.36394401806E+01 -0.10638907158E+03  0.22723134497E+03  0.25097421026E+03  0.47000000000E+01 0.  1.
         11    1    4    4    0    0  0.42315348505E+02  0.19031206691E+02  0.70852643064E+02  0.84692813015E+02  0.00000000000E+00 0. -1.
        -12    1    4    4    0    0 -0.26158083931E+02 -0.10477282816E+02  0.88282449559E+01  0.29528913274E+02  0.00000000000E+00 0.  1.
</event>
<event>
12    1  0.1061634E+000  0.2782064E+03  0.7818608E-02  0.1096804E+00
         21   -1    0    0  503  502  0.00000000000E+00  0.00000000000E+00  0.13998433863E+03  0.13998433863E+03  0.00000000000E+00 0. -1.
         21   -1    0    0  501  503 -0.00000000000E+00 -0.00000000000E+00 -0.57569015613E+03  0.57569015613E+03  0.00000000000E+00 0.  1.
          6    2    1    2  501    0 -0.17968320082E+03  0.12478751605E+03 -0.14412948856E+03  0.31332425461E+03  0.17187437923E+03 0.  0.
         24    2    3    3    0    0 -0.16126763167E+03  0.33568765443E+02 -0.11111889850E+03  0.21447192684E+03  0.80725998037E+02 0.  0.
         -6    2    1    2    0  502  0.17968320082E+03 -0.12478751605E+03 -0.29157632894E+03  0.40235024015E+03  0.17032610878E+03 0.  0.
        -24    2    5    5    0    0  0.17648724550E+03 -0.13926738107E+03 -0.30108317907E+03  0.38411974864E+03  0.79710409120E+02 0.  0.
          5    1    3    3  501    0 -0.18415569146E+02  0.91218750609E+02 -0.33010590057E+02  0.98852327770E+02  0.47000000000E+01 0. -1.
        -11    1    4    4    0    0 -0.38051553168E+02  0.69448252484E+01 -0.73269538693E+02  0.82852740429E+02  0.00000000000E+00 0.  1.
         12    1    4    4    0    0 -0.12321607850E+03  0.26623940195E+02 -0.37849359811E+02  0.13161918641E+03  0.00000000000E+00 0. -1.
         -5    1    5    5    0  502  0.31959553121E+01  0.14479865020E+02  0.95068501251E+01  0.18230491509E+02  0.47000000000E+01 0.  1.
         11    1    6    6    0    0  0.18504805089E+03 -0.13254650008E+03 -0.28613430803E+03  0.36562849732E+03  0.00000000000E+00 0. -1.
        -12    1    6    6    0    0 -0.85608053829E+01 -0.67208809924E+01 -0.14948871035E+02  0.18491251319E+02  0.00000000000E+00 0.  1.
</event>
<event>
12    1  0.1061634E+000  0.3939454E+03  0.7818608E-02  0.1045916E+00
         21   -1    0    0  501  502  0.00000000000E+00  0.00000000000E+00  0.17539127010E+03  0.17539127010E+03  0.00000000000E+00 0. -1.
         21   -1    0    0  502  503 -0.00000000000E+00 -0.00000000000E+00 -0.91348619083E+03  0.91348619083E+03  0.00000000000E+00 0. -1.
         -6    2    1    2    0  503  0.16359971649E+03  0.31477025361E+03 -0.27171611167E+03  0.47838410060E+03  0.17081136546E+03 0.  0.
        -24    2    3    3    0    0  0.76311951031E+02  0.84922648045E+02 -0.49983982495E+02  0.14727036955E+03  0.78452490203E+02 0.  0.
          6    2    1    2  501    0 -0.16359971649E+03 -0.31477025361E+03 -0.46637880906E+03  0.61049336033E+03  0.17131190754E+03 0.  0.
         24    2    5    5    0    0 -0.15829761220E+03 -0.27112105531E+03 -0.31171510966E+03  0.44963219430E+03  0.80237397144E+02 0.  0.
          5    1    5    5  501    0 -0.53021042870E+01 -0.43649198304E+02 -0.15466369940E+03  0.16086116602E+03  0.47000000000E+01 0. -1.
        -11    1    6    6    0    0 -0.40848621691E+02 -0.10892739924E+03 -0.16273093509E+03  0.20003786000E+03  0.00000000000E+00 0.  1.
         12    1    6    6    0    0 -0.11744899051E+03 -0.16219365607E+03 -0.14898417457E+03  0.24959433430E+03  0.00000000000E+00 0. -1.
         -5    1    3    3    0  503  0.87287765460E+02  0.22984760557E+03 -0.22173212918E+03  0.33111373106E+03  0.47000000000E+01 0.  1.
         13    1    4    4    0    0  0.30077182661E+01  0.13366485467E+02 -0.42391097052E+02  0.44550133694E+02  0.00000000000E+00 0. -1.
        -14    1    4    4    0    0  0.73304232765E+02  0.71556162578E+02 -0.75928854427E+01  0.10272023585E+03  0.00000000000E+00 0.  1.
</event>
<event>
12    1  0.1061634E+000  0.2559411E+03  0.7818608E-02  0.1109746E+00
         21   -1    0    0  501  502  0.00000000000E+00  0.00000000000E+00  0.44867691682E+03  0.44867691682E+03  0.00000000000E+00 0.  1.
         21   -1    0    0  502  503 -0.00000000000E+00 -0.00000000000E+00 -0.28715495396E+03  0.28715495396E+03  0.00000000000E+00 0.  1.
         -6    2    1    2    0  503  0.18905535261E+03 -0.21337363253E+02 -0.17759177251E+03  0.31151992759E+03  0.17119759987E+03 0.  0.
        -24    2    3    3    0    0  0.40567136809E+02 -0.45632918312E+02 -0.37578238135E+02  0.10593562849E+03  0.77988316943E+02 0.  0.
          6    2    1    2  501    0 -0.18905535261E+03  0.21337363253E+02  0.33911373537E+03  0.42431194320E+03  0.16983901261E+03 0.  0.
         24    2    5    5    0    0 -0.69317466920E+02 -0.49584437566E+02  0.13976510385E+03  0.18114732819E+03  0.77566375379E+02 0.  0.
          5    1    5    5  501    0 -0.11973788569E+03  0.70921800819E+02  0.19934863153E+03  0.24316461501E+03  0.47000000000E+01 0. -1.
        -11    1    6    6    0    0 -0.15666929874E+01 -0.47421033034E+02  0.56568943378E+02  0.73832609705E+02  0.00000000000E+00 0.  1.
         12    1    6    6    0    0 -0.67750773932E+02 -0.21634045322E+01  0.83196160468E+02  0.10731471849E+03  0.00000000000E+00 0. -1.
         -5    1    3    3    0  503  0.14848821580E+03  0.24295555059E+02 -0.14001353438E+03  0.20558429910E+03  0.47000000000E+01 0.  1.
         13    1    4    4    0    0  0.36453590458E+02 -0.46084562589E+02  0.87637717386E+01  0.59409215290E+02  0.00000000000E+00 0. -1.
        -14    1    4    4    0    0  0.41135463511E+01  0.45164427662E+00 -0.46342009874E+02  0.46526413200E+02  0.00000000000E+00 0.  1.
</event>
<event>
12    1  0.1061634E+000  0.1970599E+03  0.7818608E-02  0.1152317E+00
         21   -1    0    0  503  502  0.00000000000E+00  0.00000000000E+00  0.23444189278E+03  0.23444189278E+03  0.00000000000E+00 0.  1.
         21   -1    0    0  501  503 -0.00000000000E+00 -0.00000000000E+00 -0.17276907958E+03  0.17276907958E+03  0.00000000000E+00 0.  1.
          6    2    1    2  501    0 -0.81777798667E+02 -0.49300429960E+02  0.73000547712E+02  0.20982579395E+03  0.17198733410E+03 0.  0.
         24    2    3    3    0    0 -0.31275146171E+02  0.61078225197E+01  0.96422000871E+02  0.13114131759E+03  0.82978326461E+02 0.  0.
         -6    2    1    2    0  502  0.81777798667E+02  0.49300429960E+02 -0.11327734513E+02  0.19738517841E+03  0.17237879898E+03 0.  0.
        -24    2    5    5    0    0  0.54031158283E+02  0.10938449135E+02  0.39765058260E+02  0.12757055889E+03  0.10795356364E+03 0.  0.
          5    1    3    3  501    0 -0.50502652496E+02 -0.55408252479E+02 -0.23421453159E+02  0.78684476360E+02  0.47000000000E+01 0. -1.
        -11    1    4    4    0    0 -0.32913008487E+02  0.40272253960E+02  0.73212640205E+02  0.89806521214E+02  0.00000000000E+00 0.  1.
         12    1    4    4    0    0  0.16378623166E+01 -0.34164431440E+02  0.23209360667E+02  0.41334796373E+02  0.00000000000E+00 0. -1.
         -5    1    5    5    0  502  0.27746640384E+02  0.38361980825E+02 -0.51092792772E+02  0.69814619520E+02  0.47000000000E+01 0.  1.
         11    1    6    6    0    0 -0.17469942569E+02  0.25169969385E+02 -0.17122204402E+02  0.35098377965E+02  0.00000000000E+00 0. -1.
        -12    1    6    6    0    0  0.71501100852E+02 -0.14231520250E+02  0.56887262661E+02  0.92472180924E+02  0.00000000000E+00 0.  1.
</event>
<event>
12    1  0.1136558E+000  0.2499493E+03  0.7818608E-02  0.1113501E+00
         21   -1    0    0  501  502  0.00000000000E+00  0.00000000000E+00  0.18061500765E+03  0.18061500765E+03  0.00000000000E+00 0. -1.
         21   -1    0    0  502  503 -0.00000000000E+00 -0.00000000000E+00 -0.75585573343E+03  0.75585573343E+03  0.00000000000E+00 0. -1.
         -6    2    1    2    0  503 -0.15981097285E+03  0.85835471771E+02  0.58092561677E+02  0.25559945729E+03  0.17043785257E+03 0.  0.
        -24    2    3    3    0    0 -0.44246851240E+02  0.77991440431E+01 -0.22445827463E+02  0.94499312120E+02  0.80048075106E+02 0.  0.
          6    2    1    2  501    0  0.15981097285E+03 -0.85835471771E+02 -0.63333328746E+03  0.68087128380E+03  0.17195167005E+03 0.  0.
         24    2    5    5    0    0  0.17880785185E+03 -0.85001892976E+02 -0.46312098719E+03  0.50953566745E+03  0.77123134859E+02 0.  0.
          5    1    5    5  501    0 -0.18996879006E+02 -0.83357879482E+00 -0.17021230027E+03  0.17133561635E+03  0.47000000000E+01 0. -1.
        -11    1    6    6    0    0  0.95363322769E+02 -0.40370235398E+02 -0.33239884781E+03  0.34815644940E+03  0.00000000000E+00 0.  1.
         12    1    6    6    0    0  0.83444529084E+02 -0.44631657578E+02 -0.13072213938E+03  0.16137921804E+03  0.00000000000E+00 0. -1.
         -5    1    3    3    0  503 -0.11556412161E+03  0.78036327728E+02  0.80538389140E+02  0.16110014517E+03  0.47000000000E+01 0.  1.
         13    1    4    4    0    0 -0.24586197911E+02  0.35230693644E+02 -0.37983566002E+02  0.57344870639E+02  0.00000000000E+00 0. -1.
        -14    1    4    4    0    0 -0.19660653329E+02 -0.27431549601E+02  0.15537738539E+02  0.37154441481E+02  0.00000000000E+00 0.  1.
</event>
<event>
12    1  0.1061634E+000  0.2118397E+03  0.7818608E-02  0.1140274E+00
         21   -1    0    0  503  502  0.00000000000E+00  0.00000000000E+00  0.27063850426E+02  0.27063850426E+02  0.00000000000E+00 0.  1.
         21   -1    0    0  501  503 -0.00000000000E+00 -0.00000000000E+00 -0.17501771525E+04  0.17501771525E+04  0.00000000000E+00 0.  1.
          6    2    1    2  501    0 -0.11726134889E+03 -0.36970440390E+02 -0.65252810841E+03  0.68605320601E+03  0.17250806299E+03 0.  0.
         24    2    3    3    0    0 -0.13461137207E+02 -0.36756075012E+02 -0.44130581201E+03  0.45065677784E+03  0.82513637846E+02 0.  0.
         -6    2    1    2    0  502  0.11726134889E+03  0.36970440390E+02 -0.10705851937E+04  0.10911877969E+04  0.17152584018E+03 0.  0.
        -24    2    5    5    0    0  0.14426551814E+03 -0.60214916119E+01 -0.85874770053E+03  0.87330079669E+03  0.66014166980E+02 0.  0.
          5    1    3    3  501    0 -0.10380021168E+03 -0.21436537787E+00 -0.21122229640E+03  0.23539642817E+03  0.47000000000E+01 0. -1.
        -13    1    4    4    0    0  0.81610130449E+00 -0.10507229516E+02 -0.39744678876E+03  0.39758649095E+03  0.00000000000E+00 0.  1.
         14    1    4    4    0    0 -0.14277238511E+02 -0.26248845496E+02 -0.43859023255E+02  0.53070286887E+02  0.00000000000E+00 0. -1.
         -5    1    5    5    0  502 -0.27004169249E+02  0.42991932002E+02 -0.21183749312E+03  0.21788700022E+03  0.47000000000E+01 0.  1.
         11    1    6    6    0    0  0.12402733119E+03  0.81639564445E+01 -0.79951147602E+03  0.80911558467E+03  0.00000000000E+00 0. -1.
        -12    1    6    6    0    0  0.20238186944E+02 -0.14185448056E+02 -0.59236224507E+02  0.64185212013E+02  0.00000000000E+00 0.  1.
</event>
<event>
12    1  0.1061634E+000  0.1888615E+03  0.7818608E-02  0.1160386E+00
         21   -1    0    0  501  502  0.00000000000E+00  0.00000000000E+00  0.15309993827E+03  0.15309993827E+03  0.00000000000E+00 0. -1.
         21   -1    0    0  502  503 -0.00000000000E+00 -0.00000000000E+00 -0.26296186977E+03  0.26296186977E+03  0.00000000000E+00 0. -1.
         -6    2    1    2    0  503 -0.50449911856E+02  0.47092435414E+02  0.20203084237E+02  0.18993897965E+03  0.17580034215E+03 0.  0.
        -24    2    3    3    0    0 -0.90877791419E+02  0.29050656039E+02  0.51921141888E+02  0.13527597178E+03  0.80629212917E+02 0.  0.
          6    2    1    2  501    0  0.50449911856E+02 -0.47092435414E+02 -0.13006501574E+03  0.22612282838E+03  0.17161507543E+03 0.  0.
         24    2    5    5    0    0 -0.21417671478E+02 -0.42321221601E+02 -0.12134403005E+03  0.15341891097E+03  0.81013493720E+02 0.  0.
          5    1    5    5  501    0  0.71867583334E+02 -0.47712138124E+01 -0.87209856911E+01  0.72703917411E+02  0.47000000000E+01 0. -1.
        -13    1    6    6    0    0 -0.26125840022E+01 -0.54173951050E+02 -0.35687045845E+02  0.64924631757E+02  0.00000000000E+00 0.  1.
         14    1    6    6    0    0 -0.18805087476E+02  0.11852729449E+02 -0.85656984201E+02  0.88494279210E+02  0.00000000000E+00 0. -1.
         -5    1    3    3    0  503  0.40427879563E+02  0.18041779375E+02 -0.31718057651E+02  0.54663007877E+02  0.47000000000E+01 0.  1.
         13    1    4    4    0    0  0.14210211805E+02 -0.20738993032E+01  0.91966130030E+00  0.14390168685E+02  0.00000000000E+00 0. -1.
        -14    1    4    4    0    0 -0.10508800322E+03  0.31124555342E+02  0.51001480588E+02  0.12088580309E+03  0.00000000000E+00 0.  1.
</event>
<event>
12    1  0.1061634E+000  0.3863641E+03  0.7818608E-02  0.1048800E+00
         21   -1    0    0  503  502  0.00000000000E+00  0.00000000000E+00  0.50358018611E+03  0.50358018611E+03  0.00000000000E+00 0. -1.
         21   -1    0    0  501  503 -0.00000000000E+00 -0.00000000000E+00 -0.30505214196E+03  0.30505214196E+03  0.00000000000E+00 0. -1.
          6    2    1    2  501    0 -0.21647286743E+02  0.34300123661E+03  0.17366505746E+03  0.42359978950E+03  0.17651848668E+03 0.  0.
         24    2    3    3    0    0 -0.81309645849E+02  0.18412789738E+03  0.99555261149E+02  0.23835755100E+03  0.79929537699E+02 0.  0.
         -6    2    1    2    0  502  0.21647286743E+02 -0.34300123661E+03  0.24862986691E+02  0.38503253858E+03  0.17179474472E+03 0.  0.
        -24    2    5    5    0    0  0.72127787205E+02 -0.21809114547E+03 -0.17802644015E+02  0.24363502149E+03  0.79214418760E+02 0.  0.
          5    1    3    3  501    0  0.59662359106E+02  0.15887333924E+03  0.74109796309E+02  0.18524223850E+03  0.47000000000E+01 0. -1.
        -11    1    4    4    0    0 -0.10224017912E+02  0.64985425639E+02 -0.29641821058E+01  0.65851518306E+02  0.00000000000E+00 0.  1.
         12    1    4    4    0    0 -0.71085627938E+02  0.11914247174E+03  0.10251944326E+03  0.17250603270E+03  0.00000000000E+00 0. -1.
         -5    1    5    5    0  502 -0.50480500462E+02 -0.12491009114E+03  0.42665630706E+02  0.14139751709E+03  0.47000000000E+01 0.  1.
         13    1    6    6    0    0  0.11491012107E+02 -0.66929285552E+02 -0.40687746071E+02  0.79164798390E+02  0.00000000000E+00 0. -1.
        -14    1    6    6    0    0  0.60636775098E+02 -0.15116185992E+03  0.22885102056E+02  0.16447022310E+03  0.00000000000E+00 0.  1.
</event>
<event>
12    1  0.1061634E+000  0.3805406E+03  0.7818608E-02  0.1050891E+00
         21   -1    0    0  501  502  0.00000000000E+00  0.00000000000E+00  0.59336588240E+03  0.59336588240E+03  0.00000000000E+00 0.  1.
         21   -1    0    0  502  503 -0.00000000000E+00 -0.00000000000E+00 -0.24421997393E+03  0.24421997393E+03  0.00000000000E+00 0. -1.
         -6    2    1    2    0  503 -0.23797695412E+03  0.24140025136E+03  0.20420722499E+03  0.43037786341E+03  0.16916678907E+03 0.  0.
        -24    2    3    3    0    0 -0.20755597620E+03  0.11961076973E+03  0.14989362079E+03  0.29351964723E+03  0.79369177062E+02 0.  0.
          6    2    1    2  501    0  0.23797695412E+03 -0.24140025136E+03  0.14493868349E+03  0.40720799293E+03  0.17292777536E+03 0.  0.
         24    2    5    5    0    0  0.17766977186E+03 -0.14801362439E+03  0.16364678171E+03  0.29438024250E+03  0.80030476519E+02 0.  0.
          5    1    5    5  501    0  0.60307182263E+02 -0.93386626969E+02 -0.18708098224E+02  0.11282775044E+03  0.47000000000E+01 0. -1.
        -13    1    6    6    0    0  0.23044631597E+02 -0.61217938835E+02  0.61285076768E+02  0.89635660957E+02  0.00000000000E+00 0.  1.
         14    1    6    6    0    0  0.15462514026E+03 -0.86795685552E+02  0.10236170494E+03  0.20474458154E+03  0.00000000000E+00 0. -1.
         -5    1    3    3    0  503 -0.30420977922E+02  0.12178948163E+03  0.54313604201E+02  0.13685821617E+03  0.47000000000E+01 0.  1.
         13    1    4    4    0    0 -0.11733202141E+03  0.57140324967E+02  0.36046072793E+02  0.13539253801E+03  0.00000000000E+00 0. -1.
        -14    1    4    4    0    0 -0.90223954793E+02  0.62470444760E+02  0.11384754799E+03  0.15812710922E+03  0.00000000000E+00 0.  1.
</event>
<event>
12    1  0.1061634E+000  0.2458365E+03  0.7818608E-02  0.1116082E+00
         21   -1    0    0  501  502  0.00000000000E+00  0.00000000000E+00  0.10936863271E+04  0.10936863271E+04  0.00000000000E+00 0.  1.
         21   -1    0    0  502  503 -0.00000000000E+00 -0.00000000000E+00 -0.78745016787E+02  0.78745016787E+02  0.00000000000E+00 0. -1.
         -6    2    1    2    0  503  0.99039357178E+02  0.14589109377E+03  0.82820567379E+03  0.86371502708E+03  0.17025276618E+03 0.  0.
        -24    2    3    3    0    0  0.11794482395E+03  0.14739497288E+03  0.59870460279E+03  0.63338372240E+03  0.84210918928E+02 0.  0.
          6    2    1    2  501    0 -0.99039357178E+02 -0.14589109377E+03  0.18673563657E+03  0.30871631686E+03  0.17129670404E+03 0.  0.
         24    2    5    5    0    0 -0.52715671092E+02 -0.11086499893E+03  0.20145065731E+03  0.24862194900E+03  0.78488956091E+02 0.  0.
          5    1    5    5  501    0 -0.46323686087E+02 -0.35026094839E+02 -0.14715020740E+02  0.60094367854E+02  0.47000000000E+01 0. -1.
        -11    1    6    6    0    0 -0.64560860086E+02 -0.47664361411E+02  0.96127166940E+02  0.12522151663E+03  0.00000000000E+00 0.  1.
         12    1    6    6    0    0  0.11845188994E+02 -0.63200637521E+02  0.10532349037E+03  0.12340043237E+03  0.00000000000E+00 0. -1.
         -5    1    3    3    0  503 -0.18905466776E+02 -0.15038791084E+01  0.22950107100E+03  0.23033130468E+03  0.47000000000E+01 0.  1.
         11    1    4    4    0    0  0.91596859901E+02  0.48237472087E+02  0.27684980598E+03  0.29557174007E+03  0.00000000000E+00 0. -1.
        -12    1    4    4    0    0  0.26347964053E+02  0.99157500793E+02  0.32185479681E+03  0.33781198233E+03  0.00000000000E+00 0.  1.
</event>
<event>
12    1  0.1061634E+000  0.2209801E+03  0.7818608E-02  0.1135412E+00
         21   -1    0    0  501  502  0.00000000000E+00  0.00000000000E+00  0.36844958709E+03  0.36844958709E+03  0.00000000000E+00 0. -1.
         21   -1    0    0  502  503 -0.00000000000E+00 -0.00000000000E+00 -0.41364503044E+03  0.41364503044E+03  0.00000000000E+00 0. -1.
         -6    2    1    2    0  503  0.11990189040E+03 -0.41928140014E+01 -0.34873058894E+03  0.40664052020E+03  0.17131680009E+03 0.  0.
        -24    2    3    3    0    0  0.11207133768E+03  0.54207521648E+02 -0.27131583828E+03  0.30923902956E+03  0.80734460829E+02 0.  0.
          6    2    1    2  501    0 -0.11990189040E+03  0.41928140014E+01  0.30353514560E+03  0.37545409733E+03  0.18557519117E+03 0.  0.
         24    2    5    5    0    0 -0.15362084767E+03  0.16316881029E+02  0.28625091257E+03  0.33539419479E+03  0.81756195522E+02 0.  0.
          5    1    5    5  501    0  0.33718957263E+02 -0.12124067028E+02  0.17284233022E+02  0.40059902538E+02  0.47000000000E+01 0. -1.
        -13    1    6    6    0    0 -0.12460412648E+03 -0.12548098870E+02  0.25432299798E+03  0.28348515026E+03  0.00000000000E+00 0.  1.
         14    1    6    6    0    0 -0.29016721189E+02  0.28864979900E+02  0.31927914596E+02  0.51909044526E+02  0.00000000000E+00 0. -1.
         -5    1    3    3    0  503  0.78305527229E+01 -0.58400335650E+02 -0.77414750663E+02  0.97401490647E+02  0.47000000000E+01 0.  1.
         11    1    4    4    0    0  0.11897593681E+02  0.43564146970E+02 -0.11180934842E+03  0.12058489968E+03  0.00000000000E+00 0. -1.
        -12    1    4    4    0    0  0.10017374400E+03  0.10643374679E+02 -0.15950648986E+03  0.18865412988E+03  0.00000000000E+00 0.  1.
</event>
<event>
12    1  0.1061634E+000  0.3460683E+03  0.7818608E-02  0.1064310E+00
         21   -1    0    0  503  502  0.00000000000E+00  0.00000000000E+00  0.17935177335E+03  0.17935177335E+03  0.00000000000E+00 0.  1.
         21   -1    0    0  501  503 -0.00000000000E+00 -0.00000000000E+00 -0.73818244879E+03  0.73818244879E+03  0.00000000000E+00 0.  1.
          6    2    1    2  501    0  0.39918568258E+02  0.29707547542E+03 -0.42264981484E+03  0.54625647882E+03  0.17296226317E+03 0.  0.
         24    2    3    3    0    0  0.67908269391E+02  0.92952560389E+02 -0.16827496045E+03  0.21887559307E+03  0.79613763834E+02 0.  0.
         -6    2    1    2    0  502 -0.39918568258E+02 -0.29707547542E+03 -0.13618086060E+03  0.37127774332E+03  0.17162344160E+03 0.  0.
        -24    2    5    5    0    0  0.23500629533E+02 -0.25100668843E+03 -0.84869991381E+02  0.27747356920E+03  0.78943200744E+02 0.  0.
          5    1    3    3  501    0 -0.27989701134E+02  0.20412291503E+03 -0.25437485439E+03  0.32738088575E+03  0.47000000000E+01 0. -1.
        -13    1    4    4    0    0 -0.62830490193E+01  0.41585113152E+01 -0.59792792637E+02  0.60265645045E+02  0.00000000000E+00 0.  1.
         14    1    4    4    0    0  0.74191318411E+02  0.88794049074E+02 -0.10848216781E+03  0.15860994802E+03  0.00000000000E+00 0. -1.
         -5    1    5    5    0  502 -0.63419197790E+02 -0.46068786994E+02 -0.51310869218E+02  0.93804174126E+02  0.47000000000E+01 0.  1.
         13    1    6    6    0    0 -0.16153868041E+02 -0.19354126057E+03 -0.58396767735E+02  0.20280372156E+03  0.00000000000E+00 0. -1.
        -14    1    6    6    0    0  0.39654497574E+02 -0.57465427855E+02 -0.26473223646E+02  0.74669847640E+02  0.00000000000E+00 0.  1.
</event>
<event>
12    1  0.1061634E+000  0.2193518E+03  0.7818608E-02  0.1134622E+00
         21   -1    0    0  503  502  0.00000000000E+00  0.00000000000E+00  0.19433446655E+02  0.19433446655E+02  0.00000000000E+00 0.  1.
         21   -1    0    0  501  503 -0.00000000000E+00 -0.00000000000E+00 -0.25673918742E+04  0.25673918742E+04  0.00000000000E+00 0.  1.
          6    2    1    2  501    0 -0.96296477946E+02 -0.96301038675E+02 -0.15415627228E+04  0.15570905119E+04  0.17195444812E+03 0.  0.
         24    2    3    3    0    0 -0.13376967263E+03 -0.63419826146E+02 -0.12789675462E+04  0.12897635001E+04  0.76259441019E+02 0.  0.
         -6    2    1    2    0  502  0.96296477946E+02  0.96301038675E+02 -0.10063957048E+04  0.10297348090E+04  0.17021915438E+03 0.  0.
        -24    2    5    5    0    0  0.10587310617E+02  0.31453027035E+02 -0.25033085471E+03  0.26605459222E+03  0.83774251185E+02 0.  0.
          5    1    3    3  501    0  0.37473194687E+02 -0.32881212529E+02 -0.26259517666E+03  0.26732701184E+03  0.47000000000E+01 0. -1.
        -13    1    4    4    0    0 -0.31651147242E+02  0.72108716764E+01 -0.12542529561E+03  0.12955808184E+03  0.00000000000E+00 0.  1.
         14    1    4    4    0    0 -0.10211852539E+03 -0.70630697822E+02 -0.11535422505E+04  0.11602054182E+04  0.00000000000E+00 0. -1.
         -5    1    5    5    0  502  0.85709167329E+02  0.64848011640E+02 -0.75606485007E+03  0.76368021677E+03  0.47000000000E+01 0.  1.
         11    1    6    6    0    0  0.10641812743E+02  0.56336396558E+02 -0.21708248002E+03  0.22452581341E+03  0.00000000000E+00 0. -1.
        -12    1    6    6    0    0 -0.54502126500E-01 -0.24883369523E+02 -0.33248374691E+02  0.41528778803E+02  0.00000000000E+00 0.  1.
</event>
<event>
12    1  0.1061634E+000  0.2102343E+03  0.7818608E-02  0.1141676E+00
         21   -1    0    0  503  502  0.00000000000E+00  0.00000000000E+00  0.32382298041E+03  0.32382298041E+03  0.00000000000E+00 0.  1.
         21   -1    0    0  501  503 -0.00000000000E+00 -0.00000000000E+00 -0.26079427061E+03  0.26079427061E+03  0.00000000000E+00 0.  1.
          6    2    1    2  501    0 -0.51098540445E+02  0.10918570920E+03 -0.17113111042E+03  0.26992809481E+03  0.17041930491E+03 0.  0.
         24    2    3    3    0    0 -0.32813823754E+01  0.13456977966E+03 -0.14407759515E+03  0.20922542331E+03  0.69979506049E+02 0.  0.
         -6    2    1    2    0  502  0.51098540445E+02 -0.10918570920E+03  0.23415982022E+03  0.31468915622E+03  0.17223781149E+03 0.  0.
        -24    2    5    5    0    0 -0.26528274392E+02 -0.10183428132E+03  0.14637323625E+03  0.19717941110E+03  0.79878818698E+02 0.  0.
          5    1    3    3  501    0 -0.47817158069E+02 -0.25384070457E+02 -0.27053515267E+02  0.60702671499E+02  0.47000000000E+01 0. -1.
        -13    1    4    4    0    0  0.10694354353E+02  0.12515148167E+03 -0.14561259960E+03  0.19230260461E+03  0.00000000000E+00 0.  1.
         14    1    4    4    0    0 -0.13975736728E+02  0.94182979907E+01  0.15350044430E+01  0.16922818701E+02  0.00000000000E+00 0. -1.
         -5    1    5    5    0  502  0.77626814837E+02 -0.73514278811E+01  0.87786583968E+02  0.11750974512E+03  0.47000000000E+01 0.  1.
         11    1    6    6    0    0  0.12192813091E+02 -0.67558758004E+02  0.12205068930E+03  0.14003292910E+03  0.00000000000E+00 0. -1.
        -12    1    6    6    0    0 -0.38721087483E+02 -0.34275523315E+02  0.24322546951E+02  0.57146481997E+02  0.00000000000E+00 0.  1.
</event>
<event>
12    1  0.1061634E+000  0.1839811E+03  0.7818608E-02  0.1164046E+00
         21   -1    0    0  503  502  0.00000000000E+00  0.00000000000E+00  0.11280616298E+03  0.11280616298E+03  0.00000000000E+00 0. -1.
         21   -1    0    0  501  503 -0.00000000000E+00 -0.00000000000E+00 -0.39335830707E+03  0.39335830707E+03  0.00000000000E+00 0.  1.
          6    2    1    2  501    0 -0.63608634763E+02 -0.14847035873E+02 -0.26376987901E+03  0.32159538964E+03  0.17199579261E+03 0.  0.
         24    2    3    3    0    0 -0.12102432001E+02  0.27790424697E+02 -0.23227439915E+03  0.24753529770E+03  0.80022187807E+02 0.  0.
         -6    2    1    2    0  502  0.63608634763E+02  0.14847035873E+02 -0.16782265085E+02  0.18456908041E+03  0.17180689198E+03 0.  0.
        -24    2    5    5    0    0  0.43131985923E+02  0.74768534519E+02  0.29385245764E+01  0.11807939179E+03  0.80519599325E+02 0.  0.
          5    1    3    3  501    0 -0.51506202762E+02 -0.42637460570E+02 -0.31495479862E+02  0.74060091943E+02  0.47000000000E+01 0. -1.
        -13    1    4    4    0    0  0.25081861035E+02  0.36886307387E+02 -0.15512345309E+03  0.16140937124E+03  0.00000000000E+00 0.  1.
         14    1    4    4    0    0 -0.37184293036E+02 -0.90958826902E+01 -0.77150946062E+02  0.86125926461E+02  0.00000000000E+00 0. -1.
         -5    1    5    5    0  502  0.20476648840E+02 -0.59921498646E+02 -0.19720789662E+02  0.66489688618E+02  0.47000000000E+01 0.  1.
         11    1    6    6    0    0  0.49833598496E+02  0.15137690686E+02 -0.17097336377E+02  0.54816568021E+02  0.00000000000E+00 0. -1.
        -12    1    6    6    0    0 -0.67016125733E+01  0.59630843832E+02  0.20035860954E+02  0.63262823770E+02  0.00000000000E+00 0.  1.
</event>
<event>
12    1  0.1061634E+000  0.1999256E+03  0.7818608E-02  0.1150406E+00
         21   -1    0    0  503  502  0.00000000000E+00  0.00000000000E+00  0.39004952454E+03  0.39004952454E+03  0.00000000000E+00 0. -1.
         21   -1    0    0  501  503 -0.00000000000E+00 -0.00000000000E+00 -0.11775309696E+03  0.11775309696E+03  0.00000000000E+00 0. -1.
          6    2    1    2  501    0 -0.10174436798E+03  0.11393384942E+02  0.23101197032E+03  0.30365894536E+03  0.16840575712E+03 0.  0.
         24    2    3    3    0    0 -0.55094331814E+02  0.33955329305E+02  0.22879874865E+03  0.25157962549E+03  0.82189359376E+02 0.  0.
         -6    2    1    2    0  502  0.10174436798E+03 -0.11393384942E+02  0.41284457263E+02  0.20414367614E+03  0.17172218395E+03 0.  0.
        -24    2    5    5    0    0  0.72431101841E+02 -0.22956106472E+02  0.92640795450E+02  0.14370753155E+03  0.79349167008E+02 0.  0.
          5    1    3    3  501    0 -0.46650036168E+02 -0.22561944363E+02  0.22132216703E+01  0.52079319870E+02  0.47000000000E+01 0. -1.
        -11    1    4    4    0    0 -0.46902542046E+02  0.22692283325E+01  0.20699366876E+03  0.21225309598E+03  0.00000000000E+00 0.  1.
         12    1    4    4    0    0 -0.81917897681E+01  0.31686100972E+02  0.21805079887E+02  0.39326529510E+02  0.00000000000E+00 0. -1.
         -5    1    5    5    0  502  0.29313266141E+02  0.11562721530E+02 -0.51356338187E+02  0.60436144591E+02  0.47000000000E+01 0.  1.
         13    1    6    6    0    0  0.41570763868E+02 -0.24203576843E+00  0.96619515132E+02  0.10518325767E+03  0.00000000000E+00 0. -1.
        -14    1    6    6    0    0  0.30860337973E+02 -0.22714070703E+02 -0.39787196824E+01  0.38524273881E+02  0.00000000000E+00 0.  1.
</event>
<event>
12    1  0.1061634E+000  0.2004050E+03  0.7818608E-02  0.1149491E+00
         21   -1    0    0  503  502  0.00000000000E+00  0.00000000000E+00  0.19557363733E+02  0.19557363733E+02  0.00000000000E+00 0. -1.
         21   -1    0    0  501  503 -0.00000000000E+00 -0.00000000000E+00 -0.21224772653E+04  0.21224772653E+04  0.00000000000E+00 0. -1.
          6    2    1    2  501    0  0.18815813508E+02 -0.98770587241E+02 -0.12495589592E+04  0.12654577251E+04  0.17284674654E+03 0.  0.
         24    2    3    3    0    0 -0.33561426945E+02 -0.26066874874E+01 -0.39486573402E+03  0.40376551202E+03  0.77294738480E+02 0.  0.
         -6    2    1    2    0  502 -0.18815813508E+02  0.98770587241E+02 -0.85336094236E+03  0.87657690391E+03  0.17335658853E+03 0.  0.
        -24    2    5    5    0    0 -0.72412093343E+02  0.91678595643E+02 -0.52294291797E+03  0.54173213629E+03  0.79724123592E+02 0.  0.
          5    1    3    3  501    0  0.52377240453E+02 -0.96163899753E+02 -0.85469322514E+03  0.86169221306E+03  0.47000000000E+01 0. -1.
        -11    1    4    4    0    0 -0.13666115785E+02 -0.28900566406E+02 -0.66893944287E+02  0.74140442685E+02  0.00000000000E+00 0.  1.
         12    1    4    4    0    0 -0.19895311160E+02  0.26293878918E+02 -0.32797178973E+03  0.32962506933E+03  0.00000000000E+00 0. -1.
         -5    1    5    5    0  502  0.53596279835E+02  0.70919915972E+01 -0.33041802439E+03  0.33484476762E+03  0.47000000000E+01 0.  1.
         13    1    6    6    0    0 -0.98976257697E+01  0.15639106921E+02 -0.13608637548E+02  0.22972585337E+02  0.00000000000E+00 0. -1.
        -14    1    6    6    0    0 -0.62514467573E+02  0.76039488722E+02 -0.50933428042E+03  0.51875955096E+03  0.00000000000E+00 0.  1.
</event>
<event>
12    1  0.1061634E+000  0.9552682E+03  0.7818608E-02  0.9359050E-01
         21   -1    0    0  503  502  0.00000000000E+00  0.00000000000E+00  0.16433749862E+04  0.16433749862E+04  0.00000000000E+00 0.  1.
         21   -1    0    0  501  503 -0.00000000000E+00 -0.00000000000E+00 -0.58094116251E+03  0.58094116251E+03  0.00000000000E+00 0. -1.
          6    2    1    2  501    0 -0.75432335241E+03 -0.56046394247E+03  0.76524069159E+03  0.12238857094E+04  0.17081967936E+03 0.  0.
         24    2    3    3    0    0 -0.55483911331E+03 -0.39896004306E+03  0.63319147899E+03  0.93520499354E+03  0.81617236242E+02 0.  0.
         -6    2    1    2    0  502  0.75432335241E+03  0.56046394247E+03  0.29719313212E+03  0.10004304393E+04  0.17150438863E+03 0.  0.
        -24    2    5    5    0    0  0.52149425835E+03  0.41148910195E+03  0.14457467390E+03  0.68464986053E+03  0.81018841444E+02 0.  0.
          5    1    3    3  501    0 -0.19948423911E+03 -0.16150389941E+03  0.13204921260E+03  0.28868071589E+03  0.47000000000E+01 0. -1.
        -11    1    4    4    0    0 -0.18979004526E+03 -0.17957064706E+03  0.26620302315E+03  0.37300124409E+03  0.00000000000E+00 0.  1.
         12    1    4    4    0    0 -0.36504906805E+03 -0.21938939601E+03  0.36698845584E+03  0.56220374944E+03  0.00000000000E+00 0. -1.
         -5    1    5    5    0  502  0.23282909406E+03  0.14897484052E+03  0.15261845822E+03  0.31578057879E+03  0.47000000000E+01 0.  1.
         13    1    6    6    0    0  0.24960739254E+03  0.23213224228E+03  0.43610711717E+02  0.34364388907E+03  0.00000000000E+00 0. -1.
        -14    1    6    6    0    0  0.27188686581E+03  0.17935685967E+03  0.10096396219E+03  0.34100597146E+03  0.00000000000E+00 0.  1.
</event>
<event>
12    1  0.1061634E+000  0.2777352E+03  0.7818608E-02  0.1097347E+00
         21   -1    0    0  501  502  0.00000000000E+00  0.00000000000E+00  0.22851139531E+03  0.22851139531E+03  0.00000000000E+00 0.  1.
         21   -1    0    0  502  503 -0.00000000000E+00 -0.00000000000E+00 -0.33446859586E+03  0.33446859586E+03  0.00000000000E+00 0. -1.
         -6    2    1    2    0  503  0.12310153614E+03  0.17498405047E+03 -0.63871437424E+02  0.28207426785E+03  0.17237437728E+03 0.  0.
        -24    2    3    3    0    0  0.33679406177E+02  0.82937737897E+02 -0.92826922965E+02  0.15043327450E+03  0.77462001542E+02 0.  0.
          6    2    1    2  501    0 -0.12310153614E+03 -0.17498405047E+03 -0.42085763126E+02  0.28090572332E+03  0.17709717056E+03 0.  0.
         24    2    5    5    0    0 -0.10774582008E+02 -0.25580972794E+02  0.29936779500E+01  0.88570416500E+02  0.84055212716E+02 0.  0.
          5    1    5    5  501    0 -0.11232695413E+03 -0.14940307768E+03 -0.45079441076E+02  0.19233530682E+03  0.47000000000E+01 0. -1.
        -11    1    6    6    0    0  0.62340962165E+01 -0.12454092619E+02 -0.38993174382E+02  0.41405748719E+02  0.00000000000E+00 0.  1.
         12    1    6    6    0    0 -0.17008678224E+02 -0.13126880175E+02  0.41986852332E+02  0.47164667781E+02  0.00000000000E+00 0. -1.
         -5    1    3    3    0  503  0.89422129960E+02  0.92046312575E+02  0.28955485541E+02  0.13164099334E+03  0.47000000000E+01 0.  1.
         13    1    4    4    0    0 -0.59866953172E+01  0.31812781110E+02  0.53895681012E+01  0.32816779353E+02  0.00000000000E+00 0. -1.
        -14    1    4    4    0    0  0.39666101494E+02  0.51124956787E+02 -0.98216491066E+02  0.11761649515E+03  0.00000000000E+00 0.  1.
</event>
<event>
12    1  0.1061634E+000  0.4846517E+03  0.7818608E-02  0.1017866E+00
         21   -1    0    0  501  502  0.00000000000E+00  0.00000000000E+00  0.10967354568E+03  0.10967354568E+03  0.00000000000E+00 0. -1.
         21   -1    0    0  502  503 -0.00000000000E+00 -0.00000000000E+00 -0.23222448606E+04  0.23222448606E+04  0.00000000000E+00 0.  1.
         -6    2    1    2    0  503  0.29114440567E+03  0.34725041535E+03 -0.14454753359E+04  0.15245609999E+04  0.17187024130E+03 0.  0.
        -24    2    3    3    0    0  0.19396996593E+03  0.13288951071E+03 -0.78173709633E+03  0.82031387720E+03  0.80734129179E+02 0.  0.
          6    2    1    2  501    0 -0.29114440567E+03 -0.34725041535E+03 -0.76709597908E+03  0.90735740642E+03  0.17179437114E+03 0.  0.
         24    2    5    5    0    0 -0.16763008134E+03 -0.12136480853E+03 -0.28898688137E+03  0.36431919875E+03  0.79911201038E+02 0.  0.
          5    1    5    5  501    0 -0.12351432433E+03 -0.22588560682E+03 -0.47810909771E+03  0.54303820767E+03  0.47000000000E+01 0. -1.
        -13    1    6    6    0    0 -0.60903302807E+02 -0.41774152284E+02 -0.17161998754E+03  0.18683605706E+03  0.00000000000E+00 0.  1.
         14    1    6    6    0    0 -0.10672677853E+03 -0.79590656241E+02 -0.11736689383E+03  0.17748314169E+03  0.00000000000E+00 0. -1.
         -5    1    3    3    0  503  0.97174439740E+02  0.21436090464E+03 -0.66373823955E+03  0.70424712269E+03  0.47000000000E+01 0.  1.
         11    1    4    4    0    0  0.12775414253E+03  0.12799910722E+03 -0.60784872533E+03  0.63418054627E+03  0.00000000000E+00 0. -1.
        -12    1    4    4    0    0  0.66215823397E+02  0.48904034845E+01 -0.17388837100E+03  0.18613333093E+03  0.00000000000E+00 0.  1.
</event>
<event>
12    1  0.1061634E+000  0.1821973E+03  0.7818608E-02  0.1166062E+00
         21   -1    0    0  501  502  0.00000000000E+00  0.00000000000E+00  0.60818873271E+03  0.60818873271E+03  0.00000000000E+00 0. -1.
         21   -1    0    0  502  503 -0.00000000000E+00 -0.00000000000E+00 -0.54449376369E+02  0.54449376369E+02  0.00000000000E+00 0. -1.
         -6    2    1    2    0  503  0.47679169923E+02  0.45129545683E+02  0.25231661828E+03  0.31122263783E+03  0.16995845170E+03 0.  0.
        -24    2    3    3    0    0 -0.18080250615E+02  0.72656595612E+02  0.16737041067E+03  0.20022719624E+03  0.80449980723E+02 0.  0.
          6    2    1    2  501    0 -0.47679169923E+02 -0.45129545683E+02  0.30142273806E+03  0.35141547125E+03  0.16830682479E+03 0.  0.
         24    2    5    5    0    0 -0.13918431582E+02 -0.63059809611E+02  0.63494273817E+02  0.11038990016E+03  0.63120083365E+02 0.  0.
          5    1    5    5  501    0 -0.33760738341E+02  0.17930263928E+02  0.23792846425E+03  0.24102557109E+03  0.47000000000E+01 0. -1.
        -11    1    6    6    0    0 -0.60019057035E+01 -0.30891640813E+02 -0.72319368227E+01  0.32289584302E+02  0.00000000000E+00 0.  1.
         12    1    6    6    0    0 -0.79165258787E+01 -0.32168168798E+02  0.70726210639E+02  0.78100315858E+02  0.00000000000E+00 0. -1.
         -5    1    3    3    0  503  0.65759420538E+02 -0.27527049929E+02  0.84946207607E+02  0.11099544159E+03  0.47000000000E+01 0.  1.
         13    1    4    4    0    0 -0.37558768407E+02  0.41815555022E+01  0.46162929300E+02  0.59658717152E+02  0.00000000000E+00 0. -1.
        -14    1    4    4    0    0  0.19478517791E+02  0.68475040109E+02  0.12120748137E+03  0.14056847909E+03  0.00000000000E+00 0.  1.
</event>
<event>
12    1  0.1061634E+000  0.3503863E+03  0.7818608E-02  0.1062585E+00
         21   -1    0    0  501  502  0.00000000000E+00  0.00000000000E+00  0.32664692756E+03  0.32664692756E+03  0.00000000000E+00 0.  1.
         21   -1    0    0  502  503 -0.00000000000E+00 -0.00000000000E+00 -0.44204333983E+03  0.44204333983E+03  0.00000000000E+00 0.  1.
         -6    2    1    2    0  503  0.28746876192E+03  0.98979918885E+02  0.92441759272E+02  0.36237552995E+03  0.17417012494E+03 0.  0.
        -24    2    3    3    0    0  0.21492993235E+03  0.10274842839E+02  0.31950174364E+02  0.23271522701E+03  0.82674754467E+02 0.  0.
          6    2    1    2  501    0 -0.28746876192E+03 -0.98979918885E+02 -0.20783817155E+03  0.40631473744E+03  0.17163812772E+03 0.  0.
         24    2    5    5    0    0 -0.74490587987E+02 -0.13890124998E+01 -0.98851915588E+02  0.14788915518E+03  0.80924186427E+02 0.  0.
          5    1    5    5  501    0 -0.21297817394E+03 -0.97590906386E+02 -0.10898625596E+03  0.25842558227E+03  0.47000000000E+01 0. -1.
        -11    1    6    6    0    0 -0.32729216989E+02 -0.28117123049E+02 -0.86693821324E+02  0.96837972454E+02  0.00000000000E+00 0.  1.
         12    1    6    6    0    0 -0.41761370998E+02  0.26728110549E+02 -0.12158094264E+02  0.51051182722E+02  0.00000000000E+00 0. -1.
         -5    1    3    3    0  503  0.72538829574E+02  0.88705076047E+02  0.60491584907E+02  0.12966030293E+03  0.47000000000E+01 0.  1.
         13    1    4    4    0    0  0.93894141409E+02  0.44671845740E+02  0.54210070865E+01  0.10412046346E+03  0.00000000000E+00 0. -1.
        -14    1    4    4    0    0  0.12103579094E+03 -0.34397002901E+02  0.26529167278E+02  0.12859476355E+03  0.00000000000E+00 0.  1.
</event>
<event>
12    1  0.1061634E+000  0.2338401E+03  0.7818608E-02  0.1125092E+00
         21   -1    0    0  501  502  0.00000000000E+00  0.00000000000E+00  0.19690688098E+03  0.19690688098E+03  0.00000000000E+00 0. -1.
         21   -1    0    0  502  503 -0.00000000000E+00 -0.00000000000E+00 -0.30333590510E+03  0.30333590510E+03  0.00000000000E+00 0. -1.
         -6    2    1    2    0  503 -0.14709347613E+03  0.93383197764E+00 -0.13533057874E+03  0.26462342557E+03  0.17341807592E+03 0.  0.
        -24    2    3    3    0    0 -0.68852176780E+02  0.64052936988E+02 -0.66136052142E+02  0.14249359771E+03  0.84184600797E+02 0.  0.
          6    2    1    2  501    0  0.14709347613E+03 -0.93383197764E+00  0.28901554626E+02  0.23561936051E+03  0.18177959299E+03 0.  0.
         24    2    5    5    0    0  0.83541939123E+02  0.58016971716E+02  0.61872361350E+02  0.14275839343E+03  0.78781629804E+02 0.  0.
          5    1    5    5  501    0  0.63551537010E+02 -0.58950803694E+02 -0.32970806725E+02  0.92860967088E+02  0.47000000000E+01 0. -1.
        -11    1    6    6    0    0  0.54928865343E+02  0.52120951962E+02  0.15539423376E+01  0.75737630133E+02  0.00000000000E+00 0.  1.
         12    1    6    6    0    0  0.28613073780E+02  0.58960197544E+01  0.60318419013E+02  0.67020763292E+02  0.00000000000E+00 0. -1.
         -5    1    3    3    0  503 -0.78241299353E+02 -0.63119105011E+02 -0.69194526598E+02  0.12212982786E+03  0.47000000000E+01 0.  1.
         11    1    4    4    0    0  0.77979068875E+01 -0.11247875452E+02  0.39033332356E+01  0.14232289498E+02  0.00000000000E+00 0. -1.
        -12    1    4    4    0    0 -0.76650083668E+02  0.75300812440E+02 -0.70039385378E+02  0.12826130821E+03  0.00000000000E+00 0.  1.
</event>
<event>
12    1  0.1061634E+000  0.2193413E+03  0.7818608E-02  0.1134528E+00
         21   -1    0    0  501  502  0.00000000000E+00  0.00000000000E+00  0.37118848072E+02  0.37118848072E+02  0.00000000000E+00 0.  1.
         21   -1    0    0  502  503 -0.00000000000E+00 -0.00000000000E+00 -0.20761930962E+04  0.20761930962E+04  0.00000000000E+00 0.  1.
         -6    2    1    2    0  503 -0.13289856413E+03 -0.24988840368E+02 -0.16680399853E+04  0.16822933456E+04  0.17165965666E+03 0.  0.
        -24    2    3    3    0    0 -0.14958496167E+03 -0.38044951414E+02 -0.10852195392E+04  0.10990689803E+04  0.80175408754E+02 0.  0.
          6    2    1    2  501    0  0.13289856413E+03  0.24988840368E+02 -0.37103426286E+03  0.43101859867E+03  0.17269666381E+03 0.  0.
         24    2    5    5    0    0 -0.81168166061E+01  0.89892805600E+01 -0.13593416766E+03  0.15636341797E+03  0.76319923131E+02 0.  0.
          5    1    5    5  501    0  0.14101538074E+03  0.15999559808E+02 -0.23510009521E+03  0.27465518070E+03  0.47000000000E+01 0. -1.
        -13    1    6    6    0    0  0.20997740659E+02  0.10133515912E+02 -0.72418465326E+01  0.24413881271E+02  0.00000000000E+00 0.  1.
         14    1    6    6    0    0 -0.29114557265E+02 -0.11442353518E+01 -0.12869232112E+03  0.13194953670E+03  0.00000000000E+00 0. -1.
         -5    1    3    3    0  503  0.16686397541E+02  0.13056111045E+02 -0.58282044614E+03  0.58322436535E+03  0.47000000000E+01 0.  1.
         13    1    4    4    0    0 -0.12051901989E+03 -0.12026389108E+01 -0.89826957512E+03  0.90631920982E+03  0.00000000000E+00 0. -1.
        -14    1    4    4    0    0 -0.29065941778E+02 -0.36842312503E+02 -0.18694996405E+03  0.19274977048E+03  0.00000000000E+00 0.  1.
</event>
<event>
12    1  0.1061634E+000  0.1993703E+03  0.7818608E-02  0.1150591E+00
         21   -1    0    0  503  502  0.00000000000E+00  0.00000000000E+00  0.17661314369E+03  0.17661314369E+03  0.00000000000E+00 0. -1.
         21   -1    0    0  501  503 -0.00000000000E+00 -0.00000000000E+00 -0.22349703355E+03  0.22349703355E+03  0.00000000000E+00 0. -1.
          6    2    1    2  501    0 -0.16252178016E+02  0.94504478374E+02 -0.18663810467E+02  0.20024200830E+03  0.17479500664E+03 0.  0.
         24    2    3    3    0    0  0.30728741085E+02  0.84055953587E+02 -0.63555556428E+02  0.13425915231E+03  0.77308164921E+02 0.  0.
         -6    2    1    2    0  502  0.16252178016E+02 -0.94504478374E+02 -0.28220079390E+02  0.19986816893E+03  0.17307709943E+03 0.  0.
        -24    2    5    5    0    0 -0.14984129336E+02 -0.12726752228E+03 -0.33611923857E+02  0.15403929234E+03  0.78592593800E+02 0.  0.
          5    1    3    3  501    0 -0.46980919101E+02  0.10448524787E+02  0.44891745961E+02  0.65982855995E+02  0.47000000000E+01 0. -1.
        -11    1    4    4    0    0  0.10443039923E+02  0.86992565172E+02 -0.25864161782E+02  0.91354903222E+02  0.00000000000E+00 0.  1.
         12    1    4    4    0    0  0.20285701163E+02 -0.29366115850E+01 -0.37691394646E+02  0.42904249086E+02  0.00000000000E+00 0. -1.
         -5    1    5    5    0  502  0.31236307352E+02  0.32763043906E+02  0.53918444669E+01  0.45828876592E+02  0.47000000000E+01 0.  1.
         13    1    6    6    0    0  0.28059235302E+02 -0.35307521851E+02 -0.26377823997E+02  0.52246831328E+02  0.00000000000E+00 0. -1.
        -14    1    6    6    0    0 -0.43043364638E+02 -0.91960000429E+02 -0.72340998603E+01  0.10179246101E+03  0.00000000000E+00 0.  1.
</event>
<event>
12    1  0.1061634E+000  0.1845522E+03  0.7818608E-02  0.1165688E+00
         21   -1    0    0  503  502  0.00000000000E+00  0.00000000000E+00  0.21835693308E+02  0.21835693308E+02  0.00000000000E+00 0. -1.
         21   -1    0    0  501  503 -0.00000000000E+00 -0.00000000000E+00 -0.14831086090E+04  0.14831086090E+04  0.00000000000E+00 0. -1.
          6    2    1    2  501    0 -0.55969322664E+02  0.29566698162E+02 -0.73978050440E+03  0.76245309154E+03  0.17335734016E+03 0.  0.
         24    2    3    3    0    0 -0.57081967525E+01  0.40469068969E+02 -0.66277806653E+03  0.66973573661E+03  0.87182924745E+02 0.  0.
         -6    2    1    2    0  502  0.55969322664E+02 -0.29566698162E+02 -0.72149241127E+03  0.74249121075E+03  0.16350884929E+03 0.  0.
        -24    2    5    5    0    0  0.22211226644E+02  0.33988500951E+02 -0.27129210075E+03  0.28655121253E+03  0.82847068069E+02 0.  0.
          5    1    3    3  501    0 -0.50261125911E+02 -0.10902370807E+02 -0.77002437879E+02  0.92717354937E+02  0.47000000000E+01 0. -1.
        -13    1    4    4    0    0  0.37417187106E+02  0.10247841635E+02 -0.38971505873E+03  0.39164127866E+03  0.00000000000E+00 0.  1.
         14    1    4    4    0    0 -0.43125383858E+02  0.30221227333E+02 -0.27306300779E+03  0.27809445794E+03  0.00000000000E+00 0. -1.
         -5    1    5    5    0  502  0.33758096020E+02 -0.63555199112E+02 -0.45020031053E+03  0.45593999822E+03  0.47000000000E+01 0.  1.
         11    1    6    6    0    0 -0.17834016481E+02  0.22254895393E+01 -0.18778702023E+03  0.18864508983E+03  0.00000000000E+00 0. -1.
        -12    1    6    6    0    0  0.40045243125E+02  0.31763011411E+02 -0.83505080514E+02  0.97906122702E+02  0.00000000000E+00 0.  1.
</event>
<event>
12    1  0.1061634E+000  0.2456644E+03  0.7818608E-02  0.1116280E+00
         21   -1    0    0  501  502  0.00000000000E+00  0.00000000000E+00  0.10746453918E+03  0.10746453918E+03  0.00000000000E+00 0. -1.
         21   -1    0    0  502  503 -0.00000000000E+00 -0.00000000000E+00 -0.62413107587E+03  0.62413107587E+03  0.00000000000E+00 0. -1.
         -6    2    1    2    0  503  0.19335323116E+02  0.17278446082E+03 -0.14050436954E+03  0.28300616210E+03  0.17355888137E+03 0.  0.
        -24    2    3    3    0    0 -0.43371324061E+02  0.15690331829E+03 -0.95390923789E+02  0.20400206552E+03  0.77573780059E+02 0.  0.
          6    2    1    2  501    0 -0.19335323116E+02 -0.17278446082E+03 -0.37616216714E+03  0.44858945296E+03  0.17177367870E+03 0.  0.
         24    2    5    5    0    0  0.40719099837E+02 -0.14283687923E+03 -0.31775939942E+03  0.35950317660E+03  0.78810398423E+02 0.  0.
          5    1    5    5  501    0 -0.60054422953E+02 -0.29947581593E+02 -0.58402767720E+02  0.89086276366E+02  0.47000000000E+01 0. -1.
        -11    1    6    6    0    0  0.10438308432E+02 -0.25260109834E+01  0.95395346938E-01  0.10740023961E+02  0.00000000000E+00 0.  1.
         12    1    6    6    0    0  0.30280791405E+02 -0.14031086825E+03 -0.31785479477E+03  0.34876315264E+03  0.00000000000E+00 0. -1.
         -5    1    3    3    0  503  0.62706647177E+02  0.15881142533E+02 -0.45113445756E+02  0.79004096579E+02  0.47000000000E+01 0.  1.
         13    1    4    4    0    0 -0.28425736987E+02  0.74182235359E+01 -0.22605319722E+02  0.37068221476E+02  0.00000000000E+00 0. -1.
        -14    1    4    4    0    0 -0.14945587074E+02  0.14948509476E+03 -0.72785604066E+02  0.16693384404E+03  0.00000000000E+00 0.  1.
</event>
<event>
12    1  0.1061634E+000  0.8839694E+03  0.7818608E-02  0.9445920E-01
         21   -1    0    0  501  502  0.00000000000E+00  0.00000000000E+00  0.37190899225E+04  0.37190899225E+04  0.00000000000E+00 0. -1.
         21   -1    0    0  502  503 -0.00000000000E+00 -0.00000000000E+00 -0.22788318288E+03  0.22788318288E+03  0.00000000000E+00 0.  1.
         -6    2    1    2    0  503 -0.55173554971E+03  0.66797687992E+03  0.22978840692E+04  0.24620465123E+04  0.17548961303E+03 0.  0.
        -24    2    3    3    0    0 -0.25932185606E+03  0.34216111991E+03  0.96973982229E+03  0.10636006219E+04  0.80801627461E+02 0.  0.
          6    2    1    2  501    0  0.55173554971E+03 -0.66797687992E+03  0.11933226704E+04  0.14849265931E+04  0.17430651800E+03 0.  0.
         24    2    5    5    0    0  0.27310120985E+03 -0.30038589324E+03  0.46015779725E+03  0.61872046861E+03  0.79081377265E+02 0.  0.
          5    1    5    5  501    0  0.27863433986E+03 -0.36759098668E+03  0.73316487320E+03  0.86620612450E+03  0.47000000000E+01 0. -1.
        -11    1    6    6    0    0  0.87876135058E+02 -0.62376901681E+02  0.16245091546E+03  0.19494458933E+03  0.00000000000E+00 0.  1.
         12    1    6    6    0    0  0.18522507479E+03 -0.23800899156E+03  0.29770688179E+03  0.42377587928E+03  0.00000000000E+00 0. -1.
         -5    1    3    3    0  503 -0.29241369365E+03  0.32581576001E+03  0.13281442469E+04  0.13984458903E+04  0.47000000000E+01 0.  1.
         11    1    4    4    0    0 -0.13485578448E+03  0.22909893057E+03  0.53325881484E+03  0.59585012058E+03  0.00000000000E+00 0. -1.
        -12    1    4    4    0    0 -0.12446607159E+03  0.11306218934E+03  0.43648100746E+03  0.46775050134E+03  0.00000000000E+00 0.  1.
</event>
<event>
12    1  0.1061634E+000  0.3630974E+03  0.7818608E-02  0.1057413E+00
         21   -1    0    0  503  502  0.00000000000E+00  0.00000000000E+00  0.15056305726E+03  0.15056305726E+03  0.00000000000E+00 0.  1.
         21   -1    0    0  501  503 -0.00000000000E+00 -0.00000000000E+00 -0.89294182802E+03  0.89294182802E+03  0.00000000000E+00 0.  1.
          6    2    1    2  501    0 -0.16850058722E+03 -0.27159255657E+03 -0.44652181167E+03  0.57551839449E+03  0.17229256925E+03 0.  0.
         24    2    3    3    0    0 -0.61568858781E+02 -0.21887586699E+03 -0.33048295986E+03  0.40908357531E+03  0.80206080215E+02 0.  0.
         -6    2    1    2    0  502  0.16850058722E+03  0.27159255657E+03 -0.29585695910E+03  0.46798649079E+03  0.17124558572E+03 0.  0.
        -24    2    5    5    0    0  0.18173796703E+03  0.27636005233E+03 -0.29913462924E+03  0.45279470480E+03  0.78345077080E+02 0.  0.
          5    1    3    3  501    0 -0.10693172844E+03 -0.52716689584E+02 -0.11603885181E+03  0.16643481918E+03  0.47000000000E+01 0. -1.
        -11    1    4    4    0    0 -0.32068492345E+02 -0.10109091178E+03 -0.22294985093E+03  0.24688944221E+03  0.00000000000E+00 0.  1.
         12    1    4    4    0    0 -0.29500366436E+02 -0.11778495521E+03 -0.10753310893E+03  0.16219413309E+03  0.00000000000E+00 0. -1.
         -5    1    5    5    0  502 -0.13237379808E+02 -0.47674957523E+01  0.32776701382E+01  0.15191785987E+02  0.47000000000E+01 0.  1.
         13    1    6    6    0    0  0.11224756023E+03  0.21884211306E+03 -0.24717762653E+03  0.34869494445E+03  0.00000000000E+00 0. -1.
        -14    1    6    6    0    0  0.69490406803E+02  0.57517939265E+02 -0.51957002708E+02  0.10409976035E+03  0.00000000000E+00 0.  1.
</event>
<event>
12    1  0.1061634E+000  0.1768880E+03  0.7818608E-02  0.1171234E+00
         21   -1    0    0  501  502  0.00000000000E+00  0.00000000000E+00  0.19265979190E+03  0.19265979190E+03  0.00000000000E+00 0.  1.
         21   -1    0    0  502  503 -0.00000000000E+00 -0.00000000000E+00 -0.23361096074E+03  0.23361096074E+03  0.00000000000E+00 0.  1.
         -6    2    1    2    0  503 -0.52784137465E+01  0.32934497547E+02  0.98420448183E+02  0.20107344990E+03  0.17213774964E+03 0.  0.
        -24    2    3    3    0    0  0.22957795929E+02  0.71798124392E+02  0.33156461617E+02  0.11989991375E+03  0.87147044183E+02 0.  0.
          6    2    1    2  501    0  0.52784137465E+01 -0.32934497547E+02 -0.13937161702E+03  0.22519730275E+03  0.17371480868E+03 0.  0.
         24    2    5    5    0    0  0.51211631481E+02 -0.20587700902E+02 -0.22017797216E+02  0.98483795570E+02  0.78535278495E+02 0.  0.
          5    1    5    5  501    0 -0.45933217735E+02 -0.12346796645E+02 -0.11735381980E+03  0.12671350718E+03  0.47000000000E+01 0. -1.
        -13    1    6    6    0    0  0.16430447923E+02  0.27665375581E+02  0.60039223563E+01  0.32731937135E+02  0.00000000000E+00 0.  1.
         14    1    6    6    0    0  0.34781183559E+02 -0.48253076483E+02 -0.28021719572E+02  0.65751858434E+02  0.00000000000E+00 0. -1.
         -5    1    3    3    0  503 -0.28236209675E+02 -0.38863626845E+02  0.65263986566E+02  0.81173536149E+02  0.47000000000E+01 0.  1.
         11    1    4    4    0    0  0.37868868134E+02  0.24884701545E+02 -0.18135640982E+02  0.48807796699E+02  0.00000000000E+00 0. -1.
        -12    1    4    4    0    0 -0.14911072205E+02  0.46913422847E+02  0.51292102600E+02  0.71092117050E+02  0.00000000000E+00 0.  1.
</event>
<event>
12    1  0.1061634E+000  0.2800403E+03  0.7818608E-02  0.1095821E+00
         21   -1    0    0  501  502  0.00000000000E+00  0.00000000000E+00  0.17909017593E+03  0.17909017593E+03  0.00000000000E+00 0.  1.
         21   -1    0    0  502  503 -0.00000000000E+00 -0.00000000000E+00 -0.52538265406E+03  0.52538265406E+03  0.00000000000E+00 0.  1.
         -6    2    1    2    0  503  0.17920077269E+03 -0.12804371416E+03 -0.31861479480E+03  0.42419096045E+03  0.17295801165E+03 0.  0.
        -24    2    3    3    0    0  0.20423700105E+03 -0.12377933668E+03 -0.26835237110E+03  0.36768079427E+03  0.78371516591E+02 0.  0.
          6    2    1    2  501    0 -0.17920077269E+03  0.12804371416E+03 -0.27677683337E+02  0.28028186955E+03  0.17112499109E+03 0.  0.
         24    2    5    5    0    0 -0.20713714843E+02  0.24717081701E+02 -0.28394689581E+02  0.91027689735E+02  0.80248300865E+02 0.  0.
          5    1    5    5  501    0 -0.15848705785E+03  0.10332663246E+03  0.71700624383E+00  0.18925417982E+03  0.47000000000E+01 0. -1.
        -13    1    6    6    0    0 -0.10178542214E+02  0.53679714789E+02 -0.11326904159E+02  0.55797968236E+02  0.00000000000E+00 0.  1.
         14    1    6    6    0    0 -0.10535172629E+02 -0.28962633088E+02 -0.17067785422E+02  0.35229721499E+02  0.00000000000E+00 0. -1.
         -5    1    3    3    0  503 -0.25036228358E+02 -0.42643774758E+01 -0.50262423693E+02  0.56510166175E+02  0.47000000000E+01 0.  1.
         13    1    4    4    0    0  0.50416194450E+02 -0.72273982453E+02 -0.79027782608E+02  0.11836685189E+03  0.00000000000E+00 0. -1.
        -14    1    4    4    0    0  0.15382080660E+03 -0.51505354228E+02 -0.18932458850E+03  0.24931394238E+03  0.00000000000E+00 0.  1.
</event>
<event>
12    1  0.1061634E+000  0.2412980E+03  0.7818608E-02  0.1119306E+00
         21   -1    0    0  501  502  0.00000000000E+00  0.00000000000E+00  0.17739040787E+03  0.17739040787E+03  0.00000000000E+00 0.  1.
         21   -1    0    0  502  503 -0.00000000000E+00 -0.00000000000E+00 -0.33279742182E+03  0.33279742182E+03  0.00000000000E+00 0.  1.
         -6    2    1    2    0  503  0.13001536295E+03  0.10290197030E+03 -0.39432032094E+02  0.24449867660E+03  0.17530518421E+03 0.  0.
        -24    2    3    3    0    0  0.48579659355E+02  0.11108825881E+03  0.68720723826E+01  0.15034481725E+03  0.88632692308E+02 0.  0.
          6    2    1    2  501    0 -0.13001536295E+03 -0.10290197030E+03 -0.11597498185E+03  0.26568915308E+03  0.17218513163E+03 0.  0.
         24    2    5    5    0    0  0.35274474053E+01 -0.45010879581E+02 -0.24866198531E+02  0.93910338964E+02  0.78500966675E+02 0.  0.
          5    1    5    5  501    0 -0.13354281035E+03 -0.57891090720E+02 -0.91108783323E+02  0.17177881412E+03  0.47000000000E+01 0. -1.
        -13    1    6    6    0    0  0.17505671635E+02 -0.51865103537E+02  0.10073727856E+02  0.55658939059E+02  0.00000000000E+00 0.  1.
         14    1    6    6    0    0 -0.13978224230E+02  0.68542239557E+01 -0.34939926387E+02  0.38251399904E+02  0.00000000000E+00 0. -1.
         -5    1    3    3    0  503  0.81435703595E+02 -0.81862885095E+01 -0.46304104477E+02  0.94153859353E+02  0.47000000000E+01 0.  1.
         13    1    4    4    0    0  0.21569142505E+02  0.19694796315E+02  0.39930376068E+02  0.49472697958E+02  0.00000000000E+00 0. -1.
        -14    1    4    4    0    0  0.27010516850E+02  0.91393462496E+02 -0.33058303685E+02  0.10087211929E+03  0.00000000000E+00 0.  1.
</event>
<event>
12    1  0.1061634E+000  0.1979033E+03  0.7818608E-02  0.1151727E+00
         21   -1    0    0  501  502  0.00000000000E+00  0.00000000000E+00  0.35410170315E+02  0.35410170315E+02  0.00000000000E+00 0.  1.
         21   -1    0    0  502  503 -0.00000000000E+00 -0.00000000000E+00 -0.11006922674E+04  0.11006922674E+04  0.00000000000E+00 0.  1.
         -6    2    1    2    0  503  0.91211798380E+02 -0.36418859117E+02 -0.53540570038E+03  0.57081080098E+03  0.17181321560E+03 0.  0.
        -24    2    3    3    0    0 -0.50341473211E+01  0.17446636167E+02 -0.16030080244E+03  0.17979859132E+03  0.79381726012E+02 0.  0.
          6    2    1    2  501    0 -0.91211798380E+02  0.36418859117E+02 -0.52987639668E+03  0.56529163671E+03  0.17070358318E+03 0.  0.
         24    2    5    5    0    0 -0.48680678250E+02 -0.29382701153E+02 -0.41249757971E+03  0.42408746472E+03  0.80391373326E+02 0.  0.
          5    1    5    5  501    0 -0.42531120130E+02  0.65801560269E+02 -0.11737881697E+03  0.14120417199E+03  0.47000000000E+01 0. -1.
        -11    1    6    6    0    0  0.16744351792E+02 -0.25876815306E+02 -0.94117838004E+02  0.99036106132E+02  0.00000000000E+00 0.  1.
         12    1    6    6    0    0 -0.65425030043E+02 -0.35058858462E+01 -0.31837974171E+03  0.32505135859E+03  0.00000000000E+00 0. -1.
         -5    1    3    3    0  503  0.96245945701E+02 -0.53865495284E+02 -0.37510489794E+03  0.39101220966E+03  0.47000000000E+01 0.  1.
         11    1    4    4    0    0 -0.55975714956E+01  0.19585511215E+02 -0.90746994069E+00  0.20389913141E+02  0.00000000000E+00 0. -1.
        -12    1    4    4    0    0  0.56342417459E+00 -0.21388750486E+01 -0.15939333250E+03  0.15940867817E+03  0.00000000000E+00 0.  1.
</event>
<event>
12    1  0.1061634E+000  0.2111424E+03  0.7818608E-02  0.1140834E+00
         21   -1    0    0  503  502  0.00000000000E+00  0.00000000000E+00  0.38655900463E+03  0.38655900463E+03  0.00000000000E+00 0. -1.
         21   -1    0    0  501  503 -0.00000000000E+00 -0.00000000000E+00 -0.15458148391E+03  0.15458148391E+03  0.00000000000E+00 0. -1.
          6    2    1    2  501    0 -0.22609839994E+02  0.12076243182E+03 -0.21343395776E+02  0.21136392010E+03  0.17065871314E+03 0.  0.
         24    2    3    3    0    0  0.89835754723E+01  0.14694376294E+03 -0.39423843142E+01  0.16654772660E+03  0.77778073671E+02 0.  0.
         -6    2    1    2    0  502  0.22609839994E+02 -0.12076243182E+03  0.25332091650E+03  0.32977656844E+03  0.17171583663E+03 0.  0.
        -24    2    5    5    0    0  0.82189844243E+02 -0.82477204459E+02  0.16052464656E+03  0.21294860408E+03  0.77596946302E+02 0.  0.
          5    1    3    3  501    0 -0.31593415466E+02 -0.26181331122E+02 -0.17401011461E+02  0.44816193502E+02  0.47000000000E+01 0. -1.
        -11    1    4    4    0    0 -0.70715020856E+01  0.72582227957E+02  0.35218799818E+02  0.80984874005E+02  0.00000000000E+00 0.  1.
         12    1    4    4    0    0  0.16055077558E+02  0.74361534986E+02 -0.39161184132E+02  0.85562852591E+02  0.00000000000E+00 0. -1.
         -5    1    5    5    0  502 -0.59580004249E+02 -0.38285227362E+02  0.92796269940E+02  0.11682796435E+03  0.47000000000E+01 0.  1.
         11    1    6    6    0    0  0.65876362473E+02 -0.54591245989E+02  0.15905781286E+03  0.18060810365E+03  0.00000000000E+00 0. -1.
        -12    1    6    6    0    0  0.16313481770E+02 -0.27885958470E+02  0.14668336996E+01  0.32340500434E+02  0.00000000000E+00 0.  1.
</event>
<event>
12    1  0.1061634E+000  0.2693945E+03  0.7818608E-02  0.1101974E+00
         21   -1    0    0  503  502  0.00000000000E+00  0.00000000000E+00  0.87694192978E+03  0.87694192978E+03  0.00000000000E+00 0. -1.
         21   -1    0    0  501  503 -0.00000000000E+00 -0.00000000000E+00 -0.82642300388E+02  0.82642300388E+02  0.00000000000E+00 0. -1.
          6    2    1    2  501    0  0.17069989770E+03  0.11835854780E+03  0.35721979891E+03  0.44741410116E+03  0.17154064322E+03 0.  0.
         24    2    3    3    0    0  0.12925533750E+03  0.17198399108E+02  0.25714207892E+03  0.29912833890E+03  0.79705628244E+02 0.  0.
         -6    2    1    2    0  502 -0.17069989770E+03 -0.11835854780E+03  0.43707983048E+03  0.51217012900E+03  0.16772674778E+03 0.  0.
        -24    2    5    5    0    0 -0.93347617885E+02 -0.23776581626E+02  0.12584093531E+03  0.17777386200E+03  0.80551234712E+02 0.  0.
          5    1    3    3  501    0  0.41444560196E+02  0.10116014869E+03  0.10007771999E+03  0.14828576227E+03  0.47000000000E+01 0. -1.
        -11    1    4    4    0    0  0.12704929771E+03  0.21765605850E+02  0.17771868167E+03  0.21954315171E+03  0.00000000000E+00 0.  1.
         12    1    4    4    0    0  0.22060397920E+01 -0.45672067426E+01  0.79423397253E+02  0.79585187191E+02  0.00000000000E+00 0. -1.
         -5    1    5    5    0  502 -0.77352279812E+02 -0.94581966172E+02  0.31123889517E+03  0.33439626700E+03  0.47000000000E+01 0.  1.
         13    1    6    6    0    0 -0.65653698449E+02 -0.19584615099E+02  0.13233767573E+03  0.14902089010E+03  0.00000000000E+00 0. -1.
        -14    1    6    6    0    0 -0.27693919436E+02 -0.41919665274E+01 -0.64967404232E+01  0.28752971902E+02  0.00000000000E+00 0.  1.
</event>
<event>
12    1  0.1061634E+000  0.2998942E+03  0.7818608E-02  0.1085646E+00
         21   -1    0    0  503  502  0.00000000000E+00  0.00000000000E+00  0.13798277364E+04  0.13798277364E+04  0.00000000000E+00 0.  1.
         21   -1    0    0  501  503 -0.00000000000E+00 -0.00000000000E+00 -0.66101656118E+02  0.66101656118E+02  0.00000000000E+00 0.  1.
          6    2    1    2  501    0 -0.19536757378E+02 -0.24368112798E+03  0.54385222713E+03  0.61970768841E+03  0.16882001392E+03 0.  0.
         24    2    3    3    0    0 -0.77882498430E+02 -0.15113016177E+03  0.32522670163E+03  0.37518955565E+03  0.78030672577E+02 0.  0.
         -6    2    1    2    0  502  0.19536757378E+02  0.24368112798E+03  0.76987385317E+03  0.82622170413E+03  0.17370773601E+03 0.  0.
        -24    2    5    5    0    0 -0.10553401468E+02  0.19912321431E+03  0.41660222126E+03  0.46885108244E+03  0.80638067854E+02 0.  0.
          5    1    3    3  501    0  0.58345741052E+02 -0.92550966211E+02  0.21862552550E+03  0.24451813276E+03  0.47000000000E+01 0. -1.
        -11    1    4    4    0    0 -0.13036528269E+02 -0.41518229955E+02  0.16429752808E+03  0.16996291426E+03  0.00000000000E+00 0.  1.
         12    1    4    4    0    0 -0.64845970161E+02 -0.10961193182E+03  0.16092917354E+03  0.20522664140E+03  0.00000000000E+00 0. -1.
         -5    1    5    5    0  502  0.30090158846E+02  0.44557913670E+02  0.35327163191E+03  0.35737062169E+03  0.47000000000E+01 0.  1.
         11    1    6    6    0    0  0.34904826859E+02  0.75343204767E+02  0.15142868560E+03  0.17270087511E+03  0.00000000000E+00 0. -1.
        -12    1    6    6    0    0 -0.45458228327E+02  0.12378000955E+03  0.26517353566E+03  0.29615020733E+03  0.00000000000E+00 0.  1.
</event>
<event>
12    1  0.1061634E+000  0.2176389E+03  0.7818608E-02  0.1135709E+00
         21   -1    0    0  503  502  0.00000000000E+00  0.00000000000E+00  0.32398070598E+02  0.32398070598E+02  0.00000000000E+00 0. -1.
         21   -1    0    0  501  503 -0.00000000000E+00 -0.00000000000E+00 -0.14601281251E+04  0.14601281251E+04  0.00000000000E+00 0. -1.
          6    2    1    2  501    0 -0.10902080002E+03  0.76764099450E+02 -0.71380438585E+03  0.74624620585E+03  0.17201289687E+03 0.  0.
         24    2    3    3    0    0 -0.52824461616E+02  0.94409687643E+02 -0.30824591399E+03  0.33640579871E+03  0.80310055698E+02 0.  0.
         -6    2    1    2    0  502  0.10902080002E+03 -0.76764099450E+02 -0.71392566865E+03  0.74627998984E+03  0.17165576332E+03 0.  0.
        -24    2    5    5    0    0  0.83897174346E+02  0.18219908412E+02 -0.32886330821E+03  0.34885292767E+03  0.78591276447E+02 0.  0.
          5    1    3    3  501    0 -0.56196338408E+02 -0.17645588193E+02 -0.40555847186E+03  0.40984040715E+03  0.47000000000E+01 0. -1.
        -11    1    4    4    0    0 -0.72802896104E+02  0.67592582574E+02 -0.20354491691E+03  0.22649404430E+03  0.00000000000E+00 0.  1.
         12    1    4    4    0    0  0.19978434488E+02  0.26817105070E+02 -0.10470099708E+03  0.10991175441E+03  0.00000000000E+00 0. -1.
         -5    1    5    5    0  502  0.25123625677E+02 -0.94984007862E+02 -0.38506236044E+03  0.39742706217E+03  0.47000000000E+01 0.  1.
         11    1    6    6    0    0  0.57812838003E+02  0.33141606182E+02 -0.11518965755E+03  0.13307647240E+03  0.00000000000E+00 0. -1.
        -12    1    6    6    0    0  0.26084336343E+02 -0.14921697770E+02 -0.21367365066E+03  0.21577645528E+03  0.00000000000E+00 0.  1.
</event>
<event>
12    1  0.1061634E+000  0.2910165E+03  0.7818608E-02  0.1090646E+00
         21   -1    0    0  503  502  0.00000000000E+00  0.00000000000E+00  0.21536390406E+04  0.21536390406E+04  0.00000000000E+00 0. -1.
         21   -1    0    0  501  503 -0.00000000000E+00 -0.00000000000E+00 -0.14980240239E+03  0.14980240239E+03  0.00000000000E+00 0.  1.
          6    2    1    2  501    0  0.19725483838E+03  0.11060263095E+03  0.19975527485E+04  0.20186400391E+04  0.18316170736E+03 0.  0.
         24    2    3    3    0    0  0.39175677034E+02 -0.88410435632E+01  0.50098572815E+03  0.50900738540E+03  0.80553838228E+02 0.  0.
         -6    2    1    2    0  502 -0.19725483838E+03 -0.11060263095E+03  0.62838896858E+01  0.28480140390E+03  0.17300271431E+03 0.  0.
        -24    2    5    5    0    0 -0.88416257033E+02 -0.11932339003E+03  0.35845982817E+02  0.17158525762E+03  0.78109283908E+02 0.  0.
          5    1    3    3  501    0  0.15807916134E+03  0.11944367451E+03  0.14965670204E+04  0.15096326537E+04  0.47000000000E+01 0. -1.
        -13    1    4    4    0    0  0.60614516628E+02  0.80031522632E+01  0.29875693199E+03  0.30494897029E+03  0.00000000000E+00 0.  1.
         14    1    4    4    0    0 -0.21438839594E+02 -0.16844195826E+02  0.20222879617E+03  0.20405841511E+03  0.00000000000E+00 0. -1.
         -5    1    5    5    0  502 -0.10883858134E+03  0.87207590812E+01 -0.29562093131E+02  0.11321614628E+03  0.47000000000E+01 0.  1.
         13    1    6    6    0    0 -0.74460655099E+02 -0.47106044068E+02  0.42322158699E+02  0.97747294911E+02  0.00000000000E+00 0. -1.
        -14    1    6    6    0    0 -0.13955601934E+02 -0.72217345960E+02 -0.64761758817E+01  0.73837962708E+02  0.00000000000E+00 0.  1.
</event>
<event>
12    1  0.1061634E+000  0.1740418E+03  0.7818608E-02  0.1173823E+00
         21   -1    0    0  503  502  0.00000000000E+00  0.00000000000E+00  0.15642781395E+04  0.15642781395E+04  0.00000000000E+00 0. -1.
         21   -1    0    0  501  503 -0.00000000000E+00 -0.00000000000E+00 -0.23786696647E+02  0.23786696647E+02  0.00000000000E+00 0. -1.
          6    2    1    2  501    0 -0.24151539498E+02 -0.11294847568E+02  0.11156637690E+04  0.11291572924E+04  0.17198742687E+03 0.  0.
         24    2    3    3    0    0 -0.40529048303E+02 -0.51968530921E+01  0.11044681906E+04  0.11078772711E+04  0.76631929636E+02 0.  0.
         -6    2    1    2    0  502  0.24151539498E+02  0.11294847568E+02  0.42482767385E+03  0.45890754377E+03  0.17148385004E+03 0.  0.
        -24    2    5    5    0    0 -0.63439515268E+01  0.53236404875E+01  0.41685430390E+03  0.42648386546E+03  0.89735109929E+02 0.  0.
          5    1    3    3  501    0  0.16377508805E+02 -0.60979944759E+01  0.11195578405E+02  0.21280021313E+02  0.47000000000E+01 0. -1.
        -11    1    4    4    0    0 -0.58737375922E+02 -0.17980611942E+01  0.55609623522E+03  0.55919257433E+03  0.00000000000E+00 0.  1.
         12    1    4    4    0    0  0.18208327619E+02 -0.33987918979E+01  0.54837195538E+03  0.54868469673E+03  0.00000000000E+00 0. -1.
         -5    1    5    5    0  502  0.30495491025E+02  0.59712070806E+01  0.79733699483E+01  0.32423678310E+02  0.47000000000E+01 0.  1.
         11    1    6    6    0    0  0.64525304912E+01  0.20337209003E+02  0.20336319887E+02  0.29475466515E+02  0.00000000000E+00 0. -1.
        -12    1    6    6    0    0 -0.12796482018E+02 -0.15013568515E+02  0.39651798401E+03  0.39700839895E+03  0.00000000000E+00 0.  1.
</event>
<event>
12    1  0.1061634E+000  0.1816203E+03  0.7818608E-02  0.1166587E+00
         21   -1    0    0  501  502  0.00000000000E+00  0.00000000000E+00  0.34764199248E+03  0.34764199248E+03  0.00000000000E+00 0.  1.
         21   -1    0    0  502  503 -0.00000000000E+00 -0.00000000000E+00 -0.10225781506E+03  0.10225781506E+03  0.00000000000E+00 0.  1.
         -6    2    1    2    0  503  0.25681830791E+02  0.50145278211E+02  0.58871584529E+02  0.18956757078E+03  0.17116043662E+03 0.  0.
        -24    2    3    3    0    0  0.14366017325E+01 -0.10393835325E+02  0.87002782095E+02  0.11838983777E+03  0.79602600186E+02 0.  0.
          6    2    1    2  501    0 -0.25681830791E+02 -0.50145278211E+02  0.18651259289E+03  0.26033223677E+03  0.17266099975E+03 0.  0.
         24    2    5    5    0    0 -0.16031039950E+02  0.83505296945E+01  0.19999794866E+02  0.83517364059E+02  0.79047028513E+02 0.  0.
          5    1    5    5  501    0 -0.96507908414E+01 -0.58495807906E+02  0.16651279802E+03  0.17681487271E+03  0.47000000000E+01 0. -1.
        -13    1    6    6    0    0  0.16013463473E+01 -0.33111143334E+02  0.19499015127E+02  0.38459377451E+02  0.00000000000E+00 0.  1.
         14    1    6    6    0    0 -0.17632386297E+02  0.41461673028E+02  0.50077973867E+00  0.45057986608E+02  0.00000000000E+00 0. -1.
         -5    1    3    3    0  503  0.24245229059E+02  0.60539113537E+02 -0.28131197566E+02  0.71177733010E+02  0.47000000000E+01 0.  1.
         13    1    4    4    0    0 -0.32625370182E+02  0.15850992119E+02  0.30535056009E+02  0.47413693972E+02  0.00000000000E+00 0. -1.
        -14    1    4    4    0    0  0.34061971914E+02 -0.26244827445E+02  0.56467726087E+02  0.70976143793E+02  0.00000000000E+00 0.  1.
</event>
<event>
12    1  0.1061634E+000  0.2220716E+03  0.7818608E-02  0.1133260E+00
         21   -1    0    0  501  502  0.00000000000E+00  0.00000000000E+00  0.18936279242E+03  0.18936279242E+03  0.00000000000E+00 0. -1.
         21   -1    0    0  502  503 -0.00000000000E+00 -0.00000000000E+00 -0.25895757793E+03  0.25895757793E+03  0.00000000000E+00 0. -1.
         -6    2    1    2    0  503 -0.12765308259E+03 -0.38359710317E+02 -0.57488962388E+01  0.21725310157E+03  0.17146160931E+03 0.  0.
        -24    2    3    3    0    0 -0.10984145993E+03 -0.20749632748E+02 -0.65204565654E+02  0.15256588986E+03  0.80802362515E+02 0.  0.
          6    2    1    2  501    0  0.12765308259E+03  0.38359710317E+02 -0.63845889272E+02  0.23106726877E+03  0.17762040494E+03 0.  0.
         24    2    5    5    0    0  0.13660483105E+03  0.37113307260E+02  0.70846161528E+01  0.15940895508E+03  0.72957149976E+02 0.  0.
          5    1    5    5  501    0 -0.89517484611E+01  0.12464030568E+01 -0.70930505424E+02  0.71658313690E+02  0.47000000000E+01 0. -1.
        -13    1    6    6    0    0  0.10577957108E+03  0.51517699924E+02 -0.15347980796E+02  0.11865475793E+03  0.00000000000E+00 0.  1.
         14    1    6    6    0    0  0.30825259965E+02 -0.14404392663E+02  0.22432596949E+02  0.40754197155E+02  0.00000000000E+00 0. -1.
         -5    1    3    3    0  503 -0.17811622658E+02 -0.17610077569E+02  0.59455669415E+02  0.64687211714E+02  0.47000000000E+01 0.  1.
         11    1    4    4    0    0 -0.92671281949E+02 -0.48240069101E+02 -0.41523617721E+02  0.11242455957E+03  0.00000000000E+00 0. -1.
        -12    1    4    4    0    0 -0.17170177979E+02  0.27490436353E+02 -0.23680947933E+02  0.40141330293E+02  0.00000000000E+00 0.  1.
</event>
<event>
12    1  0.1061634E+000  0.2876991E+03  0.7818608E-02  0.1091622E+00
         21   -1    0    0  501  502  0.00000000000E+00  0.00000000000E+00  0.23060911056E+03  0.23060911056E+03  0.00000000000E+00 0. -1.
         21   -1    0    0  502  503 -0.00000000000E+00 -0.00000000000E+00 -0.36096871105E+03  0.36096871105E+03  0.00000000000E+00 0. -1.
         -6    2    1    2    0  503 -0.22347706192E+03  0.54353518671E+02 -0.90630534261E+02  0.30163660012E+03  0.17284224772E+03 0.  0.
        -24    2    3    3    0    0 -0.11373856769E+03 -0.36512323995E+02 -0.29166703937E+02  0.14639797440E+03  0.79448465720E+02 0.  0.
          6    2    1    2  501    0  0.22347706192E+03 -0.54353518671E+02 -0.39729066234E+02  0.28994122149E+03  0.17202096099E+03 0.  0.
         24    2    5    5    0    0  0.24533995409E+03 -0.56485020305E+02 -0.35260233905E+02  0.26703729572E+03  0.81751957879E+02 0.  0.
          5    1    5    5  501    0 -0.21862892174E+02  0.21315016339E+01 -0.44688323286E+01  0.22903925773E+02  0.47000000000E+01 0. -1.
        -13    1    6    6    0    0  0.18367659239E+03 -0.76553395135E+02 -0.35812368775E+02  0.20218812689E+03  0.00000000000E+00 0.  1.
         14    1    6    6    0    0  0.61663361702E+02  0.20068374829E+02  0.55213486973E+00  0.64849168828E+02  0.00000000000E+00 0. -1.
         -5    1    3    3    0  503 -0.10973849423E+03  0.90865842666E+02 -0.61463830325E+02  0.15523862572E+03  0.47000000000E+01 0.  1.
         13    1    4    4    0    0 -0.10906603030E+03 -0.34722772072E+02 -0.50049541714E+02  0.12492408291E+03  0.00000000000E+00 0. -1.
        -14    1    4    4    0    0 -0.46725373870E+01 -0.17895519232E+01  0.20882837778E+02  0.21473891482E+02  0.00000000000E+00 0.  1.
</event>
<event>
12    1  0.1061634E+000  0.2354975E+03  0.7818608E-02  0.1122913E+00
         21   -1    0    0  503  502  0.00000000000E+00  0.00000000000E+00  0.33223180683E+03  0.33223180683E+03  0.00000000000E+00 0.  1.
         21   -1    0    0  501  503 -0.00000000000E+00 -0.00000000000E+00 -0.16693758802E+03  0.16693758802E+03  0.00000000000E+00 0.  1.
          6    2    1    2  501    0  0.14833661484E+03  0.61825906328E+02  0.71021772877E+02  0.24550357388E+03  0.17146929337E+03 0.  0.
         24    2    3    3    0    0  0.12422774382E+03  0.10564401614E+03  0.63183462903E+02  0.19466270928E+03  0.85488185835E+02 0.  0.
         -6    2    1    2    0  502 -0.14833661484E+03 -0.61825906328E+02  0.94272445930E+02  0.25366582097E+03  0.17214197824E+03 0.  0.
        -24    2    5    5    0    0 -0.97779255169E+02  0.14594806669E+02  0.99867132207E+02  0.16174431910E+03  0.80087386912E+02 0.  0.
          5    1    3    3  501    0  0.24108871025E+02 -0.43818109817E+02  0.78383099743E+01  0.50840864600E+02  0.47000000000E+01 0. -1.
        -13    1    4    4    0    0 -0.50059059999E+01  0.29454142267E+02 -0.42607695297E+01  0.30178796340E+02  0.00000000000E+00 0.  1.
         14    1    4    4    0    0  0.12923364982E+03  0.76189873878E+02  0.67444232432E+02  0.16448391294E+03  0.00000000000E+00 0. -1.
         -5    1    5    5    0  502 -0.50557359672E+02 -0.76420712997E+02 -0.55946862778E+01  0.91921501872E+02  0.47000000000E+01 0.  1.
         13    1    6    6    0    0 -0.59643667317E+02  0.62582769469E+01  0.62271840106E+01  0.60293539472E+02  0.00000000000E+00 0. -1.
        -14    1    6    6    0    0 -0.38135587852E+02  0.83365297218E+01  0.93639948197E+02  0.10145077963E+03  0.00000000000E+00 0.  1.
</event>
<event>
12    1  0.1061634E+000  0.1888267E+03  0.7818608E-02  0.1160203E+00
         21   -1    0    0  503  502  0.00000000000E+00  0.00000000000E+00  0.39127533555E+03  0.39127533555E+03  0.00000000000E+00 0. -1.
         21   -1    0    0  501  503 -0.00000000000E+00 -0.00000000000E+00 -0.10105217036E+03  0.10105217036E+03  0.00000000000E+00 0. -1.
          6    2    1    2  501    0  0.32783772292E+02 -0.65561823349E+02  0.22659141620E+03  0.29306760674E+03  0.17079761071E+03 0.  0.
         24    2    3    3    0    0  0.72300437758E+02 -0.23387073377E+02  0.19387507831E+03  0.22648889281E+03  0.89080660494E+02 0.  0.
         -6    2    1    2    0  502 -0.32783772292E+02  0.65561823349E+02  0.63631748995E+02  0.19925989917E+03  0.17401833102E+03 0.  0.
        -24    2    5    5    0    0 -0.87962003300E+02  0.46796675569E+02  0.57889707918E+02  0.14050763127E+03  0.80398590112E+02 0.  0.
          5    1    3    3  501    0 -0.39516665466E+02 -0.42174749973E+02  0.32716337883E+02  0.66578713936E+02  0.47000000000E+01 0. -1.
        -11    1    4    4    0    0  0.53220793383E+02 -0.30565367435E+02  0.19656809974E+03  0.20592647322E+03  0.00000000000E+00 0.  1.
         12    1    4    4    0    0  0.19079644375E+02  0.71782940586E+01 -0.26930214303E+01  0.20562419593E+02  0.00000000000E+00 0. -1.
         -5    1    5    5    0  502  0.55178231008E+02  0.18765147780E+02  0.57420410773E+01  0.58752267906E+02  0.47000000000E+01 0.  1.
         13    1    6    6    0    0  0.12977751319E+02 -0.50984276747E+01  0.10762037205E+02  0.17613558381E+02  0.00000000000E+00 0. -1.
        -14    1    6    6    0    0 -0.10093975462E+03  0.51895103244E+02  0.47127670713E+02  0.12289407288E+03  0.00000000000E+00 0.  1.
</event>
<event>
12    1  0.1061634E+000  0.1743128E+03  0.7818608E-02  0.1173656E+00
         21   -1    0    0  503  502  0.00000000000E+00  0.00000000000E+00  0.41488492889E+03  0.41488492889E+03  0.00000000000E+00 0.  1.
         21   -1    0    0  501  503 -0.00000000000E+00 -0.00000000000E+00 -0.75578567594E+02  0.75578567594E+02  0.00000000000E+00 0.  1.
          6    2    1    2  501    0 -0.14376586846E+02 -0.21975236193E+02  0.12349756934E+03  0.21362723918E+03  0.17232338910E+03 0.  0.
         24    2    3    3    0    0 -0.19498130365E+02 -0.47947070000E+02  0.14866147876E+03  0.17680226536E+03  0.80496628242E+02 0.  0.
         -6    2    1    2    0  502  0.14376586846E+02  0.21975236193E+02  0.21580879195E+03  0.27683625730E+03  0.17139218598E+03 0.  0.
        -24    2    5    5    0    0  0.27269537162E+02 -0.41489003685E+02  0.72029327532E+02  0.11907516482E+03  0.80781840586E+02 0.  0.
          5    1    3    3  501    0  0.51215435188E+01  0.25971833807E+02 -0.25163909425E+02  0.36824973821E+02  0.47000000000E+01 0. -1.
        -13    1    4    4    0    0 -0.32249289909E+02 -0.25426447295E+02  0.20212159036E+02  0.45771741223E+02  0.00000000000E+00 0.  1.
         14    1    4    4    0    0  0.12751159544E+02 -0.22520622705E+02  0.12844931973E+03  0.13103052414E+03  0.00000000000E+00 0. -1.
         -5    1    5    5    0  502 -0.12892950316E+02  0.63464239878E+02  0.14377946442E+03  0.15776109248E+03  0.47000000000E+01 0.  1.
         13    1    6    6    0    0 -0.51955792006E+01 -0.26178657492E+02  0.78222786952E+02  0.82650593161E+02  0.00000000000E+00 0. -1.
        -14    1    6    6    0    0  0.32465116362E+02 -0.15310346194E+02 -0.61934594199E+01  0.36424571660E+02  0.00000000000E+00 0.  1.
</event>
<event>
12    1  0.1061634E+000  0.1734857E+03  0.7818608E-02  0.1175556E+00
         21   -1    0    0  503  502  0.00000000000E+00  0.00000000000E+00  0.25731799887E+03  0.25731799887E+03  0.00000000000E+00 0.  1.
         21   -1    0    0  501  503 -0.00000000000E+00 -0.00000000000E+00 -0.11428117594E+03  0.11428117594E+03  0.00000000000E+00 0.  1.
          6    2    1    2  501    0 -0.26047347805E+02  0.16203836962E+01  0.58275251158E+02  0.18301172725E+03  0.17151150819E+03 0.  0.
         24    2    3    3    0    0  0.16316389954E+02  0.59730163630E+02  0.33977870421E+02  0.10695986658E+03  0.80324344702E+02 0.  0.
         -6    2    1    2    0  502  0.26047347805E+02 -0.16203836962E+01  0.84761571769E+02  0.18858744756E+03  0.16643200220E+03 0.  0.
        -24    2    5    5    0    0  0.43019168656E+02 -0.38876219547E+02  0.10381641899E+03  0.14318681749E+03  0.79765948456E+02 0.  0.
          5    1    3    3  501    0 -0.42363737759E+02 -0.58109779934E+02  0.24297380736E+02  0.76051860671E+02  0.47000000000E+01 0. -1.
        -13    1    4    4    0    0  0.45651605964E+01  0.64170572650E+02  0.53549614838E+02  0.83703430842E+02  0.00000000000E+00 0.  1.
         14    1    4    4    0    0  0.11751229358E+02 -0.44404090197E+01 -0.19571744416E+02  0.23256435737E+02  0.00000000000E+00 0. -1.
         -5    1    5    5    0  502 -0.16971820851E+02  0.37255835851E+02 -0.19054847221E+02  0.45400630068E+02  0.47000000000E+01 0.  1.
         11    1    6    6    0    0  0.40376871512E+02 -0.19453091702E+02  0.11298266406E+03  0.12154750885E+03  0.00000000000E+00 0. -1.
        -12    1    6    6    0    0  0.26422971443E+01 -0.19423127845E+02 -0.91662450739E+01  0.21639308636E+02  0.00000000000E+00 0.  1.
</event>
<event>
12    1  0.1061634E+000  0.1813455E+03  0.7818608E-02  0.1167240E+00
         21   -1    0    0  503  502  0.00000000000E+00  0.00000000000E+00  0.58752109270E+02  0.58752109270E+02  0.00000000000E+00 0.  1.
         21   -1    0    0  501  503 -0.00000000000E+00 -0.00000000000E+00 -0.61371692623E+03  0.61371692623E+03  0.00000000000E+00 0.  1.
          6    2    1    2  501    0 -0.10812636030E+02  0.57124879407E+02 -0.38335475098E+03  0.42279686871E+03  0.16857094099E+03 0.  0.
         24    2    3    3    0    0 -0.14147729883E+02  0.51352303854E+02 -0.39642846625E+03  0.40738721230E+03  0.77276092826E+02 0.  0.
         -6    2    1    2    0  502  0.10812636030E+02 -0.57124879407E+02 -0.17161006598E+03  0.24967216679E+03  0.17177313870E+03 0.  0.
        -24    2    5    5    0    0  0.11209247401E+02 -0.14157414054E+02 -0.18658960272E+03  0.20392463243E+03  0.80271391338E+02 0.  0.
          5    1    3    3  501    0  0.33350938535E+01  0.57725755525E+01  0.13073715272E+02  0.15409656405E+02  0.47000000000E+01 0. -1.
        -13    1    4    4    0    0  0.18373385620E+02  0.19699267837E+02 -0.29549838689E+03  0.29672367467E+03  0.00000000000E+00 0.  1.
         14    1    4    4    0    0 -0.32521115504E+02  0.31653036017E+02 -0.10093007936E+03  0.11066353763E+03  0.00000000000E+00 0. -1.
         -5    1    5    5    0  502 -0.39661137177E+00 -0.42967465353E+02  0.14979536740E+02  0.45747534364E+02  0.47000000000E+01 0.  1.
         13    1    6    6    0    0 -0.26676701146E+02 -0.23557741594E+02 -0.13265706472E+03  0.13734813575E+03  0.00000000000E+00 0. -1.
        -14    1    6    6    0    0  0.37885948547E+02  0.94003275400E+01 -0.53932538005E+02  0.66576496685E+02  0.00000000000E+00 0.  1.
</event>
<event>
12    1  0.1061634E+000  0.1870484E+03  0.7818608E-02  0.1161342E+00
         21   -1    0    0  503  502  0.00000000000E+00  0.00000000000E+00  0.63852590785E+03  0.63852590785E+03  0.00000000000E+00 0. -1.
         21   -1    0    0  501  503 -0.00000000000E+00 -0.00000000000E+00 -0.72038325602E+02  0.72038325602E+02  0.00000000000E+00 0. -1.
          6    2    1    2  501    0 -0.70454463634E+02 -0.14106778531E+02  0.45781255902E+03  0.49423722272E+03  0.17180005959E+03 0.  0.
         24    2    3    3    0    0  0.27026365442E+02 -0.25404380367E+02  0.21644751568E+03  0.23364305165E+03  0.79773062942E+02 0.  0.
         -6    2    1    2    0  502  0.70454463634E+02  0.14106778531E+02  0.10867502323E+03  0.21632701074E+03  0.17269708236E+03 0.  0.
        -24    2    5    5    0    0  0.44090164668E+02 -0.56591265983E+02  0.74256335345E+02  0.13326061661E+03  0.84248884821E+02 0.  0.
          5    1    3    3  501    0 -0.97480829076E+02  0.11297601836E+02  0.24136504334E+03  0.26059417106E+03  0.47000000000E+01 0. -1.
        -11    1    4    4    0    0 -0.69987422386E+01 -0.15028724931E+02  0.18623748379E+03  0.18697391619E+03  0.00000000000E+00 0.  1.
         12    1    4    4    0    0  0.34025107680E+02 -0.10375655437E+02  0.30210031890E+02  0.46669135466E+02  0.00000000000E+00 0. -1.
         -5    1    5    5    0  502  0.26364298966E+02  0.70698044514E+02  0.34418687880E+02  0.83066394128E+02  0.47000000000E+01 0.  1.
         11    1    6    6    0    0 -0.10958032422E+02 -0.18670870893E+02  0.61513393046E+02  0.65211788954E+02  0.00000000000E+00 0. -1.
        -12    1    6    6    0    0  0.55048197090E+02 -0.37920395089E+02  0.12742942299E+02  0.68048827653E+02  0.00000000000E+00 0.  1.
</event>
<event>
12    1  0.1061634E+000  0.2390650E+03  0.7818608E-02  0.1120421E+00
         21   -1    0    0  503  502  0.00000000000E+00  0.00000000000E+00  0.76686849856E+03  0.76686849856E+03  0.00000000000E+00 0. -1.
         21   -1    0    0  501  503 -0.00000000000E+00 -0.00000000000E+00 -0.74521952187E+02  0.74521952187E+02  0.00000000000E+00 0. -1.
          6    2    1    2  501    0 -0.15543152084E+03 -0.55060403504E+02  0.34890001456E+03  0.42293187181E+03  0.17305936072E+03 0.  0.
         24    2    3    3    0    0 -0.10632089212E+03 -0.25328145664E+02  0.33820383928E+03  0.36434553232E+03  0.80126044149E+02 0.  0.
         -6    2    1    2    0  502  0.15543152084E+03  0.55060403504E+02  0.34344653182E+03  0.41845857894E+03  0.17309377910E+03 0.  0.
        -24    2    5    5    0    0  0.88330264210E+02  0.34739295384E+02  0.32405376733E+03  0.34556348040E+03  0.73445358217E+02 0.  0.
          5    1    3    3  501    0 -0.49110628724E+02 -0.29732257840E+02  0.10696175275E+02  0.58586339495E+02  0.47000000000E+01 0. -1.
        -13    1    4    4    0    0 -0.82738728651E+02  0.19370960029E+02  0.21039402473E+03  0.22690653793E+03  0.00000000000E+00 0.  1.
         14    1    4    4    0    0 -0.23582163465E+02 -0.44699105693E+02  0.12780981455E+03  0.13743899439E+03  0.00000000000E+00 0. -1.
         -5    1    5    5    0  502  0.67101256629E+02  0.20321108120E+02  0.19392764486E+02  0.72895098538E+02  0.47000000000E+01 0.  1.
         13    1    6    6    0    0  0.16117348895E+02 -0.21399949631E+02  0.51181718636E+02  0.57769326655E+02  0.00000000000E+00 0. -1.
        -14    1    6    6    0    0  0.72212915314E+02  0.56139245016E+02  0.27287204870E+03  0.28779415374E+03  0.00000000000E+00 0.  1.
</event>
<event>
12    1  0.1061634E+000  0.2611577E+03  0.7818608E-02  0.1106476E+00
         21   -1    0    0  501  502  0.00000000000E+00  0.00000000000E+00  0.41781732529E+03  0.41781732529E+03  0.00000000000E+00 0.  1.
         21   -1    0    0  502  503 -0.00000000000E+00 -0.00000000000E+00 -0.16627333030E+03  0.16627333030E+03  0.00000000000E+00 0.  1.
         -6    2    1    2    0  503 -0.15915681788E+03  0.11417400475E+03  0.85646397350E+02  0.27484298661E+03  0.17273322168E+03 0.  0.
        -24    2    3    3    0    0 -0.54123301946E+02  0.57190863926E+02  0.10509656696E+03  0.15368393039E+03  0.79833171943E+02 0.  0.
          6    2    1    2  501    0  0.15915681788E+03 -0.11417400475E+03  0.16589759764E+03  0.30924766897E+03  0.17246887205E+03 0.  0.
         24    2    5    5    0    0  0.11532435375E+03 -0.11387594587E+03  0.18712676481E+03  0.26031770587E+03  0.80507417449E+02 0.  0.
          5    1    5    5  501    0  0.43832464130E+02 -0.29805887810E+00 -0.21229167173E+02  0.48929963107E+02  0.47000000000E+01 0. -1.
        -13    1    6    6    0    0 -0.37612344230E+01 -0.29700988451E+01  0.42002995943E+02  0.42275525304E+02  0.00000000000E+00 0.  1.
         14    1    6    6    0    0  0.11908558817E+03 -0.11090584703E+03  0.14512376887E+03  0.21804218056E+03  0.00000000000E+00 0. -1.
         -5    1    3    3    0  503 -0.10503351593E+03  0.56983140825E+02 -0.19450169608E+02  0.12115905622E+03  0.47000000000E+01 0.  1.
         11    1    4    4    0    0 -0.53444428877E+02  0.61904164833E+02  0.44896694204E+02  0.93296011448E+02  0.00000000000E+00 0. -1.
        -12    1    4    4    0    0 -0.67887306963E+00 -0.47133009077E+01  0.60199872754E+02  0.60387918938E+02  0.00000000000E+00 0.  1.
</event>
<event>
12    1  0.1061634E+000  0.1740800E+03  0.7818608E-02  0.1173679E+00
         21   -1    0    0  503  502  0.00000000000E+00  0.00000000000E+00  0.68838159271E+02  0.68838159271E+02  0.00000000000E+00 0.  1.
         21   -1    0    0  501  503 -0.00000000000E+00 -0.00000000000E+00 -0.45809189260E+03  0.45809189260E+03  0.00000000000E+00 0.  1.
          6    2    1    2  501    0  0.26260250193E+02  0.34810412250E+00 -0.24691877259E+03  0.30206764840E+03  0.17200657555E+03 0.  0.
         24    2    3    3    0    0 -0.24511191350E+02  0.51924739469E+02 -0.12073622807E+03  0.15652723087E+03  0.81403686441E+02 0.  0.
         -6    2    1    2    0  502 -0.26260250193E+02 -0.34810412250E+00 -0.14233496073E+03  0.22486240347E+03  0.17208758680E+03 0.  0.
        -24    2    5    5    0    0  0.42357163398E+02  0.27461686261E+02 -0.50893845877E+02  0.10711138914E+03  0.79588897673E+02 0.  0.
          5    1    3    3  501    0  0.50771441543E+02 -0.51576635347E+02 -0.12618254452E+03  0.14554041752E+03  0.47000000000E+01 0. -1.
        -11    1    4    4    0    0  0.43055335551E+01  0.27462086335E+02 -0.11497903081E+03  0.11829150997E+03  0.00000000000E+00 0.  1.
         12    1    4    4    0    0 -0.28816724905E+02  0.24462653134E+02 -0.57571972578E+01  0.38235720902E+02  0.00000000000E+00 0. -1.
         -5    1    5    5    0  502 -0.68617413591E+02 -0.27809790384E+02 -0.91441114855E+02  0.11775101433E+03  0.47000000000E+01 0.  1.
         11    1    6    6    0    0 -0.11317695234E+02 -0.10992231756E+02 -0.36170621785E+02  0.39461795001E+02  0.00000000000E+00 0. -1.
        -12    1    6    6    0    0  0.53674858632E+02  0.38453918018E+02 -0.14723224092E+02  0.67649594143E+02  0.00000000000E+00 0.  1.
</event>
<event>
12    1  0.1061634E+000  0.1963515E+03  0.7818608E-02  0.1153263E+00
         21   -1    0    0  501  502  0.00000000000E+00  0.00000000000E+00  0.29584941515E+03  0.29584941515E+03  0.00000000000E+00 0. -1.
         21   -1    0    0  502  503 -0.00000000000E+00 -0.00000000000E+00 -0.20676534306E+03  0.20676534306E+03  0.00000000000E+00 0. -1.
         -6    2    1    2    0  503  0.11478623899E+02 -0.89659339879E+02  0.19872539883E+03  0.27936658352E+03  0.17430819777E+03 0.  0.
        -24    2    3    3    0    0  0.10421043200E+02 -0.77142091970E+02  0.40315633671E+02  0.12039003282E+03  0.82516114729E+02 0.  0.
          6    2    1    2  501    0 -0.11478623899E+02  0.89659339879E+02 -0.10964132675E+03  0.22324817470E+03  0.17218586161E+03 0.  0.
         24    2    5    5    0    0  0.39496424845E+02 -0.75415708040E+00 -0.56957979403E+02  0.10675490830E+03  0.81190286987E+02 0.  0.
          5    1    5    5  501    0 -0.50975048743E+02  0.90413496960E+02 -0.52683347345E+02  0.11649326639E+03  0.47000000000E+01 0. -1.
        -13    1    6    6    0    0 -0.13481008411E+02  0.84193572942E+01 -0.50091209069E+02  0.52552377597E+02  0.00000000000E+00 0.  1.
         14    1    6    6    0    0  0.52977433256E+02 -0.91735143746E+01 -0.68667703337E+01  0.54202530708E+02  0.00000000000E+00 0. -1.
         -5    1    3    3    0  503  0.10575806985E+01 -0.12517247909E+02  0.15840976516E+03  0.15897655069E+03  0.47000000000E+01 0.  1.
         11    1    4    4    0    0  0.13577873880E+02  0.96225055540E+01 -0.10608493070E+02  0.19735536412E+02  0.00000000000E+00 0. -1.
        -12    1    4    4    0    0 -0.31568306802E+01 -0.86764597524E+02  0.50924126741E+02  0.10065449641E+03  0.00000000000E+00 0.  1.
</event>
<event>
12    1  0.1061634E+000  0.2081548E+03  0.7818608E-02  0.1147028E+00
         21   -1    0    0  501  502  0.00000000000E+00  0.00000000000E+00  0.36936906955E+03  0.36936906955E+03  0.00000000000E+00 0.  1.
         21   -1    0    0  502  503 -0.00000000000E+00 -0.00000000000E+00 -0.13725833141E+03  0.13725833141E+03  0.00000000000E+00 0.  1.
         -6    2    1    2    0  503  0.66097024836E+02  0.37798432275E+02  0.23945177294E+03  0.31727840086E+03  0.19372891863E+03 0.  0.
        -24    2    3    3    0    0  0.57485675647E+02  0.98264692660E+02  0.20235256310E+03  0.24566300203E+03  0.80269533715E+02 0.  0.
          6    2    1    2  501    0 -0.66097024836E+02 -0.37798432275E+02 -0.73410347956E+01  0.18934900010E+03  0.17320974243E+03 0.  0.
         24    2    5    5    0    0 -0.10934570438E+03 -0.47881500715E+02 -0.14248773860E+02  0.14416135345E+03  0.79563478399E+02 0.  0.
          5    1    5    5  501    0  0.43248679540E+02  0.10083068440E+02  0.69077390640E+01  0.45187646654E+02  0.47000000000E+01 0. -1.
        -13    1    6    6    0    0 -0.70886843107E+02 -0.22873613204E+01  0.22128479561E+02  0.74295667136E+02  0.00000000000E+00 0.  1.
         14    1    6    6    0    0 -0.38458861268E+02 -0.45594139395E+02 -0.36377253421E+02  0.69865686310E+02  0.00000000000E+00 0. -1.
         -5    1    3    3    0  503  0.86113491884E+01 -0.60466260385E+02  0.37099209841E+02  0.71615398837E+02  0.47000000000E+01 0.  1.
         11    1    4    4    0    0  0.44570864957E+02  0.97387659998E+02  0.11419910768E+03  0.15656421851E+03  0.00000000000E+00 0. -1.
        -12    1    4    4    0    0  0.12914810690E+02  0.87703266153E+00  0.88153455417E+02  0.89098783513E+02  0.00000000000E+00 0.  1.
</event>
<event>
12    1  0.1061634E+000  0.2311299E+03  0.7818608E-02  0.1125894E+00
         21   -1    0    0  501  502  0.00000000000E+00  0.00000000000E+00  0.74301516099E+03  0.74301516099E+03  0.00000000000E+00 0. -1.
         21   -1    0    0  502  503 -0.00000000000E+00 -0.00000000000E+00 -0.85655603401E+02  0.85655603401E+02  0.00000000000E+00 0. -1.
         -6    2    1    2    0  503  0.12971038601E+03  0.83363140218E+02  0.16227934163E+03  0.28241037341E+03  0.17218256852E+03 0.  0.
        -24    2    3    3    0    0  0.58459337034E+02 -0.19558221816E+02  0.43355585619E+02  0.10968380195E+03  0.79691978767E+02 0.  0.
          6    2    1    2  501    0 -0.12971038601E+03 -0.83363140218E+02  0.49508021597E+03  0.54626039099E+03  0.17181908257E+03 0.  0.
         24    2    5    5    0    0 -0.10145845944E+03 -0.21997668298E+02  0.16275373771E+03  0.20710427553E+03  0.75004569217E+02 0.  0.
          5    1    5    5  501    0 -0.28251926569E+02 -0.61365471921E+02  0.33232647826E+03  0.33915611546E+03  0.47000000000E+01 0. -1.
        -11    1    6    6    0    0 -0.61466264127E+02 -0.33414608880E+02  0.14669071747E+03  0.16252016583E+03  0.00000000000E+00 0.  1.
         12    1    6    6    0    0 -0.39992195312E+02  0.11416940582E+02  0.16063020240E+02  0.44584109696E+02  0.00000000000E+00 0. -1.
         -5    1    3    3    0  503  0.71251048974E+02  0.10292136203E+03  0.11892375601E+03  0.17272657145E+03  0.47000000000E+01 0.  1.
         11    1    4    4    0    0  0.99604959957E+01  0.90203548735E+01 -0.20529094200E+02  0.24536136436E+02  0.00000000000E+00 0. -1.
        -12    1    4    4    0    0  0.48498841039E+02 -0.28578576689E+02  0.63884679819E+02  0.85147665519E+02  0.00000000000E+00 0.  1.
</event>
<event>
12    1  0.1061634E+000  0.2542183E+03  0.7818608E-02  0.1110926E+00
         21   -1    0    0  501  502  0.00000000000E+00  0.00000000000E+00  0.69226567778E+03  0.69226567778E+03  0.00000000000E+00 0. -1.
         21   -1    0    0  502  503 -0.00000000000E+00 -0.00000000000E+00 -0.99902670537E+02  0.99902670537E+02  0.00000000000E+00 0. -1.
         -6    2    1    2    0  503 -0.18606483760E+03  0.25020532247E+02  0.19106936907E+03  0.31801641930E+03  0.17140825044E+03 0.  0.
        -24    2    3    3    0    0 -0.18386562357E+03  0.11981765528E+02  0.96630933710E+02  0.22254100857E+03  0.78973621617E+02 0.  0.
          6    2    1    2  501    0  0.18606483760E+03 -0.25020532247E+02  0.40129363818E+03  0.47415192902E+03  0.16892991721E+03 0.  0.
         24    2    5    5    0    0  0.12402000043E+03 -0.27715655786E+02  0.14267694793E+03  0.20814157587E+03  0.82565646921E+02 0.  0.
          5    1    5    5  501    0  0.62044837170E+02  0.26951235387E+01  0.25861669024E+03  0.26601035315E+03  0.47000000000E+01 0. -1.
        -13    1    6    6    0    0  0.14870219641E+01 -0.39877771233E+01 -0.10043779058E+02  0.10908304106E+02  0.00000000000E+00 0.  1.
         14    1    6    6    0    0  0.12253297847E+03 -0.23727878663E+02  0.15272072699E+03  0.19723327176E+03  0.00000000000E+00 0. -1.
         -5    1    3    3    0  503 -0.21992140326E+01  0.13038766719E+02  0.94438435358E+02  0.95475410724E+02  0.47000000000E+01 0.  1.
         13    1    4    4    0    0  0.57365838417E+01  0.24973038800E+01 -0.42486219718E+01  0.75627845072E+01  0.00000000000E+00 0. -1.
        -14    1    4    4    0    0 -0.18960220741E+03  0.94844616477E+01  0.10087955568E+03  0.21497822407E+03  0.00000000000E+00 0.  1.
</event>
<event>
12    1  0.1061634E+000  0.1812867E+03  0.7818608E-02  0.1166769E+00
         21   -1    0    0  503  502  0.00000000000E+00  0.00000000000E+00  0.86065325859E+02  0.86065325859E+02  0.00000000000E+00 0.  1.
         21   -1    0    0  501  503 -0.00000000000E+00 -0.00000000000E+00 -0.39171917105E+03  0.39171917105E+03  0.00000000000E+00 0.  1.
          6    2    1    2  501    0 -0.52521884532E+02 -0.16652610294E+02 -0.11125866350E+03  0.21197563863E+03  0.17181188372E+03 0.  0.
         24    2    3    3    0    0  0.17312122029E+02  0.25385496025E+02 -0.24914339037E+02  0.93142043966E+02  0.84324273415E+02 0.  0.
         -6    2    1    2    0  502  0.52521884532E+02  0.16652610294E+02 -0.19439518170E+03  0.26580885828E+03  0.17271075441E+03 0.  0.
        -24    2    5    5    0    0  0.48033603812E+02  0.71954141319E+02 -0.16506911509E+03  0.20287625798E+03  0.80164441915E+02 0.  0.
          5    1    3    3  501    0 -0.69834006562E+02 -0.42038106319E+02 -0.86344324459E+02  0.11883359467E+03  0.47000000000E+01 0. -1.
        -13    1    4    4    0    0  0.12370437983E+02 -0.36338468967E+01 -0.51735868076E+02  0.53318220383E+02  0.00000000000E+00 0.  1.
         14    1    4    4    0    0  0.49416840462E+01  0.29019342921E+02  0.26821529039E+02  0.39823823583E+02  0.00000000000E+00 0. -1.
         -5    1    5    5    0  502  0.44882807199E+01 -0.55301531025E+02 -0.29326066607E+02  0.62932600297E+02  0.47000000000E+01 0.  1.
         11    1    6    6    0    0  0.14404292312E+02 -0.16360760736E+02 -0.45664767401E+02  0.50600682907E+02  0.00000000000E+00 0. -1.
        -12    1    6    6    0    0  0.33629311500E+02  0.88314902055E+02 -0.11940434769E+03  0.15227557508E+03  0.00000000000E+00 0.  1.
</event>
<event>
12    1  0.1061634E+000  0.2107851E+03  0.7818608E-02  0.1141096E+00
         21   -1    0    0  501  502  0.00000000000E+00  0.00000000000E+00  0.23237986067E+03  0.23237986067E+03  0.00000000000E+00 0. -1.
         21   -1    0    0  502  503 -0.00000000000E+00 -0.00000000000E+00 -0.56268606494E+03  0.56268606494E+03  0.00000000000E+00 0.  1.
         -6    2    1    2    0  503  0.57126464857E+02  0.10617615264E+03 -0.48856044353E+03  0.53209178456E+03  0.17289751833E+03 0.  0.
        -24    2    3    3    0    0  0.18276154473E+02  0.13128483781E+03 -0.42991443539E+03  0.45725037251E+03  0.81742002333E+02 0.  0.
          6    2    1    2  501    0 -0.57126464857E+02 -0.10617615264E+03  0.15825423925E+03  0.26297414105E+03  0.17197146927E+03 0.  0.
         24    2    5    5    0    0  0.22929109888E+02 -0.82518005096E+02  0.12965349767E+03  0.17460731802E+03  0.79641200407E+02 0.  0.
          5    1    5    5  501    0 -0.80055574745E+02 -0.23658147547E+02  0.28600741576E+02  0.88366823027E+02  0.47000000000E+01 0. -1.
        -13    1    6    6    0    0  0.49128902983E+02 -0.28754446887E+02  0.57894115341E+02  0.81192339017E+02  0.00000000000E+00 0.  1.
         14    1    6    6    0    0 -0.26199793094E+02 -0.53763558210E+02  0.71759382333E+02  0.93414979004E+02  0.00000000000E+00 0. -1.
         -5    1    3    3    0  503  0.38850310385E+02 -0.25108685162E+02 -0.58646008135E+02  0.74841412050E+02  0.47000000000E+01 0.  1.
         11    1    4    4    0    0 -0.16666573255E+02  0.96150293209E+02 -0.20635743242E+03  0.22826748227E+03  0.00000000000E+00 0. -1.
        -12    1    4    4    0    0  0.34942727728E+02  0.35134544596E+02 -0.22355700297E+03  0.22898289024E+03  0.00000000000E+00 0.  1.
</event>
<event>
12    1  0.1061634E+000  0.2446499E+03  0.7818608E-02  0.1118169E+00
         21   -1    0    0  503  502  0.00000000000E+00  0.00000000000E+00  0.92936738044E+03  0.92936738044E+03  0.00000000000E+00 0. -1.
         21   -1    0    0  501  503 -0.00000000000E+00 -0.00000000000E+00 -0.67536477361E+02  0.67536477361E+02  0.00000000000E+00 0. -1.
          6    2    1    2  501    0  0.73300541863E+02 -0.15596153545E+03  0.57893102163E+03  0.62850195480E+03  0.17365658469E+03 0.  0.
         24    2    3    3    0    0  0.11339355548E+03 -0.14869720479E+03  0.48088037150E+03  0.52221818260E+03  0.80603606726E+02 0.  0.
         -6    2    1    2    0  502 -0.73300541863E+02  0.15596153545E+03  0.28289988145E+03  0.36840190300E+03  0.16121615686E+03 0.  0.
        -24    2    5    5    0    0 -0.26703432601E+02  0.14871342454E+03  0.27018642631E+03  0.31933513579E+03  0.78393035616E+02 0.  0.
          5    1    3    3  501    0 -0.40093013612E+02 -0.72643306607E+01  0.98050650138E+02  0.10628377220E+03  0.47000000000E+01 0. -1.
        -11    1    4    4    0    0  0.11243693142E+03 -0.90949966118E+02  0.31613686146E+03  0.34764417880E+03  0.00000000000E+00 0.  1.
         12    1    4    4    0    0  0.95662406026E+00 -0.57747238670E+02  0.16474351004E+03  0.17457400380E+03  0.00000000000E+00 0. -1.
         -5    1    5    5    0  502 -0.46597109262E+02  0.72481109074E+01  0.12713455137E+02  0.49066767214E+02  0.47000000000E+01 0.  1.
         13    1    6    6    0    0 -0.33017712277E+01  0.64869756744E+01 -0.48992657816E+01  0.87741296913E+01  0.00000000000E+00 0. -1.
        -14    1    6    6    0    0 -0.23401661373E+02  0.14222644887E+03  0.27508569209E+03  0.31056100609E+03  0.00000000000E+00 0.  1.
</event>
<event>
12    1  0.1061634E+000  0.2034216E+03  0.7818608E-02  0.1147245E+00
         21   -1    0    0  501  502  0.00000000000E+00  0.00000000000E+00  0.77013564841E+03  0.77013564841E+03  0.00000000000E+00 0.  1.
         21   -1    0    0  502  503 -0.00000000000E+00 -0.00000000000E+00 -0.54788748571E+02  0.54788748571E+02  0.00000000000E+00 0.  1.
         -6    2    1    2    0  503  0.30669614262E+02 -0.10114401941E+03  0.42481378505E+03  0.47025578382E+03  0.17176440944E+03 0.  0.
        -24    2    3    3    0    0  0.48632432828E+02  0.29187061690E+01  0.16649948232E+03  0.19114992093E+03  0.80265698093E+02 0.  0.
          6    2    1    2  501    0 -0.30669614262E+02  0.10114401941E+03  0.29053311480E+03  0.35466861317E+03  0.17380908051E+03 0.  0.
         24    2    5    5    0    0  0.89525227445E+01  0.20734971894E+02  0.48209629239E+02  0.96253655554E+02  0.80190467846E+02 0.  0.
          5    1    5    5  501    0 -0.39622137006E+02  0.80409047519E+02  0.24232348556E+03  0.25841495761E+03  0.47000000000E+01 0. -1.
        -13    1    6    6    0    0  0.16691498720E+02 -0.25531749187E+01  0.64582068452E+02  0.66753040359E+02  0.00000000000E+00 0.  1.
         14    1    6    6    0    0 -0.77389759752E+01  0.23288146813E+02 -0.16372439213E+02  0.29500615195E+02  0.00000000000E+00 0. -1.
         -5    1    3    3    0  503 -0.17962818566E+02 -0.10406272558E+03  0.25831430273E+03  0.27910586289E+03  0.47000000000E+01 0.  1.
         11    1    4    4    0    0  0.54789543560E+02 -0.27930988039E+02  0.12238768869E+03  0.13696999861E+03  0.00000000000E+00 0. -1.
        -12    1    4    4    0    0 -0.61571107325E+01  0.30849694208E+02  0.44111793623E+02  0.54179922314E+02  0.00000000000E+00 0.  1.
</event>
<event>
12    1  0.1061634E+000  0.1833505E+03  0.7818608E-02  0.1165151E+00
         21   -1    0    0  503  502  0.00000000000E+00  0.00000000000E+00  0.21465263576E+03  0.21465263576E+03  0.00000000000E+00 0.  1.
         21   -1    0    0  501  503 -0.00000000000E+00 -0.00000000000E+00 -0.21832321577E+03  0.21832321577E+03  0.00000000000E+00 0.  1.
          6    2    1    2  501    0  0.55219072299E+02 -0.32094535961E+02  0.11509550894E+03  0.21452040448E+03  0.16938955864E+03 0.  0.
         24    2    3    3    0    0  0.34652116211E+02 -0.84009539136E+02  0.56967051330E+02  0.13377899737E+03  0.79957509823E+02 0.  0.
         -6    2    1    2    0  502 -0.55219072299E+02  0.32094535961E+02 -0.11876608895E+03  0.21845544704E+03  0.17186678933E+03 0.  0.
        -24    2    5    5    0    0  0.16616283027E+01 -0.17146514639E+02 -0.55278614689E+01  0.82422063906E+02  0.80411910767E+02 0.  0.
          5    1    3    3  501    0  0.20566956088E+02  0.51915003176E+02  0.58128457612E+02  0.80741407109E+02  0.47000000000E+01 0. -1.
        -13    1    4    4    0    0 -0.22578372547E+02 -0.48430176395E+02  0.29214068681E+02  0.60899316100E+02  0.00000000000E+00 0.  1.
         14    1    4    4    0    0  0.57230488758E+02 -0.35579362741E+02  0.27752982648E+02  0.72879681273E+02  0.00000000000E+00 0. -1.
         -5    1    5    5    0  502 -0.56880700602E+02  0.49241050600E+02 -0.11323822748E+03  0.13603338314E+03  0.47000000000E+01 0.  1.
         13    1    6    6    0    0 -0.22208540038E+02  0.20779340296E+02 -0.18713658396E+02  0.35709960016E+02  0.00000000000E+00 0. -1.
        -14    1    6    6    0    0  0.23870168341E+02 -0.37925854936E+02  0.13185796927E+02  0.46712103890E+02  0.00000000000E+00 0.  1.
</event>
<event>
12    1  0.1061634E+000  0.1882205E+03  0.7818608E-02  0.1160389E+00
         21   -1    0    0  501  502  0.00000000000E+00  0.00000000000E+00  0.67214452961E+02  0.67214452961E+02  0.00000000000E+00 0.  1.
         21   -1    0    0  502  503 -0.00000000000E+00 -0.00000000000E+00 -0.54645873682E+03  0.54645873682E+03  0.00000000000E+00 0.  1.
         -6    2    1    2    0  503 -0.27459803606E+01 -0.67629696436E+02 -0.30201285162E+03  0.35514286364E+03  0.17416479209E+03 0.  0.
        -24    2    3    3    0    0  0.39540422841E+01 -0.57910052698E+02 -0.66225314639E+02  0.11901320779E+03  0.80057121327E+02 0.  0.
          6    2    1    2  501    0  0.27459803606E+01  0.67629696436E+02 -0.17723143224E+03  0.25853032614E+03  0.17562924788E+03 0.  0.
         24    2    5    5    0    0 -0.80975561715E+01  0.56981498205E+02 -0.18477896847E+02  0.98981771118E+02  0.78380461775E+02 0.  0.
          5    1    5    5  501    0  0.10843536532E+02  0.10648198231E+02 -0.15875353539E+03  0.15954855502E+03  0.47000000000E+01 0. -1.
        -11    1    6    6    0    0  0.14016816072E+02 -0.15618436935E+02 -0.75655764899E+01  0.22307950438E+02  0.00000000000E+00 0.  1.
         12    1    6    6    0    0 -0.22114372244E+02  0.72599935141E+02 -0.10912320357E+02  0.76673820680E+02  0.00000000000E+00 0. -1.
         -5    1    3    3    0  503 -0.67000226448E+01 -0.97196437381E+01 -0.23578753698E+03  0.23612965585E+03  0.47000000000E+01 0.  1.
         11    1    4    4    0    0 -0.18478440871E+02  0.14192171868E+02 -0.17606628013E+02  0.29203833128E+02  0.00000000000E+00 0. -1.
        -12    1    4    4    0    0  0.22432483155E+02 -0.72102224566E+02 -0.48618686626E+02  0.89809374661E+02  0.00000000000E+00 0.  1.
</event>
<event>
12    1  0.1061634E+000  0.1822103E+03  0.7818608E-02  0.1167743E+00
         21   -1    0    0  503  502  0.00000000000E+00  0.00000000000E+00  0.23551832881E+03  0.23551832881E+03  0.00000000000E+00 0.  1.
         21   -1    0    0  501  503 -0.00000000000E+00 -0.00000000000E+00 -0.14070825944E+03  0.14070825944E+03  0.00000000000E+00 0.  1.
          6    2    1    2  501    0  0.46334220062E+02  0.82152070420E+00  0.85790032398E+02  0.19379315489E+03  0.16747633378E+03 0.  0.
         24    2    3    3    0    0  0.23346777313E+02  0.51058724908E+02  0.97195719816E+02  0.13718592111E+03  0.78872705039E+02 0.  0.
         -6    2    1    2    0  502 -0.46334220062E+02 -0.82152070420E+00  0.90200369696E+01  0.18243343337E+03  0.17621878929E+03 0.  0.
        -24    2    5    5    0    0 -0.95411877821E+02  0.29899800355E+02  0.32835908368E+02  0.11965045965E+03  0.56926365822E+02 0.  0.
          5    1    3    3  501    0  0.22987442749E+02 -0.50237204204E+02 -0.11405687418E+02  0.56607233776E+02  0.47000000000E+01 0. -1.
        -13    1    4    4    0    0  0.10754713053E+01  0.40382362622E+02  0.10399796647E+03  0.11156822522E+03  0.00000000000E+00 0.  1.
         14    1    4    4    0    0  0.22271306008E+02  0.10676362286E+02 -0.68022466552E+01  0.25617695886E+02  0.00000000000E+00 0. -1.
         -5    1    5    5    0  502  0.49077657759E+02 -0.30721321059E+02 -0.23815871398E+02  0.62782973720E+02  0.47000000000E+01 0.  1.
         13    1    6    6    0    0 -0.56300842320E+02  0.42736227496E+02  0.69509085435E+01  0.71024538830E+02  0.00000000000E+00 0. -1.
        -14    1    6    6    0    0 -0.39111035502E+02 -0.12836427141E+02  0.25884999824E+02  0.48625920821E+02  0.00000000000E+00 0.  1.
</event>
<event>
12    1  0.1061634E+000  0.2913143E+03  0.7818608E-02  0.1089746E+00
         21   -1    0    0  503  502  0.00000000000E+00  0.00000000000E+00  0.46019341356E+03  0.46019341356E+03  0.00000000000E+00 0. -1.
         21   -1    0    0  501  503 -0.00000000000E+00 -0.00000000000E+00 -0.22956776471E+03  0.22956776471E+03  0.00000000000E+00 0.  1.
          6    2    1    2  501    0  0.22893729253E+03 -0.51007281548E+02  0.26904508678E+03  0.39654670724E+03  0.17277154171E+03 0.  0.
         24    2    3    3    0    0  0.13646435149E+03 -0.50010717016E+02  0.25278233379E+03  0.30253178769E+03  0.80641076618E+02 0.  0.
         -6    2    1    2    0  502 -0.22893729253E+03  0.51007281548E+02 -0.38419437925E+02  0.29321447103E+03  0.17171093771E+03 0.  0.
        -24    2    5    5    0    0 -0.70701044296E+02 -0.11125141468E+02 -0.58621052341E+02  0.12195635160E+03  0.79463938246E+02 0.  0.
          5    1    3    3  501    0  0.92472941037E+02 -0.99656453164E+00  0.16262752984E+02  0.94014919559E+02  0.47000000000E+01 0. -1.
        -13    1    4    4    0    0  0.27904987433E+02 -0.88219778926E+01  0.13115453929E+03  0.13438016518E+03  0.00000000000E+00 0.  1.
         14    1    4    4    0    0  0.10855936406E+03 -0.41188739123E+02  0.12162779450E+03  0.16815162250E+03  0.00000000000E+00 0. -1.
         -5    1    5    5    0  502 -0.15823624823E+03  0.62132423015E+02  0.20201614416E+02  0.17125811943E+03  0.47000000000E+01 0.  1.
         13    1    6    6    0    0 -0.71426262126E+02 -0.21985522360E+02 -0.72632446507E+02  0.10421394533E+03  0.00000000000E+00 0. -1.
        -14    1    6    6    0    0  0.72521782976E+00  0.10860380893E+02  0.14011394166E+02  0.17742406277E+02  0.00000000000E+00 0.  1.
</event>
<event>
12    1  0.1061634E+000  0.1961310E+03  0.7818608E-02  0.1153458E+00
         21   -1    0    0  503  502  0.00000000000E+00  0.00000000000E+00  0.43515093714E+03  0.43515093714E+03  0.00000000000E+00 0.  1.
         21   -1    0    0  501  503 -0.00000000000E+00 -0.00000000000E+00 -0.99790730179E+02  0.99790730179E+02  0.00000000000E+00 0.  1.
          6    2    1    2  501    0  0.67831116652E+01  0.94821375133E+02  0.73269485209E+02  0.20759031718E+03  0.16937596801E+03 0.  0.
         24    2    3    3    0    0  0.69650920861E+02  0.52976413166E+02  0.41364901405E+02  0.12547238526E+03  0.79840549016E+02 0.  0.
         -6    2    1    2    0  502 -0.67831116652E+01 -0.94821375133E+02  0.26209072175E+03  0.32735135014E+03  0.17155248824E+03 0.  0.
        -24    2    5    5    0    0 -0.18699903233E+02 -0.74765522038E+02  0.58612491155E+02  0.12248620549E+03  0.75019175871E+02 0.  0.
          5    1    3    3  501    0 -0.62867809196E+02  0.41844961967E+02  0.31904583804E+02  0.82117931920E+02  0.47000000000E+01 0. -1.
        -13    1    4    4    0    0  0.39396155490E+02 -0.62628689738E+01 -0.10355426229E+02  0.41213049482E+02  0.00000000000E+00 0.  1.
         14    1    4    4    0    0  0.30254765371E+02  0.59239282139E+02  0.51720327634E+02  0.84259335783E+02  0.00000000000E+00 0. -1.
         -5    1    5    5    0  502  0.11916791568E+02 -0.20055853094E+02  0.20347823060E+03  0.20486514465E+03  0.47000000000E+01 0.  1.
         11    1    6    6    0    0 -0.40897765608E+02 -0.73546014720E+02  0.53355982602E+02  0.99641880715E+02  0.00000000000E+00 0. -1.
        -12    1    6    6    0    0  0.22197862374E+02 -0.12195073186E+01  0.52565085529E+01  0.22844324771E+02  0.00000000000E+00 0.  1.
</event>
<event>
12    1  0.1061634E+000  0.2023318E+03  0.7818608E-02  0.1148662E+00
         21   -1    0    0  501  502  0.00000000000E+00  0.00000000000E+00  0.12679540057E+03  0.12679540057E+03  0.00000000000E+00 0.  1.
         21   -1    0    0  502  503 -0.00000000000E+00 -0.00000000000E+00 -0.37872574899E+03  0.37872574899E+03  0.00000000000E+00 0.  1.
         -6    2    1    2    0  503 -0.86469195147E+02  0.50912857404E+02 -0.22752494627E+03  0.30172276669E+03  0.17088003396E+03 0.  0.
        -24    2    3    3    0    0 -0.61885965853E+02  0.59198516323E+02 -0.54882277154E+02  0.12707864710E+03  0.76174674924E+02 0.  0.
          6    2    1    2  501    0  0.86469195147E+02 -0.50912857404E+02 -0.24405402147E+02  0.20379838288E+03  0.17569609116E+03 0.  0.
         24    2    5    5    0    0  0.45146352993E+02 -0.72962424445E+02 -0.68679067484E+02  0.13917634226E+03  0.85390464140E+02 0.  0.
          5    1    5    5  501    0  0.41322842154E+02  0.22049567041E+02  0.44273665337E+02  0.64622040612E+02  0.47000000000E+01 0. -1.
        -13    1    6    6    0    0  0.57998268410E+02 -0.27483245012E+02 -0.11852511761E+02  0.65265687233E+02  0.00000000000E+00 0.  1.
         14    1    6    6    0    0 -0.12851915417E+02 -0.45479179434E+02 -0.56826555723E+02  0.73910655032E+02  0.00000000000E+00 0. -1.
         -5    1    3    3    0  503 -0.24583229294E+02 -0.82856589191E+01 -0.17264266911E+03  0.17464411958E+03  0.47000000000E+01 0.  1.
         13    1    4    4    0    0 -0.50907967029E+02  0.32627672473E+02 -0.71683320562E+02  0.93779979552E+02  0.00000000000E+00 0. -1.
        -14    1    4    4    0    0 -0.10977998824E+02  0.26570843850E+02  0.16801043408E+02  0.33298667552E+02  0.00000000000E+00 0.  1.
</event>
<event>
12    1  0.1061634E+000  0.2206848E+03  0.7818608E-02  0.1133592E+00
         21   -1    0    0  503  502  0.00000000000E+00  0.00000000000E+00  0.26697510857E+02  0.26697510857E+02  0.00000000000E+00 0. -1.
         21   -1    0    0  501  503 -0.00000000000E+00 -0.00000000000E+00 -0.18231591268E+04  0.18231591268E+04  0.00000000000E+00 0. -1.
          6    2    1    2  501    0  0.13366956210E+03  0.16618017327E+01 -0.83213908085E+03  0.86060452651E+03  0.17411027472E+03 0.  0.
         24    2    3    3    0    0  0.13705715398E+03  0.51409181874E+02 -0.57420581491E+03  0.59785381331E+03  0.79305086698E+02 0.  0.
         -6    2    1    2    0  502 -0.13366956210E+03 -0.16618017327E+01 -0.96432253507E+03  0.98925211112E+03  0.17558893558E+03 0.  0.
        -24    2    5    5    0    0 -0.85458351096E+02 -0.67400791730E+02 -0.68383825153E+03  0.69712292910E+03  0.80620267497E+02 0.  0.
          5    1    3    3  501    0 -0.33875918848E+01 -0.49747380141E+02 -0.25793326594E+03  0.26275071320E+03  0.47000000000E+01 0. -1.
        -13    1    4    4    0    0  0.18077903585E+02 -0.20020483248E+02 -0.11594619368E+03  0.11904264016E+03  0.00000000000E+00 0.  1.
         14    1    4    4    0    0  0.11897925040E+03  0.71429665122E+02 -0.45825962123E+03  0.47881117315E+03  0.00000000000E+00 0. -1.
         -5    1    5    5    0  502 -0.48211211002E+02  0.65738989997E+02 -0.28048428354E+03  0.29212918202E+03  0.47000000000E+01 0.  1.
         11    1    6    6    0    0 -0.16987846869E+02 -0.48991837197E+01 -0.35572330415E+03  0.35616240405E+03  0.00000000000E+00 0. -1.
        -12    1    6    6    0    0 -0.68470504227E+02 -0.62501608010E+02 -0.32811494738E+03  0.34096052506E+03  0.00000000000E+00 0.  1.
</event>
<event>
12    1  0.1061634E+000  0.1832970E+03  0.7818608E-02  0.1164769E+00
         21   -1    0    0  503  502  0.00000000000E+00  0.00000000000E+00  0.69528406730E+02  0.69528406730E+02  0.00000000000E+00 0. -1.
         21   -1    0    0  501  503 -0.00000000000E+00 -0.00000000000E+00 -0.55228380903E+03  0.55228380903E+03  0.00000000000E+00 0. -1.
          6    2    1    2  501    0  0.59271975514E+02 -0.13385804476E+02 -0.35266065288E+03  0.39745105746E+03  0.17293195234E+03 0.  0.
         24    2    3    3    0    0  0.87577467653E+02  0.21759897492E+02 -0.17380254756E+03  0.21292806949E+03  0.83592650734E+02 0.  0.
         -6    2    1    2    0  502 -0.59271975514E+02  0.13385804476E+02 -0.13009474941E+03  0.22436115830E+03  0.17239761798E+03 0.  0.
        -24    2    5    5    0    0 -0.98192641533E+02  0.15142836637E+02 -0.54049887708E+02  0.13878770215E+03  0.80433423112E+02 0.  0.
          5    1    3    3  501    0 -0.28305492139E+02 -0.35145701968E+02 -0.17885810532E+03  0.18452298797E+03  0.47000000000E+01 0. -1.
        -11    1    4    4    0    0  0.83855506764E+02 -0.15495895639E+02 -0.11386247572E+03  0.14225516572E+03  0.00000000000E+00 0.  1.
         12    1    4    4    0    0  0.37219608888E+01  0.37255793130E+02 -0.59940071842E+02  0.70672903769E+02  0.00000000000E+00 0. -1.
         -5    1    5    5    0  502  0.38920666019E+02 -0.17570321608E+01 -0.76044861707E+02  0.85573456150E+02  0.47000000000E+01 0.  1.
         11    1    6    6    0    0 -0.16009152224E+02 -0.20779308794E+02  0.10530047378E+02  0.28265783674E+02  0.00000000000E+00 0. -1.
        -12    1    6    6    0    0 -0.82183489309E+02  0.35922145431E+02 -0.64579935087E+02  0.11052191847E+03  0.00000000000E+00 0.  1.
</event>
<event>
12    1  0.1061634E+000  0.1807389E+03  0.7818608E-02  0.1167171E+00
         21   -1    0    0  501  502  0.00000000000E+00  0.00000000000E+00  0.60046947174E+03  0.60046947174E+03  0.00000000000E+00 0. -1.
         21   -1    0    0  502  503 -0.00000000000E+00 -0.00000000000E+00 -0.55111283152E+02  0.55111283152E+02  0.00000000000E+00 0. -1.
         -6    2    1    2    0  503 -0.54785847787E+02  0.10146187664E+01  0.31269867454E+03  0.36117446954E+03  0.17223245286E+03 0.  0.
        -24    2    3    3    0    0 -0.46749091564E+02  0.50876257619E+02  0.11143409088E+03  0.15361653758E+03  0.80041319692E+02 0.  0.
          6    2    1    2  501    0  0.54785847787E+02 -0.10146187664E+01  0.23265951405E+03  0.29440628536E+03  0.17187813361E+03 0.  0.
         24    2    5    5    0    0  0.68242713689E+02 -0.34132244919E+02  0.45781173123E+02  0.10408164505E+03  0.53990692794E+02 0.  0.
          5    1    5    5  501    0 -0.13456865902E+02  0.33117626153E+02  0.18687834093E+03  0.19032464031E+03  0.47000000000E+01 0. -1.
        -13    1    6    6    0    0  0.43165899562E+02  0.83683343148E+01  0.24571773373E+02  0.50369593516E+02  0.00000000000E+00 0.  1.
         14    1    6    6    0    0  0.25076814126E+02 -0.42500579234E+02  0.21209399749E+02  0.53712051531E+02  0.00000000000E+00 0. -1.
         -5    1    3    3    0  503 -0.80367562224E+01 -0.49861638853E+02  0.20126458366E+03  0.20755793195E+03  0.47000000000E+01 0.  1.
         11    1    4    4    0    0 -0.52186997188E+02  0.69121151972E+02  0.93732309189E+02  0.12762038282E+03  0.00000000000E+00 0. -1.
        -12    1    4    4    0    0  0.54379056239E+01 -0.18244894352E+02  0.17701781687E+02  0.25996154762E+02  0.00000000000E+00 0.  1.
</event>
<event>
12    1  0.1061634E+000  0.4134045E+03  0.7818608E-02  0.1039321E+00
         21   -1    0    0  503  502  0.00000000000E+00  0.00000000000E+00  0.56590368570E+03  0.56590368570E+03  0.00000000000E+00 0.  1.
         21   -1    0    0  501  503 -0.00000000000E+00 -0.00000000000E+00 -0.43697036215E+03  0.43697036215E+03  0.00000000000E+00 0.  1.
          6    2    1    2  501    0 -0.23784716383E+03  0.29002249957E+03 -0.21505101941E+03  0.46507437406E+03  0.17135608791E+03 0.  0.
         24    2    3    3    0    0 -0.14105119638E+03  0.17226754143E+03 -0.20397773154E+03  0.31216787589E+03  0.79185364430E+02 0.  0.
         -6    2    1    2    0  502  0.23784716383E+03 -0.29002249957E+03  0.34398434296E+03  0.53779967379E+03  0.17383594948E+03 0.  0.
        -24    2    5    5    0    0  0.11466303338E+03 -0.73372965553E+02  0.89671077308E+02  0.18169761304E+03  0.80261554815E+02 0.  0.
          5    1    3    3  501    0 -0.96795967447E+02  0.11775495814E+03 -0.11073287869E+02  0.15290649818E+03  0.47000000000E+01 0. -1.
        -13    1    4    4    0    0 -0.25682091388E+02  0.32982521072E+02 -0.31736924557E+01  0.41922414507E+02  0.00000000000E+00 0.  1.
         14    1    4    4    0    0 -0.11536910499E+03  0.13928502036E+03 -0.20080403908E+03  0.27024546138E+03  0.00000000000E+00 0. -1.
         -5    1    5    5    0  502  0.12318413045E+03 -0.21664953402E+03  0.25431326565E+03  0.35610206075E+03  0.47000000000E+01 0.  1.
         11    1    6    6    0    0  0.48916922913E+02 -0.95292146271E+01  0.73247533760E+02  0.88593862545E+02  0.00000000000E+00 0. -1.
        -12    1    6    6    0    0  0.65746110465E+02 -0.63843750926E+02  0.16423543548E+02  0.93103750495E+02  0.00000000000E+00 0.  1.
</event>
<event>
12    1  0.1061634E+000  0.3477151E+03  0.7818608E-02  0.1063597E+00
         21   -1    0    0  503  502  0.00000000000E+00  0.00000000000E+00  0.25666025617E+03  0.25666025617E+03  0.00000000000E+00 0. -1.
         21   -1    0    0  501  503 -0.00000000000E+00 -0.00000000000E+00 -0.78079669517E+03  0.78079669517E+03  0.00000000000E+00 0. -1.
          6    2    1    2  501    0 -0.28453966881E+03 -0.99550388977E+02 -0.58896477613E+03  0.68375014550E+03  0.17251565399E+03 0.  0.
         24    2    3    3    0    0 -0.24463824232E+03 -0.12714087323E+03 -0.55350703744E+03  0.62347826241E+03  0.79639386958E+02 0.  0.
         -6    2    1    2    0  502  0.28453966881E+03  0.99550388977E+02  0.64828337132E+02  0.35370680583E+03  0.17329941754E+03 0.  0.
        -24    2    5    5    0    0  0.76918610887E+02 -0.97003722235E+01  0.41242618907E+02  0.11786658742E+03  0.78619392599E+02 0.  0.
          5    1    3    3  501    0 -0.39901426494E+02  0.27590484254E+02 -0.35457738697E+02  0.60271883090E+02  0.47000000000E+01 0. -1.
        -13    1    4    4    0    0 -0.15764716716E+03 -0.44578120776E+02 -0.36458552996E+03  0.39970294823E+03  0.00000000000E+00 0.  1.
         14    1    4    4    0    0 -0.86991075163E+02 -0.82562752455E+02 -0.18892150748E+03  0.22377531418E+03  0.00000000000E+00 0. -1.
         -5    1    5    5    0  502  0.20762105793E+03  0.10925076120E+03  0.23585718226E+02  0.23584021842E+03  0.47000000000E+01 0.  1.
         11    1    6    6    0    0  0.46579331035E+02 -0.22995826929E+02 -0.13689490409E+02  0.53720054761E+02  0.00000000000E+00 0. -1.
        -12    1    6    6    0    0  0.30339279852E+02  0.13295454706E+02  0.54932109316E+02  0.64146532655E+02  0.00000000000E+00 0.  1.
</event>
<event>
12    1  0.1061634E+000  0.2021364E+03  0.7818608E-02  0.1147979E+00
         21   -1    0    0  501  502  0.00000000000E+00  0.00000000000E+00  0.19297672288E+04  0.19297672288E+04  0.00000000000E+00 0. -1.
         21   -1    0    0  502  503 -0.00000000000E+00 -0.00000000000E+00 -0.50665070585E+02  0.50665070585E+02  0.00000000000E+00 0. -1.
         -6    2    1    2    0  503 -0.44109286059E+02  0.95485146709E+02  0.18400974418E+03  0.27334726234E+03  0.17261546142E+03 0.  0.
        -24    2    3    3    0    0  0.20382910827E+02 -0.12789923475E+01  0.50936617758E+02  0.96561830135E+02  0.79451552126E+02 0.  0.
          6    2    1    2  501    0  0.44109286059E+02 -0.95485146709E+02  0.16950924141E+04  0.17070850371E+04  0.17244706202E+03 0.  0.
         24    2    5    5    0    0  0.77387442580E+02 -0.71809203404E+02  0.15692158919E+04  0.15746653451E+04  0.77376066414E+02 0.  0.
          5    1    5    5  501    0 -0.33278156522E+02 -0.23675943304E+02  0.12587652218E+03  0.13241969199E+03  0.47000000000E+01 0. -1.
        -13    1    6    6    0    0  0.17732452328E+01 -0.52001707801E+02  0.54947306955E+03  0.55193113354E+03  0.00000000000E+00 0.  1.
         14    1    6    6    0    0  0.75614197347E+02 -0.19807495603E+02  0.10197428223E+04  0.10227342115E+04  0.00000000000E+00 0. -1.
         -5    1    3    3    0  503 -0.64492196886E+02  0.96764139056E+02  0.13307312642E+03  0.17678543221E+03  0.47000000000E+01 0.  1.
         13    1    4    4    0    0  0.14266310904E+02  0.73318331046E+01  0.71589715019E+02  0.73364642029E+02  0.00000000000E+00 0. -1.
        -14    1    4    4    0    0  0.61165999227E+01 -0.86108254522E+01 -0.20653097261E+02  0.23197188107E+02  0.00000000000E+00 0.  1.
</event>
<event>
12    1  0.1061634E+000  0.1726953E+03  0.7818608E-02  0.1175764E+00
         21   -1    0    0  501  502  0.00000000000E+00  0.00000000000E+00  0.23145609620E+03  0.23145609620E+03  0.00000000000E+00 0.  1.
         21   -1    0    0  502  503 -0.00000000000E+00 -0.00000000000E+00 -0.18124385694E+03  0.18124385694E+03  0.00000000000E+00 0.  1.
         -6    2    1    2    0  503  0.25829515716E+02  0.10727348967E+01 -0.87810177764E+02  0.19373773160E+03  0.17074942660E+03 0.  0.
        -24    2    3    3    0    0 -0.48074481418E+02 -0.31150025182E+02 -0.47025710011E+02  0.10326359237E+03  0.71905996091E+02 0.  0.
          6    2    1    2  501    0 -0.25829515716E+02 -0.10727348967E+01  0.13802241702E+03  0.21896222154E+03  0.16800581007E+03 0.  0.
         24    2    5    5    0    0 -0.25672552698E+01  0.65863258022E+02  0.85901363902E+02  0.13086991718E+03  0.73507355725E+02 0.  0.
          5    1    5    5  501    0 -0.23262260446E+02 -0.66935992919E+02  0.52121053119E+02  0.88092304359E+02  0.47000000000E+01 0. -1.
        -13    1    6    6    0    0 -0.25934502912E+02  0.62648341591E+02  0.82892436961E+02  0.10709140605E+03  0.00000000000E+00 0.  1.
         14    1    6    6    0    0  0.23367247642E+02  0.32149164307E+01  0.30089269418E+01  0.23778511126E+02  0.00000000000E+00 0. -1.
         -5    1    3    3    0  503  0.73903997135E+02  0.32222760079E+02 -0.40784467752E+02  0.90474139230E+02  0.47000000000E+01 0.  1.
         13    1    4    4    0    0  0.13258844877E+02  0.94993127801E+01 -0.72346366205E+00  0.16326582939E+02  0.00000000000E+00 0. -1.
        -14    1    4    4    0    0 -0.61333326296E+02 -0.40649337962E+02 -0.46302246349E+02  0.86937009428E+02  0.00000000000E+00 0.  1.
</event>
<event>
12    1  0.1061634E+000  0.2020521E+03  0.7818608E-02  0.1149094E+00
         21   -1    0    0  503  502  0.00000000000E+00  0.00000000000E+00  0.18509817869E+03  0.18509817869E+03  0.00000000000E+00 0. -1.
         21   -1    0    0  501  503 -0.00000000000E+00 -0.00000000000E+00 -0.22371280365E+03  0.22371280365E+03  0.00000000000E+00 0. -1.
          6    2    1    2  501    0 -0.21160762485E+02 -0.94603085704E+02 -0.59798881073E+02  0.21071530660E+03  0.17727806566E+03 0.  0.
         24    2    3    3    0    0 -0.19354800238E+02  0.19995469326E+02 -0.77324941484E+01  0.84742734335E+02  0.79668767224E+02 0.  0.
         -6    2    1    2    0  502  0.21160762485E+02  0.94603085704E+02  0.21184256117E+02  0.19809567574E+03  0.17145145770E+03 0.  0.
        -24    2    5    5    0    0  0.80024962249E+01  0.21581852197E+02 -0.48209964560E+02  0.96395683718E+02  0.80237839368E+02 0.  0.
          5    1    3    3  501    0 -0.18059622466E+01 -0.11459855503E+03 -0.52066386925E+02  0.12597257226E+03  0.47000000000E+01 0. -1.
        -13    1    4    4    0    0 -0.35282665740E+02 -0.66584311919E+01  0.21705086470E+02  0.41956072103E+02  0.00000000000E+00 0.  1.
         14    1    4    4    0    0  0.15927865502E+02  0.26653900518E+02 -0.29437580618E+02  0.42786662232E+02  0.00000000000E+00 0. -1.
         -5    1    5    5    0  502  0.13158266260E+02  0.73021233507E+02  0.69394220677E+02  0.10169999202E+03  0.47000000000E+01 0.  1.
         11    1    6    6    0    0  0.30603692240E+02 -0.13889711722E+02 -0.42138709952E+02  0.53899730490E+02  0.00000000000E+00 0. -1.
        -12    1    6    6    0    0 -0.22601196015E+02  0.35471563919E+02 -0.60712546087E+01  0.42495953228E+02  0.00000000000E+00 0.  1.
</event>
<event>
12    1  0.1061634E+000  0.2692080E+03  0.7818608E-02  0.1101863E+00
         21   -1    0    0  503  502  0.00000000000E+00  0.00000000000E+00  0.14758121015E+04  0.14758121015E+04  0.00000000000E+00 0. -1.
         21   -1    0    0  501  503 -0.00000000000E+00 -0.00000000000E+00 -0.55393181890E+02  0.55393181890E+02  0.00000000000E+00 0. -1.
          6    2    1    2  501    0  0.16819632634E+03  0.11818929178E+03  0.97250678193E+03  0.10090799829E+04  0.17382249007E+03 0.  0.
         24    2    3    3    0    0  0.15275862846E+03  0.24718539790E+02  0.62771100472E+03  0.65147500252E+03  0.80326637441E+02 0.  0.
         -6    2    1    2    0  502 -0.16819632634E+03 -0.11818929178E+03  0.44791213770E+03  0.52212530053E+03  0.17242631316E+03 0.  0.
        -24    2    5    5    0    0 -0.16563607291E+03 -0.11153997266E+03  0.27056504141E+03  0.34457291135E+03  0.75157005352E+02 0.  0.
          5    1    3    3  501    0  0.15437697880E+02  0.93470751992E+02  0.34479577721E+03  0.35760498036E+03  0.47000000000E+01 0. -1.
        -13    1    4    4    0    0  0.37473345232E+02 -0.73958076215E+01  0.30326844421E+03  0.30566435648E+03  0.00000000000E+00 0.  1.
         14    1    4    4    0    0  0.11528528323E+03  0.32114347411E+02  0.32444256051E+03  0.34581064603E+03  0.00000000000E+00 0. -1.
         -5    1    5    5    0  502 -0.25602534351E+01 -0.66493191204E+01  0.17734709629E+03  0.17755238918E+03  0.47000000000E+01 0.  1.
         13    1    6    6    0    0 -0.73218196439E+02 -0.35994475885E+02  0.16971480186E+03  0.18830725040E+03  0.00000000000E+00 0. -1.
        -14    1    6    6    0    0 -0.92417876469E+02 -0.75545496776E+02  0.10085023955E+03  0.15626566095E+03  0.00000000000E+00 0.  1.
</event>
<event>
12    1  0.1061634E+000  0.1801160E+03  0.7818608E-02  0.1167884E+00
         21   -1    0    0  503  502  0.00000000000E+00  0.00000000000E+00  0.35759939608E+03  0.35759939608E+03  0.00000000000E+00 0.  1.
         21   -1    0    0  501  503 -0.00000000000E+00 -0.00000000000E+00 -0.10808699085E+03  0.10808699085E+03  0.00000000000E+00 0.  1.
          6    2    1    2  501    0 -0.43795776093E+02 -0.26618578433E+02  0.30120538687E+02  0.18182982252E+03  0.17183776880E+03 0.  0.
         24    2    3    3    0    0 -0.88938973289E+02 -0.89650281591E+01  0.46701033420E+02  0.13038510563E+03  0.82636411757E+02 0.  0.
         -6    2    1    2    0  502  0.43795776093E+02  0.26618578433E+02  0.21939186654E+03  0.28385656441E+03  0.17267060935E+03 0.  0.
        -24    2    5    5    0    0 -0.41944921976E+01 -0.46187718581E+02  0.11206691266E+03  0.14549270185E+03  0.80363139980E+02 0.  0.
          5    1    3    3  501    0  0.45143197196E+02 -0.17653550274E+02 -0.16580494733E+02  0.51444716891E+02  0.47000000000E+01 0. -1.
        -11    1    4    4    0    0  0.10068683855E+02 -0.14970222520E+02  0.21456705832E+02  0.28033483231E+02  0.00000000000E+00 0.  1.
         12    1    4    4    0    0 -0.99007657144E+02  0.60051943610E+01  0.25244327588E+02  0.10235162240E+03  0.00000000000E+00 0. -1.
         -5    1    5    5    0  502  0.47990268290E+02  0.72806297014E+02  0.10732495388E+03  0.13836386256E+03  0.47000000000E+01 0.  1.
         11    1    6    6    0    0 -0.27619312385E+02  0.62065077608E+01  0.66286173045E+02  0.72077762814E+02  0.00000000000E+00 0. -1.
        -12    1    6    6    0    0  0.23424820188E+02 -0.52394226342E+02  0.45780739612E+02  0.73414939039E+02  0.00000000000E+00 0.  1.
</event>
<event>
12    1  0.1061634E+000  0.5389071E+03  0.7818608E-02  0.1004106E+00
         21   -1    0    0  501  502  0.00000000000E+00  0.00000000000E+00  0.63971828969E+03  0.63971828969E+03  0.00000000000E+00 0.  1.
         21   -1    0    0  502  503 -0.00000000000E+00 -0.00000000000E+00 -0.46948227507E+03  0.46948227507E+03  0.00000000000E+00 0.  1.
         -6    2    1    2    0  503 -0.33270482415E+02  0.50945282221E+03 -0.16153580428E+02  0.53914909735E+03  0.17254479987E+03 0.  0.
        -24    2    3    3    0    0 -0.32363369195E+02  0.27447981436E+03  0.56818878133E+02  0.29305926218E+03  0.79175691196E+02 0.  0.
          6    2    1    2  501    0  0.33270482415E+02 -0.50945282221E+03  0.18638959505E+03  0.57005146740E+03  0.17195491062E+03 0.  0.
         24    2    5    5    0    0  0.57795840129E+01 -0.18113475849E+03  0.14210234113E+02  0.19827690830E+03  0.79174473720E+02 0.  0.
          5    1    5    5  501    0  0.27490898403E+02 -0.32831806372E+03  0.17217936093E+03  0.37177455910E+03  0.47000000000E+01 0. -1.
        -11    1    6    6    0    0 -0.56540720892E+01 -0.15280485523E+02  0.27002854966E+02  0.31537532328E+02  0.00000000000E+00 0.  1.
         12    1    6    6    0    0  0.11433656102E+02 -0.16585427296E+03 -0.12792620853E+02  0.16673937597E+03  0.00000000000E+00 0. -1.
         -5    1    3    3    0  503 -0.90711322079E+00  0.23497300784E+03 -0.72972458561E+02  0.24608983518E+03  0.47000000000E+01 0.  1.
         11    1    4    4    0    0  0.16573898303E+02  0.15464252174E+03  0.50265529495E+02  0.16344915751E+03  0.00000000000E+00 0. -1.
        -12    1    4    4    0    0 -0.48937267497E+02  0.11983729262E+03  0.65533486380E+01  0.12961010467E+03  0.00000000000E+00 0.  1.
</event>
<event>
12    1  0.1061634E+000  0.1871016E+03  0.7818608E-02  0.1162128E+00
         21   -1    0    0  501  502  0.00000000000E+00  0.00000000000E+00  0.53340350827E+03  0.53340350827E+03  0.00000000000E+00 0.  1.
         21   -1    0    0  502  503 -0.00000000000E+00 -0.00000000000E+00 -0.10946514723E+03  0.10946514723E+03  0.00000000000E+00 0.  1.
         -6    2    1    2    0  503  0.62160968718E+02  0.11286134649E+02  0.41742298904E+03  0.45565362757E+03  0.17142611724E+03 0.  0.
        -24    2    3    3    0    0  0.50159077318E+02 -0.34644811302E+02  0.38525147808E+03  0.39811413409E+03  0.79749397550E+02 0.  0.
          6    2    1    2  501    0 -0.62160968718E+02 -0.11286134649E+02  0.65153720015E+01  0.18721502793E+03  0.17611261665E+03 0.  0.
         24    2    5    5    0    0 -0.39853676112E+02 -0.73603059160E+02  0.26402032053E+02  0.11794321814E+03  0.78789654085E+02 0.  0.
          5    1    5    5  501    0 -0.22307292605E+02  0.62316924512E+02 -0.19886660051E+02  0.69271809793E+02  0.47000000000E+01 0. -1.
        -11    1    6    6    0    0  0.20294531668E+02 -0.96595157069E+00  0.81185071036E+01  0.21879470643E+02  0.00000000000E+00 0.  1.
         12    1    6    6    0    0 -0.60148207780E+02 -0.72637107589E+02  0.18283524949E+02  0.96063747495E+02  0.00000000000E+00 0. -1.
         -5    1    3    3    0  503  0.12001891399E+02  0.45930945951E+02  0.32171510961E+02  0.57539493486E+02  0.47000000000E+01 0.  1.
         13    1    4    4    0    0  0.43297844529E+02 -0.35729565466E+02  0.11697421376E+03  0.12974695323E+03  0.00000000000E+00 0. -1.
        -14    1    4    4    0    0  0.68612327897E+01  0.10847541638E+01  0.26827726432E+03  0.26836718085E+03  0.00000000000E+00 0.  1.
</event>
<event>
12    1  0.1061634E+000  0.4289418E+03  0.7818608E-02  0.1034261E+00
         21   -1    0    0  501  502  0.00000000000E+00  0.00000000000E+00  0.42819832584E+03  0.42819832584E+03  0.00000000000E+00 0.  1.
         21   -1    0    0  502  503 -0.00000000000E+00 -0.00000000000E+00 -0.48842567586E+03  0.48842567586E+03  0.00000000000E+00 0.  1.
         -6    2    1    2    0  503 -0.27833308638E+03 -0.27681597367E+03  0.12997575480E+03  0.44740303185E+03  0.17081974655E+03 0.  0.
        -24    2    3    3    0    0 -0.29395423740E+03 -0.24142388898E+03  0.12405568900E+03  0.40798530491E+03  0.79797288137E+02 0.  0.
          6    2    1    2  501    0  0.27833308638E+03  0.27681597367E+03 -0.19020310481E+03  0.46922096986E+03  0.17290085950E+03 0.  0.
         24    2    5    5    0    0  0.84952354188E+02  0.38073545701E+02 -0.59378180517E+02  0.13525793999E+03  0.78118145426E+02 0.  0.
          5    1    5    5  501    0  0.19338073220E+03  0.23874242797E+03 -0.13082492430E+03  0.33396302986E+03  0.47000000000E+01 0. -1.
        -11    1    6    6    0    0  0.74648390150E+02  0.19592094593E+02 -0.54985315630E+01  0.77372257120E+02  0.00000000000E+00 0.  1.
         12    1    6    6    0    0  0.10303964037E+02  0.18481451109E+02 -0.53879648954E+02  0.57885682871E+02  0.00000000000E+00 0. -1.
         -5    1    3    3    0  503  0.15621151012E+02 -0.35392084692E+02  0.59200658022E+01  0.39417726937E+02  0.47000000000E+01 0.  1.
         13    1    4    4    0    0 -0.14991864003E+03 -0.11914741836E+03  0.10418393137E+03  0.21800458134E+03  0.00000000000E+00 0. -1.
        -14    1    4    4    0    0 -0.14403559737E+03 -0.12227647062E+03  0.19871757634E+02  0.18998072357E+03  0.00000000000E+00 0.  1.
</event>
<event>
12    1  0.1061634E+000  0.1994609E+03  0.7818608E-02  0.1150363E+00
         21   -1    0    0  503  502  0.00000000000E+00  0.00000000000E+00  0.12491374992E+03  0.12491374992E+03  0.00000000000E+00 0. -1.
         21   -1    0    0  501  503 -0.00000000000E+00 -0.00000000000E+00 -0.31982100186E+03  0.31982100186E+03  0.00000000000E+00 0. -1.
          6    2    1    2  501    0  0.35131404034E+02  0.93347052649E+02 -0.77624433698E+02  0.21403314255E+03  0.17273316304E+03 0.  0.
         24    2    3    3    0    0  0.49003686919E+02  0.95199244580E+01  0.45693869366E+01  0.95722780346E+02  0.81547416187E+02 0.  0.
         -6    2    1    2    0  502 -0.35131404034E+02 -0.93347052649E+02 -0.11728281825E+03  0.23070160923E+03  0.17181410088E+03 0.  0.
        -24    2    5    5    0    0  0.32300763898E+01 -0.10668395125E+03 -0.12955365973E+03  0.18801508214E+03  0.84697234397E+02 0.  0.
          5    1    3    3  501    0 -0.13872282884E+02  0.83827128191E+02 -0.82193820635E+02  0.11831036220E+03  0.47000000000E+01 0. -1.
        -13    1    4    4    0    0  0.41974227803E+02  0.53512635465E+01 -0.35250233762E+02  0.55073140472E+02  0.00000000000E+00 0.  1.
         14    1    4    4    0    0  0.70294591161E+01  0.41686609115E+01  0.39819620699E+02  0.40649639874E+02  0.00000000000E+00 0. -1.
         -5    1    5    5    0  502 -0.38361480424E+02  0.13336898600E+02  0.12270841486E+02  0.42686527095E+02  0.47000000000E+01 0.  1.
         11    1    6    6    0    0  0.12330140501E+02 -0.21979310884E+01  0.81318869096E+01  0.14932878174E+02  0.00000000000E+00 0. -1.
        -12    1    6    6    0    0 -0.91000641108E+01 -0.10448602016E+03 -0.13768554664E+03  0.17308220397E+03  0.00000000000E+00 0.  1.
</event>
<event>
12    1  0.1061634E+000  0.2349895E+03  0.7818608E-02  0.1123557E+00
         21   -1    0    0  503  502  0.00000000000E+00  0.00000000000E+00  0.11252715947E+03  0.11252715947E+03  0.00000000000E+00 0. -1.
         21   -1    0    0  501  503 -0.00000000000E+00 -0.00000000000E+00 -0.57107155260E+03  0.57107155260E+03  0.00000000000E+00 0. -1.
          6    2    1    2  501    0 -0.15321743613E+03  0.47008896457E+02 -0.36017785107E+03  0.42885168370E+03  0.16882020948E+03 0.  0.
         24    2    3    3    0    0 -0.13113024313E+03 -0.19579621149E+02 -0.19301410674E+03  0.24750207055E+03  0.80151901392E+02 0.  0.
         -6    2    1    2    0  502  0.15321743613E+03 -0.47008896457E+02 -0.98366542054E+02  0.25474702837E+03  0.17185648894E+03 0.  0.
        -24    2    5    5    0    0  0.12804781250E+03 -0.57842520269E+02 -0.10780199689E+02  0.16285396701E+03  0.81628441294E+02 0.  0.
          5    1    3    3  501    0 -0.22087192997E+02  0.66588517605E+02 -0.16716374433E+03  0.18134961315E+03  0.47000000000E+01 0. -1.
        -13    1    4    4    0    0 -0.82881156423E+02 -0.46070261426E+02 -0.15079721009E+03  0.17813352758E+03  0.00000000000E+00 0.  1.
         14    1    4    4    0    0 -0.48249086709E+02  0.26490640277E+02 -0.42216896653E+02  0.69368542968E+02  0.00000000000E+00 0. -1.
         -5    1    5    5    0  502  0.25169623632E+02  0.10833623813E+02 -0.87586342365E+02  0.91893061369E+02  0.47000000000E+01 0.  1.
         13    1    6    6    0    0  0.12555275192E+02  0.14088752559E+02  0.15326202946E+02  0.24310910730E+02  0.00000000000E+00 0. -1.
        -14    1    6    6    0    0  0.11549253730E+03 -0.71931272828E+02 -0.26106402635E+02  0.13854305628E+03  0.00000000000E+00 0.  1.
</event>
<event>
12    1  0.1061634E+000  0.1920399E+03  0.7818608E-02  0.1158263E+00
         21   -1    0    0  503  502  0.00000000000E+00  0.00000000000E+00  0.35254035490E+02  0.35254035490E+02  0.00000000000E+00 0.  1.
         21   -1    0    0  501  503 -0.00000000000E+00 -0.00000000000E+00 -0.10101376366E+04  0.10101376366E+04  0.00000000000E+00 0.  1.
          6    2    1    2  501    0  0.41183360601E+02  0.55019561794E+02 -0.46931508239E+03  0.50708577724E+03  0.17932126912E+03 0.  0.
         24    2    3    3    0    0  0.45309356761E+00 -0.39065051939E+02 -0.21945504997E+03  0.23696914504E+03  0.80421223361E+02 0.  0.
         -6    2    1    2    0  502 -0.41183360601E+02 -0.55019561794E+02 -0.50556851874E+03  0.53830589486E+03  0.17161144464E+03 0.  0.
        -24    2    5    5    0    0 -0.15910667102E+02 -0.87081421611E+01 -0.46419421726E+03  0.47109444161E+03  0.78260593617E+02 0.  0.
          5    1    3    3  501    0  0.40730267033E+02  0.94084613733E+02 -0.24986003242E+03  0.27011663220E+03  0.47000000000E+01 0. -1.
        -13    1    4    4    0    0  0.29709347632E+02 -0.26301720023E+02 -0.18805038358E+03  0.19219097944E+03  0.00000000000E+00 0.  1.
         14    1    4    4    0    0 -0.29256254064E+02 -0.12763331916E+02 -0.31404666384E+02  0.44778165596E+02  0.00000000000E+00 0. -1.
         -5    1    5    5    0  502 -0.25272693498E+02 -0.46311419633E+02 -0.41374301482E+02  0.67211453252E+02  0.47000000000E+01 0.  1.
         11    1    6    6    0    0  0.23810458632E+02 -0.25976040593E+02 -0.16015834074E+03  0.16398898358E+03  0.00000000000E+00 0. -1.
        -12    1    6    6    0    0 -0.39721125734E+02  0.17267898432E+02 -0.30403587652E+03  0.30710545803E+03  0.00000000000E+00 0.  1.
</event>
<event>
12    1  0.1061634E+000  0.1780909E+03  0.7818608E-02  0.1169805E+00
         21   -1    0    0  501  502  0.00000000000E+00  0.00000000000E+00  0.32808319424E+03  0.32808319424E+03  0.00000000000E+00 0. -1.
         21   -1    0    0  502  503 -0.00000000000E+00 -0.00000000000E+00 -0.10955674252E+03  0.10955674252E+03  0.00000000000E+00 0. -1.
         -6    2    1    2    0  503  0.44838224653E+02 -0.55773049468E+01  0.18505602597E+03  0.25643108650E+03  0.17166711000E+03 0.  0.
        -24    2    3    3    0    0 -0.17045206046E+02 -0.24202182979E+02  0.27105303988E+02  0.85706262142E+02  0.75727017345E+02 0.  0.
          6    2    1    2  501    0 -0.44838224653E+02  0.55773049468E+01  0.33470425750E+02  0.18120885026E+03  0.17226376663E+03 0.  0.
         24    2    5    5    0    0 -0.62817976325E+02 -0.30622310291E+02  0.69200742850E+02  0.12705694195E+03  0.80441902333E+02 0.  0.
          5    1    5    5  501    0  0.17979751671E+02  0.36199615237E+02 -0.35730317100E+02  0.54151908310E+02  0.47000000000E+01 0. -1.
        -11    1    6    6    0    0 -0.65558796653E+02 -0.10860989527E+02  0.13390566782E+02  0.67788082956E+02  0.00000000000E+00 0.  1.
         12    1    6    6    0    0  0.27408203282E+01 -0.19761320764E+02  0.55810176067E+02  0.59268858999E+02  0.00000000000E+00 0. -1.
         -5    1    3    3    0  503  0.61883430699E+02  0.18624878032E+02  0.15795072198E+03  0.17072482436E+03  0.47000000000E+01 0.  1.
         13    1    4    4    0    0 -0.37119392394E+02 -0.22044736031E+02  0.42297401692E+02  0.60439141856E+02  0.00000000000E+00 0. -1.
        -14    1    4    4    0    0  0.20074186348E+02 -0.21574469478E+01 -0.15192097704E+02  0.25267120286E+02  0.00000000000E+00 0.  1.
</event>
<event>
12    1  0.1061634E+000  0.1976625E+03  0.7818608E-02  0.1154005E+00
         21   -1    0    0  503  502  0.00000000000E+00  0.00000000000E+00  0.27758126275E+03  0.27758126275E+03  0.00000000000E+00 0. -1.
         21   -1    0    0  501  503 -0.00000000000E+00 -0.00000000000E+00 -0.13538535987E+03  0.13538535987E+03  0.00000000000E+00 0. -1.
          6    2    1    2  501    0  0.69068205837E+02  0.48143368285E+02  0.97409336765E+02  0.22036118308E+03  0.17883587769E+03 0.  0.
         24    2    3    3    0    0  0.33483708269E+02  0.14136579577E+02 -0.22816781787E+02  0.90364538014E+02  0.79524477979E+02 0.  0.
         -6    2    1    2    0  502 -0.69068205837E+02 -0.48143368285E+02  0.44786566110E+02  0.19260543954E+03  0.16734042509E+03 0.  0.
        -24    2    5    5    0    0 -0.15808868881E+01 -0.61928063135E+02  0.66154862051E+02  0.12033338337E+03  0.79158531909E+02 0.  0.
          5    1    3    3  501    0  0.35584497568E+02  0.34006788708E+02  0.12022611855E+03  0.12999664506E+03  0.47000000000E+01 0. -1.
        -13    1    4    4    0    0  0.50429087651E+02 -0.14221352144E+02 -0.23259077065E+02  0.57326472105E+02  0.00000000000E+00 0.  1.
         14    1    4    4    0    0 -0.16945379382E+02  0.28357931721E+02  0.44229527791E+00  0.33038065909E+02  0.00000000000E+00 0. -1.
         -5    1    5    5    0  502 -0.67487318949E+02  0.13784694850E+02 -0.21368295941E+02  0.72272056166E+02  0.47000000000E+01 0.  1.
         13    1    6    6    0    0 -0.33530054524E+02 -0.53746478145E+02  0.59039337173E+02  0.86594409769E+02  0.00000000000E+00 0. -1.
        -14    1    6    6    0    0  0.31949167636E+02 -0.81815849897E+01  0.71155248774E+01  0.33738973604E+02  0.00000000000E+00 0.  1.
</event>
<event>
12    1  0.1061634E+000  0.1855399E+03  0.7818608E-02  0.1162624E+00
         21   -1    0    0  503  502  0.00000000000E+00  0.00000000000E+00  0.48064427405E+03  0.48064427405E+03  0.00000000000E+00 0.  1.
         21   -1    0    0  501  503 -0.00000000000E+00 -0.00000000000E+00 -0.72196608979E+02  0.72196608979E+02  0.00000000000E+00 0.  1.
          6    2    1    2  501    0 -0.14883560888E+02 -0.68285171993E+02  0.17676814022E+03  0.25602366336E+03  0.17151313566E+03 0.  0.
         24    2    3    3    0    0  0.37704509366E+02 -0.85712104799E+01  0.14442165249E+03  0.17000245899E+03  0.80920496040E+02 0.  0.
         -6    2    1    2    0  502  0.14883560888E+02  0.68285171993E+02  0.23167952485E+03  0.29681721967E+03  0.17187400780E+03 0.  0.
        -24    2    5    5    0    0  0.21998045448E+02  0.96338613086E+02  0.99169210585E+02  0.16110176427E+03  0.79713259543E+02 0.  0.
          5    1    3    3  501    0 -0.52588070254E+02 -0.59713961514E+02  0.32346487726E+02  0.86021204368E+02  0.47000000000E+01 0. -1.
        -13    1    4    4    0    0  0.49880820913E+02 -0.29400530401E+02  0.65247706758E+02  0.87233885159E+02  0.00000000000E+00 0.  1.
         14    1    4    4    0    0 -0.12176311547E+02  0.20829319921E+02  0.79173945736E+02  0.82768573835E+02  0.00000000000E+00 0. -1.
         -5    1    5    5    0  502 -0.71144845599E+01 -0.28053441093E+02  0.13251031426E+03  0.13571545540E+03  0.47000000000E+01 0.  1.
         13    1    6    6    0    0  0.35541115357E+02  0.44074424467E+02  0.90014629747E+02  0.10634076989E+03  0.00000000000E+00 0. -1.
        -14    1    6    6    0    0 -0.13543069909E+02  0.52264188619E+02  0.91545808383E+01  0.54760994375E+02  0.00000000000E+00 0.  1.
</event>
<event>
12    1  0.1061634E+000  0.2196995E+03  0.7818608E-02  0.1134222E+00
         21   -1    0    0  503  502  0.00000000000E+00  0.00000000000E+00  0.13974967142E+03  0.13974967142E+03  0.00000000000E+00 0.  1.
         21   -1    0    0  501  503 -0.00000000000E+00 -0.00000000000E+00 -0.62850574363E+03  0.62850574363E+03  0.00000000000E+00 0.  1.
          6    2    1    2  501    0 -0.13397579487E+03 -0.24368523467E+02  0.13685503824E+02  0.22012536250E+03  0.17240807305E+03 0.  0.
         24    2    3    3    0    0 -0.15915620846E+03 -0.90641498916E+01 -0.14638848960E+02  0.17898370429E+03  0.80050065564E+02 0.  0.
         -6    2    1    2    0  502  0.13397579487E+03  0.24368523467E+02 -0.50244157604E+03  0.54813005255E+03  0.17162656740E+03 0.  0.
        -24    2    5    5    0    0  0.73679204924E+02  0.57267098313E+02 -0.43390996865E+03  0.45098754797E+03  0.80023507436E+02 0.  0.
          5    1    3    3  501    0  0.25180413594E+02 -0.15304373576E+02  0.28324352785E+02  0.41141658207E+02  0.47000000000E+01 0. -1.
        -11    1    4    4    0    0 -0.48933002627E+02  0.31377029212E+02 -0.19946327294E+02  0.61455778254E+02  0.00000000000E+00 0.  1.
         12    1    4    4    0    0 -0.11022320584E+03 -0.40441179103E+02  0.53074783340E+01  0.11752792604E+03  0.00000000000E+00 0. -1.
         -5    1    5    5    0  502  0.60296589947E+02 -0.32898574845E+02 -0.68531607384E+02  0.97142504583E+02  0.47000000000E+01 0.  1.
         13    1    6    6    0    0  0.33211102509E+02  0.71736860105E+02 -0.30621544525E+03  0.31625472856E+03  0.00000000000E+00 0. -1.
        -14    1    6    6    0    0  0.40468102415E+02 -0.14469761793E+02 -0.12769452340E+03  0.13473281941E+03  0.00000000000E+00 0.  1.
</event>
<event>
12    1  0.1061634E+000  0.9661072E+03  0.7818608E-02  0.9346535E-01
         21   -1    0    0  501  502  0.00000000000E+00  0.00000000000E+00  0.14960548389E+04  0.14960548389E+04  0.00000000000E+00 0.  1.
         21   -1    0    0  502  503 -0.00000000000E+00 -0.00000000000E+00 -0.75889358890E+03  0.75889358890E+03  0.00000000000E+00 0.  1.
         -6    2    1    2    0  503  0.46914833560E+03 -0.82686433173E+03  0.84418965472E+03  0.12829308599E+04  0.17161187103E+03 0.  0.
        -24    2    3    3    0    0  0.47496854883E+03 -0.78779882981E+03  0.82813059982E+03  0.12400359702E+04  0.75278139572E+02 0.  0.
          6    2    1    2  501    0 -0.46914833560E+03  0.82686433173E+03 -0.10702840470E+03  0.97201756791E+03  0.17192524261E+03 0.  0.
         24    2    5    5    0    0 -0.11667846498E+03  0.29146460660E+03 -0.14607514911E+02  0.32436674669E+03  0.80217989117E+02 0.  0.
          5    1    5    5  501    0 -0.35246987062E+03  0.53539972513E+03 -0.92420889788E+02  0.64765082123E+03  0.47000000000E+01 0. -1.
        -11    1    6    6    0    0 -0.48499617687E+02  0.38172444467E+02 -0.17746248007E+01  0.61745426758E+02  0.00000000000E+00 0.  1.
         12    1    6    6    0    0 -0.68178847292E+02  0.25329216213E+03 -0.12832890110E+02  0.26262131993E+03  0.00000000000E+00 0. -1.
         -5    1    3    3    0  503 -0.58202132326E+01 -0.39065501913E+02  0.16059054899E+02  0.42894889743E+02  0.47000000000E+01 0.  1.
         11    1    4    4    0    0  0.37398867383E+03 -0.56306201436E+03  0.58606835893E+03  0.89464097912E+03  0.00000000000E+00 0. -1.
        -12    1    4    4    0    0  0.10097987499E+03 -0.22473681545E+03  0.24206224089E+03  0.34539499105E+03  0.00000000000E+00 0.  1.
</event>
<event>
12    1  0.1061634E+000  0.1732115E+03  0.7818608E-02  0.1174749E+00
         21   -1    0    0  503  502  0.00000000000E+00  0.00000000000E+00  0.31940264977E+03  0.31940264977E+03  0.00000000000E+00 0.  1.
         21   -1    0    0  501  503 -0.00000000000E+00 -0.00000000000E+00 -0.10083733069E+03  0.10083733069E+03  0.00000000000E+00 0.  1.
          6    2    1    2  501    0  0.29349425515E+02  0.16163532436E+02  0.52793440671E+02  0.18107838259E+03  0.16993994440E+03 0.  0.
         24    2    3    3    0    0  0.40125507108E+02 -0.51631817417E+02  0.43218574822E+02  0.11160823467E+03  0.79452199125E+02 0.  0.
         -6    2    1    2    0  502 -0.29349425515E+02 -0.16163532436E+02  0.16577187841E+03  0.23916159787E+03  0.16910146559E+03 0.  0.
        -24    2    5    5    0    0 -0.44431433066E+02  0.45706137921E+01  0.18508241925E+03  0.20672151835E+03  0.80518578458E+02 0.  0.
          5    1    3    3  501    0 -0.10776081593E+02  0.67795349852E+02  0.95748658494E+01  0.69470147921E+02  0.47000000000E+01 0. -1.
        -13    1    4    4    0    0 -0.19178363767E+02  0.57330156430E+01  0.47514865213E+01  0.20573131247E+02  0.00000000000E+00 0.  1.
         14    1    4    4    0    0  0.59303870875E+02 -0.57364833060E+02  0.38467088301E+02  0.91035103422E+02  0.00000000000E+00 0. -1.
         -5    1    5    5    0  502  0.15082007551E+02 -0.20734146228E+02 -0.19310540843E+02  0.32440079519E+02  0.47000000000E+01 0.  1.
         13    1    6    6    0    0 -0.53078170013E+02 -0.24600510212E+02  0.94265811673E+02  0.11094377173E+03  0.00000000000E+00 0. -1.
        -14    1    6    6    0    0  0.86467369470E+01  0.29171124004E+02  0.90816607579E+02  0.95777746620E+02  0.00000000000E+00 0.  1.
</event>
<event>
12    1  0.1061634E+000  0.2053936E+03  0.7818608E-02  0.1146664E+00
         21   -1    0    0  503  502  0.00000000000E+00  0.00000000000E+00  0.12216867805E+03  0.12216867805E+03  0.00000000000E+00 0.  1.
         21   -1    0    0  501  503 -0.00000000000E+00 -0.00000000000E+00 -0.35072522920E+03  0.35072522920E+03  0.00000000000E+00 0.  1.
          6    2    1    2  501    0  0.92764741712E+02 -0.38020115750E+02 -0.60956641703E+02  0.20779721543E+03  0.17150260658E+03 0.  0.
         24    2    3    3    0    0  0.84025002920E+02  0.50841609559E+01  0.20441533721E+02  0.11515751191E+03  0.75877179976E+02 0.  0.
         -6    2    1    2    0  502 -0.92764741712E+02  0.38020115750E+02 -0.16759990945E+03  0.26509669182E+03  0.17926432958E+03 0.  0.
        -24    2    5    5    0    0 -0.60713621384E+02  0.21144844474E+02 -0.99284883587E+01  0.10324980083E+03  0.80179163254E+02 0.  0.
          5    1    3    3  501    0  0.87397387918E+01 -0.43104276706E+02 -0.81398175424E+02  0.92639703513E+02  0.47000000000E+01 0. -1.
        -11    1    4    4    0    0  0.56197530932E+02  0.37383617087E+02 -0.85379269306E+00  0.67501305701E+02  0.00000000000E+00 0.  1.
         12    1    4    4    0    0  0.27827471988E+02 -0.32299456131E+02  0.21295326414E+02  0.47656206214E+02  0.00000000000E+00 0. -1.
         -5    1    5    5    0  502 -0.32051120328E+02  0.16875271276E+02 -0.15767142109E+03  0.16184689099E+03  0.47000000000E+01 0.  1.
         11    1    6    6    0    0 -0.79585244514E+02  0.10581162306E+02 -0.23056698268E+01  0.80318666905E+02  0.00000000000E+00 0. -1.
        -12    1    6    6    0    0  0.18871623130E+02  0.10563682168E+02 -0.76228185318E+01  0.22931133920E+02  0.00000000000E+00 0.  1.
</event>
<event>
12    1  0.1061634E+000  0.1888838E+03  0.7818608E-02  0.1159771E+00
         21   -1    0    0  503  502  0.00000000000E+00  0.00000000000E+00  0.23905063630E+03  0.23905063630E+03  0.00000000000E+00 0. -1.
         21   -1    0    0  501  503 -0.00000000000E+00 -0.00000000000E+00 -0.15172260993E+03  0.15172260993E+03  0.00000000000E+00 0. -1.
          6    2    1    2  501    0  0.47053946281E+02  0.59543656828E+02  0.14079821711E+02  0.18940787106E+03  0.17296698907E+03 0.  0.
         24    2    3    3    0    0  0.46726444720E+02  0.64098722090E+02  0.70161063394E+02  0.13294503775E+03  0.80372889925E+02 0.  0.
         -6    2    1    2    0  502 -0.47053946281E+02 -0.59543656828E+02  0.73248204654E+02  0.20136537517E+03  0.17153190346E+03 0.  0.
        -24    2    5    5    0    0  0.12078386644E+02 -0.79043969238E+02  0.13692593359E+02  0.11507600260E+03  0.81615946761E+02 0.  0.
          5    1    3    3  501    0  0.32750156107E+00 -0.45550652619E+01 -0.56081241683E+02  0.56462833311E+02  0.47000000000E+01 0. -1.
        -13    1    4    4    0    0 -0.22834298219E+02  0.14089882044E+02  0.21764511236E+02  0.34548862506E+02  0.00000000000E+00 0.  1.
         14    1    4    4    0    0  0.69560742938E+02  0.50008840047E+02  0.48396552158E+02  0.98396175239E+02  0.00000000000E+00 0. -1.
         -5    1    5    5    0  502 -0.59132332925E+02  0.19500312409E+02  0.59555611295E+02  0.86289372567E+02  0.47000000000E+01 0.  1.
         13    1    6    6    0    0  0.10861140137E+02  0.15729611575E+02  0.57560834287E+01  0.19962904143E+02  0.00000000000E+00 0. -1.
        -14    1    6    6    0    0  0.12172465071E+01 -0.94773580812E+02  0.79365099307E+01  0.95113098461E+02  0.00000000000E+00 0.  1.
</event>
<event>
12    1  0.1061634E+000  0.2286436E+03  0.7818608E-02  0.1128766E+00
         21   -1    0    0  501  502  0.00000000000E+00  0.00000000000E+00  0.13477533842E+03  0.13477533842E+03  0.00000000000E+00 0.  1.
         21   -1    0    0  502  503 -0.00000000000E+00 -0.00000000000E+00 -0.51142525411E+03  0.51142525411E+03  0.00000000000E+00 0.  1.
         -6    2    1    2    0  503 -0.57497247814E+02 -0.11825178226E+03 -0.35198453793E+03  0.41623047205E+03  0.17906778999E+03 0.  0.
        -24    2    3    3    0    0  0.27218896315E+02 -0.82554817132E+02 -0.26404425071E+03  0.28892500276E+03  0.78753569701E+02 0.  0.
          6    2    1    2  501    0  0.57497247814E+02  0.11825178226E+03 -0.24665377757E+02  0.22997012048E+03  0.18705201934E+03 0.  0.
         24    2    5    5    0    0  0.81983021888E+02  0.29543010581E+02  0.15549336628E+01  0.13416618509E+03  0.10200069633E+03 0.  0.
          5    1    5    5  501    0 -0.24485774074E+02  0.88708771674E+02 -0.26220311420E+02  0.95803935383E+02  0.47000000000E+01 0. -1.
        -13    1    6    6    0    0  0.26057792043E+02  0.22230541102E+02  0.49462678513E+02  0.60164458358E+02  0.00000000000E+00 0.  1.
         14    1    6    6    0    0  0.55925229845E+02  0.73124694792E+01 -0.47907744851E+02  0.74001726735E+02  0.00000000000E+00 0. -1.
         -5    1    3    3    0  503 -0.84716144128E+02 -0.35696965123E+02 -0.87940287224E+02  0.12730546929E+03  0.47000000000E+01 0.  1.
         13    1    4    4    0    0  0.22619725825E+02  0.35603065094E+01 -0.21132479053E+02  0.31159419921E+02  0.00000000000E+00 0. -1.
        -14    1    4    4    0    0  0.45991704892E+01 -0.86115123641E+02 -0.24291177165E+03  0.25776558284E+03  0.00000000000E+00 0.  1.
</event>
<event>
12    1  0.1061634E+000  0.5751498E+03  0.7818608E-02  0.9958791E-01
         21   -1    0    0  501  502  0.00000000000E+00  0.00000000000E+00  0.12447372190E+04  0.12447372190E+04  0.00000000000E+00 0. -1.
         21   -1    0    0  502  503 -0.00000000000E+00 -0.00000000000E+00 -0.46227163794E+03  0.46227163794E+03  0.00000000000E+00 0. -1.
         -6    2    1    2    0  503 -0.32270128799E+03  0.44227025386E+03 -0.16594284370E+03  0.59783083713E+03  0.17356723116E+03 0.  0.
        -24    2    3    3    0    0 -0.26815499498E+03  0.37442619768E+03 -0.19458932339E+03  0.50606578475E+03  0.78329399823E+02 0.  0.
          6    2    1    2  501    0  0.32270128799E+03 -0.44227025386E+03  0.94840842477E+03  0.11091780198E+04  0.17623348367E+03 0.  0.
         24    2    5    5    0    0  0.26813945211E+03 -0.43324578929E+03  0.79468495704E+03  0.94574170371E+03  0.57467464418E+02 0.  0.
          5    1    5    5  501    0  0.54561835877E+02 -0.90244645691E+01  0.15372346773E+03  0.16343631612E+03  0.47000000000E+01 0. -1.
        -11    1    6    6    0    0  0.52579120911E+02 -0.13295971794E+03  0.21268368328E+03  0.25627563225E+03  0.00000000000E+00 0.  1.
         12    1    6    6    0    0  0.21556033120E+03 -0.30028607135E+03  0.58200127376E+03  0.68946607146E+03  0.00000000000E+00 0. -1.
         -5    1    3    3    0  503 -0.54546293009E+02  0.67844056184E+02  0.28646479691E+02  0.91765052385E+02  0.47000000000E+01 0.  1.
         13    1    4    4    0    0 -0.15682968823E+03  0.25692360081E+03 -0.15865719560E+03  0.34026077276E+03  0.00000000000E+00 0. -1.
        -14    1    4    4    0    0 -0.11132530675E+03  0.11750259686E+03 -0.35932127793E+02  0.16580501199E+03  0.00000000000E+00 0.  1.
</event>
<event>
12    1  0.1061634E+000  0.2619347E+03  0.7818608E-02  0.1106201E+00
         21   -1    0    0  503  502  0.00000000000E+00  0.00000000000E+00  0.13579884025E+03  0.13579884025E+03  0.00000000000E+00 0.  1.
         21   -1    0    0  501  503 -0.00000000000E+00 -0.00000000000E+00 -0.54030993183E+03  0.54030993183E+03  0.00000000000E+00 0.  1.
          6    2    1    2  501    0 -0.30872346571E+02 -0.19283685241E+03 -0.29224182397E+03  0.39244755599E+03  0.17455843460E+03 0.  0.
         24    2    3    3    0    0  0.21745083825E+02 -0.15913547288E+03 -0.27387977802E+03  0.32715106531E+03  0.78871663635E+02 0.  0.
         -6    2    1    2    0  502  0.30872346571E+02  0.19283685241E+03 -0.11226926760E+03  0.28366121610E+03  0.17239531211E+03 0.  0.
        -24    2    5    5    0    0 -0.15927490898E+02  0.17954505072E+03 -0.48177680774E+02  0.20305899354E+03  0.80135857933E+02 0.  0.
          5    1    3    3  501    0 -0.52617430397E+02 -0.33701379529E+02 -0.18362045957E+02  0.65296490682E+02  0.47000000000E+01 0. -1.
        -13    1    4    4    0    0  0.23246177093E+02 -0.94199467410E+01 -0.18684307813E+02  0.31276564781E+02  0.00000000000E+00 0.  1.
         14    1    4    4    0    0 -0.15010932674E+01 -0.14971552614E+03 -0.25519547020E+03  0.29587450053E+03  0.00000000000E+00 0. -1.
         -5    1    5    5    0  502  0.46799837470E+02  0.13291801693E+02 -0.64091586829E+02  0.80602222560E+02  0.47000000000E+01 0.  1.
         13    1    6    6    0    0  0.24688603497E+02  0.96868108026E+02 -0.48121134461E+02  0.11094413494E+03  0.00000000000E+00 0. -1.
        -14    1    6    6    0    0 -0.40616094395E+02  0.82676942694E+02 -0.56546313716E-01  0.92114858599E+02  0.00000000000E+00 0.  1.
</event>
<event>
12    1  0.1061634E+000  0.2247870E+03  0.7818608E-02  0.1130411E+00
         21   -1    0    0  501  502  0.00000000000E+00  0.00000000000E+00  0.91428061641E+02  0.91428061641E+02  0.00000000000E+00 0. -1.
         21   -1    0    0  502  503 -0.00000000000E+00 -0.00000000000E+00 -0.60260607047E+03  0.60260607047E+03  0.00000000000E+00 0. -1.
         -6    2    1    2    0  503  0.14846075283E+02 -0.14322016050E+03 -0.15491436320E+03  0.27278244050E+03  0.17227704314E+03 0.  0.
        -24    2    3    3    0    0  0.64648855886E+02 -0.11721746017E+03 -0.15092505628E+03  0.21626286911E+03  0.77922066245E+02 0.  0.
          6    2    1    2  501    0 -0.14846075283E+02  0.14322016050E+03 -0.35626364563E+03  0.42125169162E+03  0.17261744456E+03 0.  0.
         24    2    5    5    0    0 -0.31116150454E+02  0.31750706072E+02 -0.25029142154E+03  0.26651851193E+03  0.80062471556E+02 0.  0.
          5    1    5    5  501    0  0.16270075171E+02  0.11146945443E+03 -0.10597222409E+03  0.15473317969E+03  0.47000000000E+01 0. -1.
        -13    1    6    6    0    0 -0.47141459117E+02  0.45850132437E+02 -0.14691378104E+03  0.16096027731E+03  0.00000000000E+00 0.  1.
         14    1    6    6    0    0  0.16025308663E+02 -0.14099426365E+02 -0.10337764050E+03  0.10555823462E+03  0.00000000000E+00 0. -1.
         -5    1    3    3    0  503 -0.49802780603E+02 -0.26002700332E+02 -0.39893069278E+01  0.56519571390E+02  0.47000000000E+01 0.  1.
         13    1    4    4    0    0  0.20215103519E+02 -0.69789393083E+02 -0.12830258395E+03  0.14744749182E+03  0.00000000000E+00 0. -1.
        -14    1    4    4    0    0  0.44433752367E+02 -0.47428067085E+02 -0.22622472328E+02  0.68815377287E+02  0.00000000000E+00 0.  1.
</event>
<event>
12    1  0.1061634E+000  0.4694078E+03  0.7818608E-02  0.1022147E+00
         21   -1    0    0  503  502  0.00000000000E+00  0.00000000000E+00  0.33618616519E+03  0.33618616519E+03  0.00000000000E+00 0. -1.
         21   -1    0    0  501  503 -0.00000000000E+00 -0.00000000000E+00 -0.87294288813E+03  0.87294288813E+03  0.00000000000E+00 0.  1.
          6    2    1    2  501    0  0.22974601113E+03 -0.37173511372E+03  0.34407873916E+02  0.46982352188E+03  0.16905624957E+03 0.  0.
         24    2    3    3    0    0  0.91335144440E+02 -0.10203451141E+03 -0.32783057535E+02  0.15928738199E+03  0.74462010934E+02 0.  0.
         -6    2    1    2    0  502 -0.22974601113E+03  0.37173511372E+03 -0.57116459685E+03  0.73930553144E+03  0.17138683645E+03 0.  0.
        -24    2    5    5    0    0 -0.37775494259E+02  0.99473946642E+02 -0.20060418254E+03  0.24099244401E+03  0.80704807713E+02 0.  0.
          5    1    3    3  501    0  0.13841086669E+03 -0.26970060232E+03  0.67190931452E+02  0.31053613989E+03  0.47000000000E+01 0. -1.
        -13    1    4    4    0    0  0.66478846715E+02 -0.10355868184E+03 -0.45652699936E+02  0.13125550143E+03  0.00000000000E+00 0.  1.
         14    1    4    4    0    0  0.24856297725E+02  0.15241704335E+01  0.12869642401E+02  0.28031880558E+02  0.00000000000E+00 0. -1.
         -5    1    5    5    0  502 -0.19197051687E+03  0.27226116708E+03 -0.37056041431E+03  0.49831308743E+03  0.47000000000E+01 0.  1.
         11    1    6    6    0    0 -0.36457595966E+02  0.25035719618E+01 -0.52793985257E+02  0.64207702462E+02  0.00000000000E+00 0. -1.
        -12    1    6    6    0    0 -0.13178982929E+01  0.96970374680E+02 -0.14781019729E+03  0.17678474155E+03  0.00000000000E+00 0.  1.
</event>
<event>
12    1  0.1061634E+000  0.2060164E+03  0.7818608E-02  0.1145363E+00
         21   -1    0    0  503  502  0.00000000000E+00  0.00000000000E+00  0.68871505723E+02  0.68871505723E+02  0.00000000000E+00 0.  1.
         21   -1    0    0  501  503 -0.00000000000E+00 -0.00000000000E+00 -0.80722963775E+03  0.80722963775E+03  0.00000000000E+00 0.  1.
          6    2    1    2  501    0 -0.50947995425E+02 -0.10061785034E+03 -0.58908226557E+03  0.62406785622E+03  0.17240395445E+03 0.  0.
         24    2    3    3    0    0 -0.54787129879E+02  0.61493912714E+01 -0.22911687958E+03  0.24855333993E+03  0.79023880359E+02 0.  0.
         -6    2    1    2    0  502  0.50947995425E+02  0.10061785034E+03 -0.14927586645E+03  0.25203328725E+03  0.16887226988E+03 0.  0.
        -24    2    5    5    0    0 -0.11270222053E+02  0.31528427097E+02 -0.13109488160E+03  0.15718027887E+03  0.79991952487E+02 0.  0.
          5    1    3    3  501    0  0.38391344540E+01 -0.10676724161E+03 -0.35996538599E+03  0.37551451629E+03  0.47000000000E+01 0. -1.
        -13    1    4    4    0    0 -0.27603957532E+02  0.16338237663E+02 -0.21289606951E+03  0.21529898489E+03  0.00000000000E+00 0.  1.
         14    1    4    4    0    0 -0.27183172347E+02 -0.10188846392E+02 -0.16220810069E+02  0.33254355037E+02  0.00000000000E+00 0. -1.
         -5    1    5    5    0  502  0.62218217479E+02  0.69089423240E+02 -0.18180984857E+02  0.94853008388E+02  0.47000000000E+01 0.  1.
         13    1    6    6    0    0 -0.23344365206E+02  0.44818661364E+02 -0.12966884368E+03  0.13916781529E+03  0.00000000000E+00 0. -1.
        -14    1    6    6    0    0  0.12074143153E+02 -0.13290234267E+02 -0.14260379208E+01  0.18012463571E+02  0.00000000000E+00 0.  1.
</event>
<event>
12    1  0.1061634E+000  0.2008337E+03  0.7818608E-02  0.1149433E+00
         21   -1    0    0  501  502  0.00000000000E+00  0.00000000000E+00  0.44514693596E+03  0.44514693596E+03  0.00000000000E+00 0. -1.
         21   -1    0    0  502  503 -0.00000000000E+00 -0.00000000000E+00 -0.94705745643E+02  0.94705745643E+02  0.00000000000E+00 0. -1.
         -6    2    1    2    0  503  0.10018171679E+03  0.26129748041E+02  0.23766080278E+03  0.31115401399E+03  0.17209015990E+03 0.  0.
        -24    2    3    3    0    0  0.52504134128E+02  0.82632734054E+02  0.15203429620E+03  0.19792977654E+03  0.80479291646E+02 0.  0.
          6    2    1    2  501    0 -0.10018171679E+03 -0.26129748041E+02  0.11278038753E+03  0.22869866761E+03  0.16989562867E+03 0.  0.
         24    2    5    5    0    0 -0.13761258908E+03 -0.15693308777E+02  0.92954785380E+02  0.18482231901E+03  0.79593924818E+02 0.  0.
          5    1    5    5  501    0  0.37430872292E+02 -0.10436439264E+02  0.19825602153E+02  0.43876348592E+02  0.47000000000E+01 0. -1.
        -13    1    6    6    0    0 -0.97146771805E+02  0.21711664513E+02  0.81236917232E+02  0.12848473983E+03  0.00000000000E+00 0.  1.
         14    1    6    6    0    0 -0.40465817273E+02 -0.37404973290E+02  0.11717868148E+02  0.56337579184E+02  0.00000000000E+00 0. -1.
         -5    1    3    3    0  503  0.47677582658E+02 -0.56502986013E+02  0.85626506578E+02  0.11322423745E+03  0.47000000000E+01 0.  1.
         11    1    4    4    0    0  0.19736104124E+02  0.19566597273E+02 -0.24319946089E+01  0.27897672531E+02  0.00000000000E+00 0. -1.
        -12    1    4    4    0    0  0.32768030004E+02  0.63066136781E+02  0.15446629081E+03  0.17003210401E+03  0.00000000000E+00 0.  1.
</event>
<event>
12    1  0.1061634E+000  0.2091309E+03  0.7818608E-02  0.1142439E+00
         21   -1    0    0  503  502  0.00000000000E+00  0.00000000000E+00  0.25713594716E+03  0.25713594716E+03  0.00000000000E+00 0. -1.
         21   -1    0    0  501  503 -0.00000000000E+00 -0.00000000000E+00 -0.16943837971E+03  0.16943837971E+03  0.00000000000E+00 0. -1.
          6    2    1    2  501    0 -0.11009290425E+03  0.47285328195E+02  0.38647810870E+02  0.21176830064E+03  0.17028156107E+03 0.  0.
         24    2    3    3    0    0 -0.98195864303E+01 -0.80829273120E+01 -0.19555348236E+02  0.83198943035E+02  0.79861721030E+02 0.  0.
         -6    2    1    2    0  502  0.11009290425E+03 -0.47285328195E+02  0.49049756584E+02  0.21480602624E+03  0.17140420198E+03 0.  0.
        -24    2    5    5    0    0  0.11179666857E+03  0.15323962100E+02  0.54261461637E+01  0.13833423124E+03  0.79834814155E+02 0.  0.
          5    1    3    3  501    0 -0.10027331782E+03  0.55368255507E+02  0.58203159106E+02  0.12856935760E+03  0.47000000000E+01 0. -1.
        -13    1    4    4    0    0 -0.11240150171E+02  0.27748964672E+02 -0.33313798025E+02  0.44790123409E+02  0.00000000000E+00 0.  1.
         14    1    4    4    0    0  0.14205637409E+01 -0.35831891984E+02  0.13758449788E+02  0.38408819626E+02  0.00000000000E+00 0. -1.
         -5    1    5    5    0  502 -0.17037643261E+01 -0.62609290295E+02  0.43623610420E+02  0.76471794998E+02  0.47000000000E+01 0.  1.
         11    1    6    6    0    0  0.40664614291E+01  0.79383425033E+01 -0.24672203754E+02  0.26234920017E+02  0.00000000000E+00 0. -1.
        -12    1    6    6    0    0  0.10773020714E+03  0.73856195967E+01  0.30098349917E+02  0.11209931122E+03  0.00000000000E+00 0.  1.
</event>
<event>
12    1  0.1061634E+000  0.2427053E+03  0.7818608E-02  0.1118142E+00
         21   -1    0    0  501  502  0.00000000000E+00  0.00000000000E+00  0.41138517288E+03  0.41138517288E+03  0.00000000000E+00 0.  1.
         21   -1    0    0  502  503 -0.00000000000E+00 -0.00000000000E+00 -0.27339511057E+03  0.27339511057E+03  0.00000000000E+00 0.  1.
         -6    2    1    2    0  503  0.19566659661E+02  0.17106272624E+03  0.30579365778E+03  0.39040446181E+03  0.17105721903E+03 0.  0.
        -24    2    3    3    0    0  0.25796649261E+02  0.18513706091E+03  0.31284960009E+03  0.37283243892E+03  0.78663567179E+02 0.  0.
          6    2    1    2  501    0 -0.19566659661E+02 -0.17106272624E+03 -0.16780359547E+03  0.29437582164E+03  0.16986396684E+03 0.  0.
         24    2    5    5    0    0 -0.23549983327E+02 -0.17650684133E+02 -0.38752769787E+02  0.93808308958E+02  0.80200207596E+02 0.  0.
          5    1    5    5  501    0  0.39833236662E+01 -0.15341204211E+03 -0.12905082568E+03  0.20056751268E+03  0.47000000000E+01 0. -1.
        -13    1    6    6    0    0  0.13556439459E+02  0.23827578952E+02 -0.23485578002E+02  0.36098517194E+02  0.00000000000E+00 0.  1.
         14    1    6    6    0    0 -0.37106422786E+02 -0.41478263084E+02 -0.15267191784E+02  0.57709791764E+02  0.00000000000E+00 0. -1.
         -5    1    3    3    0  503 -0.62299896006E+01 -0.14074334663E+02 -0.70559423087E+01  0.17572022891E+02  0.47000000000E+01 0.  1.
         11    1    4    4    0    0 -0.14617000110E+02  0.12519051365E+03  0.23447768093E+03  0.26620688243E+03  0.00000000000E+00 0. -1.
        -12    1    4    4    0    0  0.40413649372E+02  0.59946547260E+02  0.78371919155E+02  0.10662555649E+03  0.00000000000E+00 0.  1.
</event>
<event>
12    1  0.1061634E+000  0.2064005E+03  0.7818608E-02  0.1144704E+00
         21   -1    0    0  503  502  0.00000000000E+00  0.00000000000E+00  0.83175746971E+02  0.83175746971E+02  0.00000000000E+00 0. -1.
         21   -1    0    0  501  503 -0.00000000000E+00 -0.00000000000E+00 -0.51008733864E+03  0.51008733864E+03  0.00000000000E+00 0. -1.
          6    2    1    2  501    0  0.57234902823E+02 -0.97550076730E+02 -0.22734283743E+03  0.30706015492E+03  0.17265376172E+03 0.  0.
         24    2    3    3    0    0 -0.23675273941E+02 -0.70745887184E+02 -0.74168266583E+02  0.13170491423E+03  0.79244895833E+02 0.  0.
         -6    2    1    2    0  502 -0.57234902823E+02  0.97550076730E+02 -0.19956875424E+03  0.28620293069E+03  0.17115074729E+03 0.  0.
        -24    2    5    5    0    0  0.19743239711E+02  0.11005834555E+02 -0.47521824618E+02  0.95006960315E+02  0.79101673717E+02 0.  0.
          5    1    3    3  501    0  0.80910176764E+02 -0.26804189545E+02 -0.15317457085E+03  0.17535524069E+03  0.47000000000E+01 0. -1.
        -11    1    4    4    0    0 -0.24153304543E+02 -0.79386170761E+02 -0.32449868861E+02  0.89098486056E+02  0.00000000000E+00 0.  1.
         12    1    4    4    0    0  0.47803060201E+00  0.86402835761E+01 -0.41718397722E+02  0.42606428177E+02  0.00000000000E+00 0. -1.
         -5    1    5    5    0  502 -0.76978142534E+02  0.86544242175E+02 -0.15204692962E+03  0.19119597038E+03  0.47000000000E+01 0.  1.
         11    1    6    6    0    0 -0.67452028128E+01 -0.54288721471E+01  0.19365096009E+02  0.21212669733E+02  0.00000000000E+00 0. -1.
        -12    1    6    6    0    0  0.26488442523E+02  0.16434706702E+02 -0.66886920626E+02  0.73794290582E+02  0.00000000000E+00 0.  1.
</event>
<event>
12    1  0.1061634E+000  0.1846562E+03  0.7818608E-02  0.1168277E+00
         21   -1    0    0  501  502  0.00000000000E+00  0.00000000000E+00  0.26367766708E+03  0.26367766708E+03  0.00000000000E+00 0.  1.
         21   -1    0    0  502  503 -0.00000000000E+00 -0.00000000000E+00 -0.42536101928E+03  0.42536101928E+03  0.00000000000E+00 0.  1.
         -6    2    1    2    0  503 -0.67983254755E+02  0.15592657313E+02  0.21414884548E+03  0.27029322351E+03  0.14944512293E+03 0.  0.
        -24    2    3    3    0    0 -0.37353982132E+02 -0.38052271151E+01  0.47822771582E+02  0.99996766945E+02  0.79388514176E+02 0.  0.
          6    2    1    2  501    0  0.67983254755E+02 -0.15592657313E+02 -0.37583219768E+03  0.41874546284E+03  0.17097680529E+03 0.  0.
         24    2    5    5    0    0 -0.10223744005E+02  0.24933034500E+02 -0.10540663819E+03  0.13429733123E+03  0.78733935819E+02 0.  0.
          5    1    5    5  501    0  0.78206998761E+02 -0.40525691814E+02 -0.27042555949E+03  0.28444813161E+03  0.47000000000E+01 0. -1.
        -11    1    6    6    0    0 -0.39513530144E+02  0.14113066949E+02 -0.90381527397E+02  0.99645964383E+02  0.00000000000E+00 0.  1.
         12    1    6    6    0    0  0.29289786138E+02  0.10819967552E+02 -0.15025110791E+02  0.34651366844E+02  0.00000000000E+00 0. -1.
         -5    1    3    3    0  503 -0.30629272623E+02  0.19397884429E+02  0.16632607390E+03  0.17029645657E+03  0.47000000000E+01 0.  1.
         11    1    4    4    0    0 -0.20192549048E+02  0.24726812476E+02 -0.98445608711E+01  0.33407628934E+02  0.00000000000E+00 0. -1.
        -12    1    4    4    0    0 -0.17161433084E+02 -0.28532039591E+02  0.57667332453E+02  0.66589138011E+02  0.00000000000E+00 0.  1.
</event>
<event>
12    1  0.1061634E+000  0.2194582E+03  0.7818608E-02  0.1134394E+00
         21   -1    0    0  501  502  0.00000000000E+00  0.00000000000E+00  0.48004469555E+03  0.48004469555E+03  0.00000000000E+00 0. -1.
         21   -1    0    0  502  503 -0.00000000000E+00 -0.00000000000E+00 -0.11348575917E+03  0.11348575917E+03  0.00000000000E+00 0. -1.
         -6    2    1    2    0  503  0.31414398572E+02  0.13402352504E+03  0.28552802626E+03  0.36012244564E+03  0.17091738464E+03 0.  0.
        -24    2    3    3    0    0  0.27274093801E+02  0.59025052238E+02  0.25952799713E+03  0.28049830005E+03  0.84241807029E+02 0.  0.
          6    2    1    2  501    0 -0.31414398572E+02 -0.13402352504E+03  0.81030910121E+02  0.23340800909E+03  0.17018848554E+03 0.  0.
         24    2    5    5    0    0 -0.36293742328E+02 -0.15970060659E+03  0.43296376659E+02  0.18726577758E+03  0.79827161702E+02 0.  0.
          5    1    5    5  501    0  0.48793437552E+01  0.25677081551E+02  0.37734533462E+02  0.46142231503E+02  0.47000000000E+01 0. -1.
        -11    1    6    6    0    0  0.43276272690E+01 -0.11536034673E+03  0.51804539451E+02  0.12653240005E+03  0.00000000000E+00 0.  1.
         12    1    6    6    0    0 -0.40621369597E+02 -0.44340259860E+02 -0.85081627918E+01  0.60733377532E+02  0.00000000000E+00 0. -1.
         -5    1    3    3    0  503  0.41403047715E+01  0.74998472801E+02  0.26000029122E+02  0.79624145587E+02  0.47000000000E+01 0.  1.
         11    1    4    4    0    0  0.22732293158E+02 -0.16064872957E+02  0.10507311446E+03  0.10869773079E+03  0.00000000000E+00 0. -1.
        -12    1    4    4    0    0  0.45418006433E+01  0.75089925195E+02  0.15445488267E+03  0.17180056927E+03  0.00000000000E+00 0.  1.
</event>
<event>
12    1  0.1061634E+000  0.2993879E+03  0.7818608E-02  0.1085673E+00
         21   -1    0    0  501  502  0.00000000000E+00  0.00000000000E+00  0.11608423801E+03  0.11608423801E+03  0.00000000000E+00 0. -1.
         21   -1    0    0  502  503 -0.00000000000E+00 -0.00000000000E+00 -0.78286074123E+03  0.78286074123E+03  0.00000000000E+00 0. -1.
         -6    2    1    2    0  503 -0.18203085388E+03  0.16179080381E+03 -0.27533378926E+03  0.40674539122E+03  0.17413104779E+03 0.  0.
        -24    2    3    3    0    0 -0.27181497627E+02  0.92112929784E+02 -0.15285553260E+03  0.19732633140E+03  0.79682128300E+02 0.  0.
          6    2    1    2  501    0  0.18203085388E+03 -0.16179080381E+03 -0.39144271396E+03  0.49219958802E+03  0.17239936246E+03 0.  0.
         24    2    5    5    0    0  0.77642516894E+02 -0.15482804549E+03 -0.22557522146E+03  0.29603761421E+03  0.82182749965E+02 0.  0.
          5    1    5    5  501    0  0.10438833699E+03 -0.69627583226E+01 -0.16586749250E+03  0.19616197381E+03  0.47000000000E+01 0. -1.
        -13    1    6    6    0    0  0.51287219776E+02 -0.13773022007E+03 -0.21931277685E+03  0.26400395172E+03  0.00000000000E+00 0.  1.
         14    1    6    6    0    0  0.26355297118E+02 -0.17097825417E+02 -0.62624446086E+01  0.32033662492E+02  0.00000000000E+00 0. -1.
         -5    1    3    3    0  503 -0.15484935625E+03  0.69677874026E+02 -0.12247825667E+03  0.20941905982E+03  0.47000000000E+01 0.  1.
         11    1    4    4    0    0  0.14632548630E+02  0.90177027731E+01  0.13444735832E+01  0.17240593143E+02  0.00000000000E+00 0. -1.
        -12    1    4    4    0    0 -0.41814046257E+02  0.83095227011E+02 -0.15420000618E+03  0.18008573825E+03  0.00000000000E+00 0.  1.
</event>
<event>
12    1  0.1061634E+000  0.2113787E+03  0.7818608E-02  0.1140724E+00
         21   -1    0    0  503  502  0.00000000000E+00  0.00000000000E+00  0.33408022043E+03  0.33408022043E+03  0.00000000000E+00 0.  1.
         21   -1    0    0  501  503 -0.00000000000E+00 -0.00000000000E+00 -0.14380334882E+03  0.14380334882E+03  0.00000000000E+00 0.  1.
          6    2    1    2  501    0 -0.17443807863E+02 -0.11975757108E+03  0.16050193019E+03  0.26441812160E+03  0.17178449048E+03 0.  0.
         24    2    3    3    0    0  0.50417347003E+02 -0.10032617607E+03  0.10716519140E+03  0.17582007897E+03  0.82589778058E+02 0.  0.
         -6    2    1    2    0  502  0.17443807863E+02  0.11975757108E+03  0.29774941415E+02  0.21346544766E+03  0.17330547580E+03 0.  0.
        -24    2    5    5    0    0  0.50479734130E+02  0.10068585814E+03 -0.31301663354E+02  0.14130213074E+03  0.79376649176E+02 0.  0.
          5    1    3    3  501    0 -0.67861154866E+02 -0.19431395013E+02  0.53336738795E+02  0.88598042626E+02  0.47000000000E+01 0. -1.
        -13    1    4    4    0    0  0.17943764639E+02  0.12503509756E+02  0.19369810904E+02  0.29214825348E+02  0.00000000000E+00 0.  1.
         14    1    4    4    0    0  0.32473582364E+02 -0.11282968582E+03  0.87795380494E+02  0.14660525362E+03  0.00000000000E+00 0. -1.
         -5    1    5    5    0  502 -0.33035926267E+02  0.19071712936E+02  0.61076604769E+02  0.72163316919E+02  0.47000000000E+01 0.  1.
         13    1    6    6    0    0  0.32402302006E+02  0.22800882066E+01  0.85760530343E+01  0.33595485756E+02  0.00000000000E+00 0. -1.
        -14    1    6    6    0    0  0.18077432124E+02  0.98405769936E+02 -0.39877716389E+02  0.10770664498E+03  0.00000000000E+00 0.  1.
</event>
<event>
12    1  0.1061634E+000  0.1763758E+03  0.7818608E-02  0.1171384E+00
         21   -1    0    0  503  502  0.00000000000E+00  0.00000000000E+00  0.29355975208E+03  0.29355975208E+03  0.00000000000E+00 0. -1.
         21   -1    0    0  501  503 -0.00000000000E+00 -0.00000000000E+00 -0.11079242139E+03  0.11079242139E+03  0.00000000000E+00 0. -1.
          6    2    1    2  501    0 -0.29084571170E+02 -0.10652218812E+02  0.13381464972E+03  0.22130902593E+03  0.17352792984E+03 0.  0.
         24    2    3    3    0    0 -0.51324345940E+02 -0.10919645539E+02  0.15972926362E+03  0.18683677168E+03  0.81493033137E+02 0.  0.
         -6    2    1    2    0  502  0.29084571170E+02  0.10652218812E+02  0.48952680977E+02  0.18304314754E+03  0.17363480884E+03 0.  0.
        -24    2    5    5    0    0  0.61921447273E+02 -0.40505960424E+02  0.58407468891E+01  0.10836953376E+03  0.78961022412E+02 0.  0.
          5    1    3    3  501    0  0.22239774771E+02  0.26742672786E+00 -0.25914613909E+02  0.34472254248E+02  0.47000000000E+01 0. -1.
        -11    1    4    4    0    0 -0.15487076429E+02 -0.37950686657E+02  0.33739277043E+02  0.53089009875E+02  0.00000000000E+00 0.  1.
         12    1    4    4    0    0 -0.35837269512E+02  0.27031041118E+02  0.12598998658E+03  0.13374776181E+03  0.00000000000E+00 0. -1.
         -5    1    5    5    0  502 -0.32836876104E+02  0.51158179236E+02  0.43111934088E+02  0.74673613785E+02  0.47000000000E+01 0.  1.
         11    1    6    6    0    0 -0.87584035799E+01 -0.36036048171E+02  0.58805804437E+01  0.37548470373E+02  0.00000000000E+00 0. -1.
        -12    1    6    6    0    0  0.70679850853E+02 -0.44699122535E+01 -0.39833554559E-01  0.70821063385E+02  0.00000000000E+00 0.  1.
</event>
<event>
12    1  0.1061634E+000  0.1976627E+03  0.7818608E-02  0.1152520E+00
         21   -1    0    0  501  502  0.00000000000E+00  0.00000000000E+00  0.28537266195E+03  0.28537266195E+03  0.00000000000E+00 0. -1.
         21   -1    0    0  502  503 -0.00000000000E+00 -0.00000000000E+00 -0.13438295413E+03  0.13438295413E+03  0.00000000000E+00 0. -1.
         -6    2    1    2    0  503  0.32056255625E+02  0.92403359113E+02  0.75534473023E+02  0.20818050091E+03  0.16753411606E+03 0.  0.
        -24    2    3    3    0    0 -0.18607827458E+02  0.77970908847E+01 -0.28542413514E+01  0.82117221247E+02  0.79549012958E+02 0.  0.
          6    2    1    2  501    0 -0.32056255625E+02 -0.92403359113E+02  0.75455234789E+02  0.21157511517E+03  0.17176889300E+03 0.  0.
         24    2    5    5    0    0  0.22159608305E+02 -0.68638771458E+02 -0.15347145253E+02  0.10307959568E+03  0.72024572133E+02 0.  0.
          5    1    5    5  501    0 -0.54215863930E+02 -0.23764587655E+02  0.90802380042E+02  0.10849551949E+03  0.47000000000E+01 0. -1.
        -11    1    6    6    0    0  0.17334240193E+02 -0.69726339362E+02  0.14100612174E+02  0.73219297644E+02  0.00000000000E+00 0.  1.
         12    1    6    6    0    0  0.48253681119E+01  0.10875679036E+01 -0.29447757427E+02  0.29860298037E+02  0.00000000000E+00 0. -1.
         -5    1    3    3    0  503  0.50664083083E+02  0.84606268228E+02  0.78388714375E+02  0.12606327966E+03  0.47000000000E+01 0.  1.
         11    1    4    4    0    0 -0.24714834460E+02  0.21523550585E+02 -0.34193278711E+02  0.47363135255E+02  0.00000000000E+00 0. -1.
        -12    1    4    4    0    0  0.61070070021E+01 -0.13726459701E+02  0.31339037360E+02  0.34754085991E+02  0.00000000000E+00 0.  1.
</event>
<event>
12    1  0.1061634E+000  0.3046102E+03  0.7818608E-02  0.1083245E+00
         21   -1    0    0  501  502  0.00000000000E+00  0.00000000000E+00  0.11285644031E+03  0.11285644031E+03  0.00000000000E+00 0. -1.
         21   -1    0    0  502  503 -0.00000000000E+00 -0.00000000000E+00 -0.98391925508E+03  0.98391925508E+03  0.00000000000E+00 0.  1.
         -6    2    1    2    0  503 -0.18592484653E+03 -0.16576130581E+03 -0.66075645841E+03  0.72661881065E+03  0.17126277940E+03 0.  0.
        -24    2    3    3    0    0 -0.15939901552E+03 -0.76033982790E+02 -0.54512445161E+03  0.57779857277E+03  0.74170818177E+02 0.  0.
          6    2    1    2  501    0  0.18592484653E+03  0.16576130581E+03 -0.21030635637E+03  0.37015688474E+03  0.17533538357E+03 0.  0.
         24    2    5    5    0    0  0.14039245793E+03  0.88730373401E+02 -0.56843688348E+02  0.19244970021E+03  0.78883209857E+02 0.  0.
          5    1    5    5  501    0  0.45532388597E+02  0.77030932406E+02 -0.15346266802E+03  0.17770718453E+03  0.47000000000E+01 0. -1.
        -13    1    6    6    0    0  0.37280346591E+02  0.35283894836E+02  0.17871127457E+02  0.54352135867E+02  0.00000000000E+00 0.  1.
         14    1    6    6    0    0  0.10311211134E+03  0.53446478566E+02 -0.74714815806E+02  0.13809756434E+03  0.00000000000E+00 0. -1.
         -5    1    3    3    0  503 -0.26525831003E+02 -0.89727323018E+02 -0.11563200680E+03  0.14882023788E+03  0.47000000000E+01 0.  1.
         13    1    4    4    0    0 -0.13885697842E+03 -0.32139808764E+02 -0.38685123145E+03  0.41227188000E+03  0.00000000000E+00 0. -1.
        -14    1    4    4    0    0 -0.20542037105E+02 -0.43894174025E+02 -0.15827322016E+03  0.16552669277E+03  0.00000000000E+00 0.  1.
</event>
<event>
12    1  0.1061634E+000  0.2283289E+03  0.7818608E-02  0.1128188E+00
         21   -1    0    0  503  502  0.00000000000E+00  0.00000000000E+00  0.19799550964E+03  0.19799550964E+03  0.00000000000E+00 0.  1.
         21   -1    0    0  501  503 -0.00000000000E+00 -0.00000000000E+00 -0.31508859590E+03  0.31508859590E+03  0.00000000000E+00 0.  1.
          6    2    1    2  501    0 -0.77180015227E+02 -0.12976118367E+03 -0.16467038906E+03  0.27985103589E+03  0.16853944855E+03 0.  0.
         24    2    3    3    0    0 -0.97668221378E+02 -0.46968841743E+02 -0.13139767175E+03  0.18818041797E+03  0.80008549565E+02 0.  0.
         -6    2    1    2    0  502  0.77180015227E+02  0.12976118367E+03  0.47577302796E+02  0.23323306965E+03  0.17128731856E+03 0.  0.
        -24    2    5    5    0    0  0.10294476149E+03  0.14185359620E+03  0.59219792951E+02  0.20212541517E+03  0.81410275196E+02 0.  0.
          5    1    3    3  501    0  0.20488206151E+02 -0.82792341925E+02 -0.33272717308E+02  0.91670617920E+02  0.47000000000E+01 0. -1.
        -13    1    4    4    0    0 -0.79074296975E+02 -0.14561016700E+02 -0.12733731405E+03  0.15059734128E+03  0.00000000000E+00 0.  1.
         14    1    4    4    0    0 -0.18593924403E+02 -0.32407825043E+02 -0.40603576925E+01  0.37583076688E+02  0.00000000000E+00 0. -1.
         -5    1    5    5    0  502 -0.25764746259E+02 -0.12092412531E+02 -0.11642490155E+02  0.31107654486E+02  0.47000000000E+01 0.  1.
         13    1    6    6    0    0 -0.56422560259E+01  0.31439678228E+02 -0.85760452747E+01  0.33073206265E+02  0.00000000000E+00 0. -1.
        -14    1    6    6    0    0  0.10858701751E+03  0.11041391797E+03  0.67795838226E+02  0.16905220890E+03  0.00000000000E+00 0.  1.
</event>
<event>
12    1  0.1061634E+000  0.1755343E+03  0.7818608E-02  0.1174000E+00
         21   -1    0    0  503  502  0.00000000000E+00  0.00000000000E+00  0.32094106644E+02  0.32094106644E+02  0.00000000000E+00 0. -1.
         21   -1    0    0  501  503 -0.00000000000E+00 -0.00000000000E+00 -0.94355787954E+03  0.94355787954E+03  0.00000000000E+00 0. -1.
          6    2    1    2  501    0 -0.77092073770E+01 -0.20562093319E+01 -0.37260351078E+03  0.40892216568E+03  0.16828636742E+03 0.  0.
         24    2    3    3    0    0  0.49989112548E+02 -0.33343896072E+02 -0.25846646230E+03  0.27717478886E+03  0.80063878637E+02 0.  0.
         -6    2    1    2    0  502  0.77092073770E+01  0.20562093319E+01 -0.53886026212E+03  0.56672982051E+03  0.17535292268E+03 0.  0.
        -24    2    5    5    0    0 -0.50271476981E+00  0.58251152663E+02 -0.17360081445E+03  0.19705176946E+03  0.72792221835E+02 0.  0.
          5    1    3    3  501    0 -0.57698319925E+02  0.31287686740E+02 -0.11413704848E+03  0.13174737682E+03  0.47000000000E+01 0. -1.
        -11    1    4    4    0    0  0.13195399285E+02  0.27177636251E-01  0.77419333946E+00  0.13218119240E+02  0.00000000000E+00 0.  1.
         12    1    4    4    0    0  0.36793713263E+02 -0.33371073708E+02 -0.25924065564E+03  0.26395666962E+03  0.00000000000E+00 0. -1.
         -5    1    5    5    0  502  0.82119221468E+01 -0.56194943331E+02 -0.36525944766E+03  0.36967805105E+03  0.47000000000E+01 0.  1.
         11    1    6    6    0    0 -0.14340661220E+02 -0.11886218243E+02 -0.60035446824E+02  0.62858504784E+02  0.00000000000E+00 0. -1.
        -12    1    6    6    0    0  0.13837946451E+02  0.70137370906E+02 -0.11356536763E+03  0.13419326468E+03  0.00000000000E+00 0.  1.
</event>
<event>
12    1  0.1061634E+000  0.3303213E+03  0.7818608E-02  0.1071061E+00
         21   -1    0    0  503  502  0.00000000000E+00  0.00000000000E+00  0.33022735633E+03  0.33022735633E+03  0.00000000000E+00 0. -1.
         21   -1    0    0  501  503 -0.00000000000E+00 -0.00000000000E+00 -0.33090384576E+03  0.33090384576E+03  0.00000000000E+00 0. -1.
          6    2    1    2  501    0  0.12936327824E+03 -0.25048931369E+03  0.18632218316E+02  0.33084632894E+03  0.17214058146E+03 0.  0.
         24    2    3    3    0    0  0.94920285153E+02 -0.17715066461E+03  0.78696590138E+02  0.22987754176E+03  0.79109496285E+02 0.  0.
         -6    2    1    2    0  502 -0.12936327824E+03  0.25048931369E+03 -0.19308707749E+02  0.33028487315E+03  0.17098396770E+03 0.  0.
        -24    2    5    5    0    0 -0.13930693682E+03  0.18081912087E+03 -0.59702276927E+02  0.24900423251E+03  0.79603824148E+02 0.  0.
          5    1    3    3  501    0  0.34442993086E+02 -0.73338649080E+02 -0.60064371822E+02  0.10096878718E+03  0.47000000000E+01 0. -1.
        -13    1    4    4    0    0  0.36456798860E+02 -0.14264074625E+03  0.44144666611E+02  0.15370176402E+03  0.00000000000E+00 0.  1.
         14    1    4    4    0    0  0.58463486293E+02 -0.34509918359E+02  0.34551923526E+02  0.76175777738E+02  0.00000000000E+00 0. -1.
         -5    1    5    5    0  502  0.99436585755E+01  0.69670192817E+02  0.40393569178E+02  0.81280640647E+02  0.47000000000E+01 0.  1.
         11    1    6    6    0    0 -0.21627334108E+02 -0.40998730240E+01 -0.10370374387E+02  0.24333006480E+02  0.00000000000E+00 0. -1.
        -12    1    6    6    0    0 -0.11767960271E+03  0.18491899390E+03 -0.49331902540E+02  0.22467122603E+03  0.00000000000E+00 0.  1.
</event>
<event>
12    1  0.1061634E+000  0.2010855E+03  0.7818608E-02  0.1152313E+00
         21   -1    0    0  503  502  0.00000000000E+00  0.00000000000E+00  0.69578817985E+02  0.69578817985E+02  0.00000000000E+00 0.  1.
         21   -1    0    0  501  503 -0.00000000000E+00 -0.00000000000E+00 -0.68341088899E+03  0.68341088899E+03  0.00000000000E+00 0.  1.
          6    2    1    2  501    0  0.97373315429E+02 -0.36384533300E+02 -0.47171448930E+03  0.50675241251E+03  0.15322549182E+03 0.  0.
         24    2    3    3    0    0  0.11779690194E+03 -0.57887428939E+02 -0.37706697962E+03  0.40745619659E+03  0.81326382455E+02 0.  0.
         -6    2    1    2    0  502 -0.97373315429E+02  0.36384533300E+02 -0.14211758170E+03  0.24623729446E+03  0.17213367287E+03 0.  0.
        -24    2    5    5    0    0 -0.88498280366E+02  0.57752398820E+01 -0.16740201375E+03  0.20528503451E+03  0.79077254390E+02 0.  0.
          5    1    3    3  501    0 -0.20423586511E+02  0.21502895639E+02 -0.94647509684E+02  0.99296215921E+02  0.47000000000E+01 0. -1.
        -13    1    4    4    0    0 -0.11232335399E+02  0.98158217966E+00 -0.44597640411E+02  0.46000852083E+02  0.00000000000E+00 0.  1.
         14    1    4    4    0    0  0.12902923734E+03 -0.58869011119E+02 -0.33246933921E+03  0.36145534450E+03  0.00000000000E+00 0. -1.
         -5    1    5    5    0  502 -0.88750350637E+01  0.30609293418E+02  0.25284432054E+02  0.40952259953E+02  0.47000000000E+01 0.  1.
         13    1    6    6    0    0 -0.46741502758E+02  0.37725711238E+02 -0.12129956105E+03  0.13535723430E+03  0.00000000000E+00 0. -1.
        -14    1    6    6    0    0 -0.41756777608E+02 -0.31950471356E+02 -0.46102452708E+02  0.69927800207E+02  0.00000000000E+00 0.  1.
</event>
<event>
12    1  0.1061634E+000  0.2199699E+03  0.7818608E-02  0.1134334E+00
         21   -1    0    0  503  502  0.00000000000E+00  0.00000000000E+00  0.46672102461E+03  0.46672102461E+03  0.00000000000E+00 0. -1.
         21   -1    0    0  501  503 -0.00000000000E+00 -0.00000000000E+00 -0.10461762064E+03  0.10461762064E+03  0.00000000000E+00 0. -1.
          6    2    1    2  501    0 -0.12207808119E+03  0.62792295328E+02  0.14229814387E+03  0.26198384636E+03  0.17187449999E+03 0.  0.
         24    2    3    3    0    0 -0.11501665038E+03  0.77031083325E+02  0.16768519699E+03  0.23166554570E+03  0.79924852908E+02 0.  0.
         -6    2    1    2    0  502  0.12207808119E+03 -0.62792295328E+02  0.21980526010E+03  0.30935479889E+03  0.16893818090E+03 0.  0.
        -24    2    5    5    0    0 -0.71814144226E+00 -0.19807090315E+02  0.89489865568E+02  0.12515156277E+03  0.85215263132E+02 0.  0.
          5    1    3    3  501    0 -0.70614308165E+01 -0.14238787997E+02 -0.25387053122E+02  0.30318300662E+02  0.47000000000E+01 0. -1.
        -11    1    4    4    0    0 -0.70799188951E+02  0.86976988148E+02  0.10030774611E+03  0.15046317009E+03  0.00000000000E+00 0.  1.
         12    1    4    4    0    0 -0.44217461425E+02 -0.99459048231E+01  0.67377450881E+02  0.81202375611E+02  0.00000000000E+00 0. -1.
         -5    1    5    5    0  502  0.12279622263E+03 -0.42985205013E+02  0.13031539454E+03  0.18420323612E+03  0.47000000000E+01 0.  1.
         11    1    6    6    0    0 -0.18421675754E+01  0.49413875417E+01  0.98610941558E+02  0.98751854095E+02  0.00000000000E+00 0. -1.
        -12    1    6    6    0    0  0.11240261332E+01 -0.24748477856E+02 -0.91210759898E+01  0.26399708676E+02  0.00000000000E+00 0.  1.
</event>
<event>
12    1  0.1061634E+000  0.1727168E+03  0.7818608E-02  0.1175286E+00
         21   -1    0    0  503  502  0.00000000000E+00  0.00000000000E+00  0.80189519038E+02  0.80189519038E+02  0.00000000000E+00 0. -1.
         21   -1    0    0  501  503 -0.00000000000E+00 -0.00000000000E+00 -0.52552421383E+03  0.52552421383E+03  0.00000000000E+00 0. -1.
          6    2    1    2  501    0  0.28220905633E+01  0.91604445158E+01 -0.38786699046E+03  0.42458439936E+03  0.17245066528E+03 0.  0.
         24    2    3    3    0    0 -0.13450427356E+02  0.53956625641E+02 -0.34968406486E+03  0.36333475862E+03  0.81492147865E+02 0.  0.
         -6    2    1    2    0  502 -0.28220905633E+01 -0.91604445158E+01 -0.57467704330E+02  0.18112933350E+03  0.17150341243E+03 0.  0.
        -24    2    5    5    0    0 -0.61603821636E+02 -0.33760925646E+02 -0.44991421967E+02  0.11602769603E+03  0.80643457612E+02 0.  0.
          5    1    3    3  501    0  0.16272517919E+02 -0.44796181125E+02 -0.38182925604E+02  0.61249640738E+02  0.47000000000E+01 0. -1.
        -13    1    4    4    0    0  0.44435969953E+01  0.89342185063E+00 -0.24126651290E+03  0.24130908397E+03  0.00000000000E+00 0.  1.
         14    1    4    4    0    0 -0.17894024351E+02  0.53063203790E+02 -0.10841755195E+03  0.12202567466E+03  0.00000000000E+00 0. -1.
         -5    1    5    5    0  502  0.58781731073E+02  0.24600481131E+02 -0.12476282364E+02  0.65101637471E+02  0.47000000000E+01 0.  1.
         11    1    6    6    0    0  0.41191778696E+01  0.19419550572E+02 -0.19248827545E+02  0.27651472521E+02  0.00000000000E+00 0. -1.
        -12    1    6    6    0    0 -0.65722999506E+02 -0.53180476218E+02 -0.25742594422E+02  0.88376223513E+02  0.00000000000E+00 0.  1.
</event>
<event>
12    1  0.1061634E+000  0.2930842E+03  0.7818608E-02  0.1089029E+00
         21   -1    0    0  501  502  0.00000000000E+00  0.00000000000E+00  0.14796257078E+03  0.14796257078E+03  0.00000000000E+00 0.  1.
         21   -1    0    0  502  503 -0.00000000000E+00 -0.00000000000E+00 -0.57736937947E+03  0.57736937947E+03  0.00000000000E+00 0. -1.
         -6    2    1    2    0  503  0.57389426299E+02 -0.22895416486E+03 -0.19971817264E+03  0.35466283105E+03  0.17373778918E+03 0.  0.
        -24    2    3    3    0    0  0.19661289089E+01 -0.92253547606E+02 -0.16274734266E+03  0.20251904077E+03  0.77541483227E+02 0.  0.
          6    2    1    2  501    0 -0.57389426299E+02  0.22895416486E+03 -0.22968863606E+03  0.37066911920E+03  0.17007401487E+03 0.  0.
         24    2    5    5    0    0  0.55214955550E+01  0.50491449064E+02 -0.11858627477E+03  0.15118666044E+03  0.78834182872E+02 0.  0.
          5    1    5    5  501    0 -0.62910921854E+02  0.17846271580E+03 -0.11110236129E+03  0.21948245876E+03  0.47000000000E+01 0. -1.
        -11    1    6    6    0    0  0.12727389013E+02  0.19005678082E+02  0.50300686481E+01  0.23420158433E+02  0.00000000000E+00 0.  1.
         12    1    6    6    0    0 -0.72058934580E+01  0.31485770983E+02 -0.12361634341E+03  0.12776650200E+03  0.00000000000E+00 0. -1.
         -5    1    3    3    0  503  0.55423297390E+02 -0.13670061726E+03 -0.36970829973E+02  0.15214379028E+03  0.47000000000E+01 0.  1.
         11    1    4    4    0    0  0.28873143566E+02 -0.31523987508E+02 -0.24821309188E+02  0.49431949159E+02  0.00000000000E+00 0. -1.
        -12    1    4    4    0    0 -0.26907014657E+02 -0.60729560097E+02 -0.13792603347E+03  0.15308709161E+03  0.00000000000E+00 0.  1.
</event>
<event>
12    1  0.1061634E+000  0.5809475E+03  0.7818608E-02  0.9946857E-01
         21   -1    0    0  503  502  0.00000000000E+00  0.00000000000E+00  0.62747576156E+03  0.62747576156E+03  0.00000000000E+00 0. -1.
         21   -1    0    0  501  503 -0.00000000000E+00 -0.00000000000E+00 -0.63458558085E+03  0.63458558085E+03  0.00000000000E+00 0.  1.
          6    2    1    2  501    0  0.46110003718E+03 -0.30328837849E+03  0.24520638618E+03  0.63057602477E+03  0.18139147271E+03 0.  0.
         24    2    3    3    0    0  0.16872373523E+03 -0.13679494828E+03  0.16573424214E+03  0.28482774072E+03  0.80488795237E+02 0.  0.
         -6    2    1    2    0  502 -0.46110003718E+03  0.30328837849E+03 -0.25231620547E+03  0.63148531763E+03  0.17468014776E+03 0.  0.
        -24    2    5    5    0    0 -0.29039089665E+03  0.21902994307E+03 -0.93899781509E+02  0.38377793385E+03  0.78532443739E+02 0.  0.
          5    1    3    3  501    0  0.29237630195E+03 -0.16649343021E+03  0.79472144041E+02  0.34574828405E+03  0.47000000000E+01 0. -1.
        -11    1    4    4    0    0  0.82251328017E+02 -0.17458082425E+02  0.65756667489E+02  0.10674270430E+03  0.00000000000E+00 0.  1.
         12    1    4    4    0    0  0.86472407214E+02 -0.11933686586E+03  0.99977574653E+02  0.17808503642E+03  0.00000000000E+00 0. -1.
         -5    1    5    5    0  502 -0.17070914053E+03  0.84258435418E+02 -0.15841642396E+03  0.24770738379E+03  0.47000000000E+01 0.  1.
         11    1    6    6    0    0 -0.52996721037E+02  0.82799006671E+01 -0.37030660118E+01  0.53767293903E+02  0.00000000000E+00 0. -1.
        -12    1    6    6    0    0 -0.23739417561E+03  0.21075004241E+03 -0.90196715498E+02  0.33001063994E+03  0.00000000000E+00 0.  1.
</event>
<event>
12    1  0.1061634E+000  0.2002608E+03  0.7818608E-02  0.1149553E+00
         21   -1    0    0  503  502  0.00000000000E+00  0.00000000000E+00  0.33855374832E+03  0.33855374832E+03  0.00000000000E+00 0.  1.
         21   -1    0    0  501  503 -0.00000000000E+00 -0.00000000000E+00 -0.14062405335E+03  0.14062405335E+03  0.00000000000E+00 0.  1.
          6    2    1    2  501    0  0.16479646122E+02  0.10128236224E+03  0.36712114570E+01  0.20029445195E+03  0.17197294569E+03 0.  0.
         24    2    3    3    0    0  0.19089327475E+02  0.13939782331E+03  0.95564695147E+00  0.16170607157E+03  0.79698085013E+02 0.  0.
         -6    2    1    2    0  502 -0.16479646122E+02 -0.10128236224E+03  0.19425848351E+03  0.27888334973E+03  0.17178436687E+03 0.  0.
        -24    2    5    5    0    0 -0.64845734948E+02 -0.31163931163E+02  0.72500317851E+02  0.13021252599E+03  0.80764137399E+02 0.  0.
          5    1    3    3  501    0 -0.26096813535E+01 -0.38115461070E+02  0.27155645055E+01  0.38588380374E+02  0.47000000000E+01 0. -1.
        -11    1    4    4    0    0  0.40674245185E+02  0.46678474708E+02 -0.18337752438E+02  0.64572032544E+02  0.00000000000E+00 0.  1.
         12    1    4    4    0    0 -0.21584917709E+02  0.92719348603E+02  0.19293399389E+02  0.97134039028E+02  0.00000000000E+00 0. -1.
         -5    1    5    5    0  502  0.48366088826E+02 -0.70118431078E+02  0.12175816566E+03  0.14867082374E+03  0.47000000000E+01 0.  1.
         13    1    6    6    0    0 -0.13383197625E+02 -0.33075281342E+02  0.70100607788E+02  0.78658625889E+02  0.00000000000E+00 0. -1.
        -14    1    6    6    0    0 -0.51462537323E+02  0.19113501792E+01  0.23997100623E+01  0.51553900101E+02  0.00000000000E+00 0.  1.
</event>
<event>
12    1  0.1061634E+000  0.1776331E+03  0.7818608E-02  0.1170134E+00
         21   -1    0    0  503  502  0.00000000000E+00  0.00000000000E+00  0.11555992552E+03  0.11555992552E+03  0.00000000000E+00 0.  1.
         21   -1    0    0  501  503 -0.00000000000E+00 -0.00000000000E+00 -0.27431809553E+03  0.27431809553E+03  0.00000000000E+00 0.  1.
          6    2    1    2  501    0 -0.26207443759E+02  0.41584345841E+02 -0.65445990215E+02  0.18922740110E+03  0.17060991696E+03 0.  0.
         24    2    3    3    0    0  0.53588975909E+01  0.28791130531E+02 -0.10610156837E+03  0.13598206046E+03  0.79849426897E+02 0.  0.
         -6    2    1    2    0  502  0.26207443759E+02 -0.41584345841E+02 -0.93312179796E+02  0.20065061996E+03  0.17069686718E+03 0.  0.
        -24    2    5    5    0    0 -0.48103120232E+02 -0.29587740499E+02 -0.72865786773E+02  0.12250893167E+03  0.80682531530E+02 0.  0.
          5    1    3    3  501    0 -0.31566341350E+02  0.12793215310E+02  0.40655578157E+02  0.53245340636E+02  0.47000000000E+01 0. -1.
        -13    1    4    4    0    0  0.32173952298E+02 -0.55956966662E+01 -0.17079136198E+02  0.36853384118E+02  0.00000000000E+00 0.  1.
         14    1    4    4    0    0 -0.26815054707E+02  0.34386827198E+02 -0.89022432174E+02  0.99128676344E+02  0.00000000000E+00 0. -1.
         -5    1    5    5    0  502  0.74310563992E+02 -0.11996605342E+02 -0.20446393023E+02  0.78141688286E+02  0.47000000000E+01 0.  1.
         11    1    6    6    0    0 -0.10598388790E+02  0.64193353740E+01 -0.69295939823E+02  0.70395035248E+02  0.00000000000E+00 0. -1.
        -12    1    6    6    0    0 -0.37504731443E+02 -0.36007075873E+02 -0.35698469496E+01  0.52113896427E+02  0.00000000000E+00 0.  1.
</event>
<event>
12    1  0.1061634E+000  0.2183373E+03  0.7818608E-02  0.1135555E+00
         21   -1    0    0  503  502  0.00000000000E+00  0.00000000000E+00  0.59754992525E+03  0.59754992525E+03  0.00000000000E+00 0.  1.
         21   -1    0    0  501  503 -0.00000000000E+00 -0.00000000000E+00 -0.10563095232E+03  0.10563095232E+03  0.00000000000E+00 0.  1.
          6    2    1    2  501    0 -0.13119922570E+03  0.15616966631E+02  0.42168303442E+03  0.47382464546E+03  0.17098563291E+03 0.  0.
         24    2    3    3    0    0 -0.43110261362E+02  0.33237252987E+02  0.10175414729E+03  0.14148938861E+03  0.81866543701E+02 0.  0.
         -6    2    1    2    0  502  0.13119922570E+03 -0.15616966631E+02  0.70235938517E+02  0.22935623212E+03  0.17382194246E+03 0.  0.
        -24    2    5    5    0    0  0.10037710767E+03 -0.76126486423E+02  0.66801076934E+02  0.16119984416E+03  0.75181115969E+02 0.  0.
          5    1    3    3  501    0 -0.88088964336E+02 -0.17620286356E+02  0.31992888713E+03  0.33233525685E+03  0.47000000000E+01 0. -1.
        -13    1    4    4    0    0  0.21145867584E+02  0.96649551382E+01  0.64007847094E+01  0.24114914858E+02  0.00000000000E+00 0.  1.
         14    1    4    4    0    0 -0.64256128946E+02  0.23572297848E+02  0.95353362579E+02  0.11737447375E+03  0.00000000000E+00 0. -1.
         -5    1    5    5    0  502  0.30822118025E+02  0.60509519792E+02  0.34348615827E+01  0.68156387955E+02  0.47000000000E+01 0.  1.
         11    1    6    6    0    0 -0.10376588412E+02 -0.18506554869E+02  0.45695953641E+01  0.21703625549E+02  0.00000000000E+00 0. -1.
        -12    1    6    6    0    0  0.11075369608E+03 -0.57619931554E+02  0.62231481570E+02  0.13949621861E+03  0.00000000000E+00 0.  1.
</event>
<event>
12    1  0.1061634E+000  0.2314724E+03  0.7818608E-02  0.1125946E+00
         21   -1    0    0  503  502  0.00000000000E+00  0.00000000000E+00  0.15185102494E+03  0.15185102494E+03  0.00000000000E+00 0. -1.
         21   -1    0    0  501  503 -0.00000000000E+00 -0.00000000000E+00 -0.34995452152E+03  0.34995452152E+03  0.00000000000E+00 0. -1.
          6    2    1    2  501    0 -0.76475789976E+02 -0.13544511424E+03 -0.10246131238E+03  0.25313591830E+03  0.17142213151E+03 0.  0.
         24    2    3    3    0    0 -0.10561073793E+03 -0.13945570751E+03 -0.60503308542E+02  0.20168211244E+03  0.80084341850E+02 0.  0.
         -6    2    1    2    0  502  0.76475789976E+02  0.13544511424E+03 -0.95642184194E+02  0.24866962816E+03  0.16880530545E+03 0.  0.
        -24    2    5    5    0    0  0.56771775417E+02  0.57649523661E+02 -0.12063370086E+03  0.16448490265E+03  0.77177013129E+02 0.  0.
          5    1    3    3  501    0  0.29134947956E+02  0.40105932656E+01 -0.41958003843E+02  0.51453805858E+02  0.47000000000E+01 0. -1.
        -13    1    4    4    0    0 -0.75049679224E+02 -0.33674118795E+02 -0.27544105724E+02  0.86747209686E+02  0.00000000000E+00 0.  1.
         14    1    4    4    0    0 -0.30561058709E+02 -0.10578158871E+03 -0.32959202817E+02  0.11493490275E+03  0.00000000000E+00 0. -1.
         -5    1    5    5    0  502  0.19704014559E+02  0.77795590583E+02  0.24991516666E+02  0.84184725510E+02  0.47000000000E+01 0.  1.
         11    1    6    6    0    0  0.11591428853E+02  0.52378389104E+02 -0.10216247093E+03  0.11539075932E+03  0.00000000000E+00 0. -1.
        -12    1    6    6    0    0  0.45180346564E+02  0.52711345568E+01 -0.18471229925E+02  0.49094143338E+02  0.00000000000E+00 0.  1.
</event>
<event>
12    1  0.1061634E+000  0.2125333E+03  0.7818608E-02  0.1139697E+00
         21   -1    0    0  503  502  0.00000000000E+00  0.00000000000E+00  0.15659951208E+04  0.15659951208E+04  0.00000000000E+00 0. -1.
         21   -1    0    0  501  503 -0.00000000000E+00 -0.00000000000E+00 -0.29058854739E+02  0.29058854739E+02  0.00000000000E+00 0. -1.
          6    2    1    2  501    0  0.11611592974E+03 -0.42686204996E+02  0.68874427146E+03  0.72079059576E+03  0.17281605894E+03 0.  0.
         24    2    3    3    0    0  0.61658584297E+02  0.43453165210E+02  0.34386078610E+03  0.36113478523E+03  0.80548955928E+02 0.  0.
         -6    2    1    2    0  502 -0.11611592974E+03  0.42686204996E+02  0.84819199458E+03  0.87426337976E+03  0.17205166748E+03 0.  0.
        -24    2    5    5    0    0 -0.12448488151E+03  0.59706931592E+02  0.48299140846E+03  0.50854039362E+03  0.79191084679E+02 0.  0.
          5    1    3    3  501    0  0.54457345446E+02 -0.86139370207E+02  0.34488348537E+03  0.35965581053E+03  0.47000000000E+01 0. -1.
        -13    1    4    4    0    0  0.14490423132E+02  0.33875377830E+02  0.43789192720E+02  0.57227676737E+02  0.00000000000E+00 0.  1.
         14    1    4    4    0    0  0.47168161165E+02  0.95777873806E+01  0.30007159338E+03  0.30390710849E+03  0.00000000000E+00 0. -1.
         -5    1    5    5    0  502  0.83689517721E+01 -0.17020726596E+02  0.36520058612E+03  0.36572298614E+03  0.47000000000E+01 0.  1.
         11    1    6    6    0    0 -0.26567245720E+02  0.43070963012E+02  0.25312972576E+03  0.25813869230E+03  0.00000000000E+00 0. -1.
        -12    1    6    6    0    0 -0.97917635794E+02  0.16635968580E+02  0.22986168270E+03  0.25040170132E+03  0.00000000000E+00 0.  1.
</event>
<event>
12    1  0.1061634E+000  0.1817323E+03  0.7818608E-02  0.1166823E+00
         21   -1    0    0  501  502  0.00000000000E+00  0.00000000000E+00  0.39166327592E+03  0.39166327592E+03  0.00000000000E+00 0.  1.
         21   -1    0    0  502  503 -0.00000000000E+00 -0.00000000000E+00 -0.16890537357E+03  0.16890537357E+03  0.00000000000E+00 0.  1.
         -6    2    1    2    0  503 -0.20844937422E+02  0.40445458941E+02  0.31168634586E+03  0.36079773360E+03  0.17594396782E+03 0.  0.
        -24    2    3    3    0    0 -0.76419661760E+02  0.48071125912E+02  0.24751643404E+03  0.27543633504E+03  0.80311840276E+02 0.  0.
          6    2    1    2  501    0  0.20844937422E+02 -0.40445458941E+02 -0.88928443519E+02  0.19977091589E+03  0.17300232427E+03 0.  0.
         24    2    5    5    0    0  0.54918068114E+02 -0.73711843629E+02 -0.95597416639E+02  0.15145740030E+03  0.73150857429E+02 0.  0.
          5    1    5    5  501    0 -0.34073130693E+02  0.33266384687E+02  0.66689731198E+01  0.48313515582E+02  0.47000000000E+01 0. -1.
        -11    1    6    6    0    0 -0.71713492496E+01  0.10461289868E+02 -0.13191519236E+02  0.18299809166E+02  0.00000000000E+00 0.  1.
         12    1    6    6    0    0  0.62089417364E+02 -0.84173133496E+02 -0.82405897403E+02  0.13315759114E+03  0.00000000000E+00 0. -1.
         -5    1    3    3    0  503  0.55574724338E+02 -0.76256669704E+01  0.64169911819E+02  0.85361398564E+02  0.47000000000E+01 0.  1.
         13    1    4    4    0    0 -0.68787210000E+02  0.67416493158E+02  0.22519923954E+03  0.24493133997E+03  0.00000000000E+00 0. -1.
        -14    1    4    4    0    0 -0.76324517598E+01 -0.19345367247E+02  0.22317194503E+02  0.30504995070E+02  0.00000000000E+00 0.  1.
</event>
<event>
12    1  0.1061634E+000  0.4304793E+03  0.7818608E-02  0.1033768E+00
         21   -1    0    0  501  502  0.00000000000E+00  0.00000000000E+00  0.59724584943E+03  0.59724584943E+03  0.00000000000E+00 0.  1.
         21   -1    0    0  502  503 -0.00000000000E+00 -0.00000000000E+00 -0.33522964394E+03  0.33522964394E+03  0.00000000000E+00 0.  1.
         -6    2    1    2    0  503 -0.12091406698E+03  0.37486449520E+03  0.23409698058E+01  0.42973931719E+03  0.17183363827E+03 0.  0.
        -24    2    3    3    0    0  0.41877683610E+01  0.11699280279E+03  0.15241367487E+02  0.14279543903E+03  0.80332962203E+02 0.  0.
          6    2    1    2  501    0  0.12091406698E+03 -0.37486449520E+03  0.25967523569E+03  0.50273617618E+03  0.17369177715E+03 0.  0.
         24    2    5    5    0    0  0.51594656227E+01 -0.78923309318E+02  0.66784863415E+02  0.13097133256E+03  0.80235672432E+02 0.  0.
          5    1    5    5  501    0  0.11575460135E+03 -0.29594118589E+03  0.19289037228E+03  0.37176484362E+03  0.47000000000E+01 0. -1.
        -13    1    6    6    0    0  0.25898091223E+01 -0.86730839935E+02  0.27777347951E+02  0.91107226751E+02  0.00000000000E+00 0.  1.
         14    1    6    6    0    0  0.25696565003E+01  0.78075306162E+01  0.39007515464E+02  0.39864105804E+02  0.00000000000E+00 0. -1.
         -5    1    3    3    0  503 -0.12510183534E+03  0.25787169242E+03 -0.12900397681E+02  0.28694387816E+03  0.47000000000E+01 0.  1.
         13    1    4    4    0    0 -0.11566908329E+02  0.87430193437E+02 -0.23805310771E+02  0.91348371160E+02  0.00000000000E+00 0. -1.
        -14    1    4    4    0    0  0.15754676690E+02  0.29562609351E+02  0.39046678258E+02  0.51447067868E+02  0.00000000000E+00 0.  1.
</event>
<event>
12    1  0.1061634E+000  0.1994851E+03  0.7818608E-02  0.1150200E+00
         21   -1    0    0  503  502  0.00000000000E+00  0.00000000000E+00  0.45423362166E+03  0.45423362166E+03  0.00000000000E+00 0.  1.
         21   -1    0    0  501  503 -0.00000000000E+00 -0.00000000000E+00 -0.89831320640E+02  0.89831320640E+02  0.00000000000E+00 0.  1.
          6    2    1    2  501    0  0.48611898869E+02 -0.89384114345E+02  0.13894710721E+03  0.24310612218E+03  0.17158569704E+03 0.  0.
         24    2    3    3    0    0  0.72174840629E+02 -0.11774795851E+03  0.94808506386E+02  0.18539974503E+03  0.79439431157E+02 0.  0.
         -6    2    1    2    0  502 -0.48611898869E+02  0.89384114345E+02  0.22545519381E+03  0.30095882012E+03  0.17144541517E+03 0.  0.
        -24    2    5    5    0    0 -0.66162806420E+02 -0.41442059425E+01  0.10010137687E+03  0.14350644486E+03  0.78607395777E+02 0.  0.
          5    1    3    3  501    0 -0.23562941760E+02  0.28363844166E+02  0.44138600822E+02  0.57706377141E+02  0.47000000000E+01 0. -1.
        -13    1    4    4    0    0  0.32307010747E+02 -0.30453498724E+02 -0.76103150307E+01  0.45045259715E+02  0.00000000000E+00 0.  1.
         14    1    4    4    0    0  0.39867829882E+02 -0.87294459787E+02  0.10241882142E+03  0.14035448532E+03  0.00000000000E+00 0. -1.
         -5    1    5    5    0  502  0.17550907551E+02  0.93528320287E+02  0.12535381694E+03  0.15745237526E+03  0.47000000000E+01 0.  1.
         13    1    6    6    0    0 -0.25340026880E+02  0.32215799143E+02  0.17759675106E+02  0.44669684760E+02  0.00000000000E+00 0. -1.
        -14    1    6    6    0    0 -0.40822779540E+02 -0.36360005085E+02  0.82341701761E+02  0.98836760105E+02  0.00000000000E+00 0.  1.
</event>
<event>
12    1  0.1061634E+000  0.3391172E+03  0.7818608E-02  0.1067192E+00
         21   -1    0    0  501  502  0.00000000000E+00  0.00000000000E+00  0.32029937034E+03  0.32029937034E+03  0.00000000000E+00 0.  1.
         21   -1    0    0  502  503 -0.00000000000E+00 -0.00000000000E+00 -0.36144652823E+03  0.36144652823E+03  0.00000000000E+00 0.  1.
         -6    2    1    2    0  503 -0.27951512216E+03 -0.84744397644E+02 -0.49478062819E+02  0.34252636569E+03  0.17194742233E+03 0.  0.
        -24    2    3    3    0    0 -0.29552073247E+03 -0.73000117257E+02 -0.58775336367E+02  0.32010679882E+03  0.79701330252E+02 0.  0.
          6    2    1    2  501    0  0.27951512216E+03  0.84744397644E+02  0.83309049313E+01  0.33921953288E+03  0.17230836039E+03 0.  0.
         24    2    5    5    0    0  0.17849509051E+03 -0.10692363076E+02  0.31947229485E+02  0.19817683411E+03  0.79237668700E+02 0.  0.
          5    1    5    5  501    0  0.10102003165E+03  0.95436760720E+02 -0.23616324553E+02  0.14104269877E+03  0.47000000000E+01 0. -1.
        -11    1    6    6    0    0  0.55409869785E+02  0.15395621730E+02  0.43095366476E+02  0.71864382345E+02  0.00000000000E+00 0.  1.
         12    1    6    6    0    0  0.12308522073E+03 -0.26087984805E+02 -0.11148136991E+02  0.12631245177E+03  0.00000000000E+00 0. -1.
         -5    1    3    3    0  503  0.16005610313E+02 -0.11744280387E+02  0.92972735487E+01  0.22419566872E+02  0.47000000000E+01 0.  1.
         11    1    4    4    0    0 -0.11400785398E+03 -0.26629990817E+02 -0.62526109141E+02  0.13272701874E+03  0.00000000000E+00 0. -1.
        -12    1    4    4    0    0 -0.18151287850E+03 -0.46370126440E+02  0.37507727734E+01  0.18737978008E+03  0.00000000000E+00 0.  1.
</event>
<event>
12    1  0.1061634E+000  0.2390741E+03  0.7818608E-02  0.1120465E+00
         21   -1    0    0  503  502  0.00000000000E+00  0.00000000000E+00  0.85362576727E+03  0.85362576727E+03  0.00000000000E+00 0.  1.
         21   -1    0    0  501  503 -0.00000000000E+00 -0.00000000000E+00 -0.67108633919E+02  0.67108633919E+02  0.00000000000E+00 0.  1.
          6    2    1    2  501    0 -0.12507200635E+03  0.10890021649E+03  0.42112871058E+03  0.48425801357E+03  0.17220385858E+03 0.  0.
         24    2    3    3    0    0 -0.49858053744E+02  0.12926058637E+03  0.27579116040E+03  0.31928293418E+03  0.81772264183E+02 0.  0.
         -6    2    1    2    0  502  0.12507200635E+03 -0.10890021649E+03  0.36538842277E+03  0.43647638761E+03  0.17175760107E+03 0.  0.
        -24    2    5    5    0    0  0.13712446261E+03 -0.11649364737E+03  0.37144717843E+03  0.42029861228E+03  0.79397915575E+02 0.  0.
          5    1    3    3  501    0 -0.75213952609E+02 -0.20360369889E+02  0.14533755018E+03  0.16497507940E+03  0.47000000000E+01 0. -1.
        -11    1    4    4    0    0 -0.14107623019E+01 -0.79117125348E+01  0.66608715594E+00  0.80640633434E+01  0.00000000000E+00 0.  1.
         12    1    4    4    0    0 -0.48447291442E+02  0.13717229891E+03  0.27512507324E+03  0.31121887083E+03  0.00000000000E+00 0. -1.
         -5    1    5    5    0  502 -0.12052456258E+02  0.75934308872E+01 -0.60587556618E+01  0.16177775331E+02  0.47000000000E+01 0.  1.
         11    1    6    6    0    0  0.10188546243E+03 -0.87464375484E+02  0.18657027501E+03  0.22986764007E+03  0.00000000000E+00 0. -1.
        -12    1    6    6    0    0  0.35239000185E+02 -0.29029271888E+02  0.18487690342E+03  0.19043097221E+03  0.00000000000E+00 0.  1.
</event>
<event>
12    1  0.1061634E+000  0.2271194E+03  0.7818608E-02  0.1128834E+00
         21   -1    0    0  503  502  0.00000000000E+00  0.00000000000E+00  0.16231939707E+04  0.16231939707E+04  0.00000000000E+00 0. -1.
         21   -1    0    0  501  503 -0.00000000000E+00 -0.00000000000E+00 -0.35702350438E+02  0.35702350438E+02  0.00000000000E+00 0. -1.
          6    2    1    2  501    0 -0.10813100893E+03 -0.10203052476E+03  0.51600871422E+03  0.56378027312E+03  0.17169933059E+03 0.  0.
         24    2    3    3    0    0  0.83209106801E+01 -0.42152905808E+02  0.27600638951E+03  0.29033999682E+03  0.79193949773E+02 0.  0.
         -6    2    1    2    0  502  0.10813100893E+03  0.10203052476E+03  0.10714829060E+04  0.10951160480E+04  0.17059014514E+03 0.  0.
        -24    2    5    5    0    0  0.11275242223E+03  0.13189759668E+03  0.98688446546E+03  0.10051583602E+04  0.79323995236E+02 0.  0.
          5    1    3    3  501    0 -0.11645191961E+03 -0.59877618954E+02  0.24000232471E+03  0.27344027629E+03  0.47000000000E+01 0. -1.
        -11    1    4    4    0    0  0.24941580305E+02 -0.12459474847E+02  0.23675840709E+03  0.23839434614E+03  0.00000000000E+00 0.  1.
         12    1    4    4    0    0 -0.16620669625E+02 -0.29693430961E+02  0.39247982420E+02  0.51945650685E+02  0.00000000000E+00 0. -1.
         -5    1    5    5    0  502 -0.46214132980E+01 -0.29867071918E+02  0.84598440532E+02  0.89957687755E+02  0.47000000000E+01 0.  1.
         13    1    6    6    0    0  0.45781854363E+02  0.12674600755E+02  0.38591295414E+03  0.38882570886E+03  0.00000000000E+00 0. -1.
        -14    1    6    6    0    0  0.66970567869E+02  0.11922299593E+03  0.60097151132E+03  0.61633265136E+03  0.00000000000E+00 0.  1.
</event>
<event>
12    1  0.1061634E+000  0.2443983E+03  0.7818608E-02  0.1119457E+00
         21   -1    0    0  503  502  0.00000000000E+00  0.00000000000E+00  0.53321641117E+03  0.53321641117E+03  0.00000000000E+00 0. -1.
         21   -1    0    0  501  503 -0.00000000000E+00 -0.00000000000E+00 -0.13063518246E+03  0.13063518246E+03  0.00000000000E+00 0. -1.
          6    2    1    2  501    0 -0.52254728713E+02  0.14180828736E+03  0.59971238841E+02  0.25164875580E+03  0.19206873711E+03 0.  0.
         24    2    3    3    0    0 -0.99182323107E+02  0.40003651392E+02  0.42110518416E+02  0.13803767204E+03  0.76443952015E+02 0.  0.
         -6    2    1    2    0  502  0.52254728713E+02 -0.14180828736E+03  0.34260998987E+03  0.41220283783E+03  0.17230620221E+03 0.  0.
        -24    2    5    5    0    0 -0.82782552937E+01 -0.11396614649E+02  0.15910964481E+03  0.17903784653E+03  0.80871868301E+02 0.  0.
          5    1    3    3  501    0  0.46927594393E+02  0.10180463597E+03  0.17860720424E+02  0.11361108376E+03  0.47000000000E+01 0. -1.
        -13    1    4    4    0    0 -0.48447794682E+02  0.55705048412E+02  0.65343616409E+01  0.74114365073E+02  0.00000000000E+00 0.  1.
         14    1    4    4    0    0 -0.50734528425E+02 -0.15701397020E+02  0.35576156775E+02  0.63923306968E+02  0.00000000000E+00 0. -1.
         -5    1    5    5    0  502  0.60532984007E+02 -0.13041167271E+03  0.18350034506E+03  0.23316499130E+03  0.47000000000E+01 0.  1.
         11    1    6    6    0    0  0.10604135296E+02 -0.30235415686E+02  0.14570438521E+03  0.14918577652E+03  0.00000000000E+00 0. -1.
        -12    1    6    6    0    0 -0.18882390590E+02  0.18838801037E+02  0.13405259602E+02  0.29852070010E+02  0.00000000000E+00 0.  1.
</event>
<event>
12    1  0.1061634E+000  0.2052710E+03  0.7818608E-02  0.1145636E+00
         21   -1    0    0  501  502  0.00000000000E+00  0.00000000000E+00  0.17594701713E+03  0.17594701713E+03  0.00000000000E+00 0.  1.
         21   -1    0    0  502  503 -0.00000000000E+00 -0.00000000000E+00 -0.25461208544E+03  0.25461208544E+03  0.00000000000E+00 0.  1.
         -6    2    1    2    0  503  0.56282507076E+02 -0.94657807083E+02  0.15621926445E+02  0.20586461678E+03  0.17322925507E+03 0.  0.
        -24    2    3    3    0    0  0.87343710159E+02 -0.11578566627E+03  0.23797788191E+02  0.16713324079E+03  0.79573495817E+02 0.  0.
          6    2    1    2  501    0 -0.56282507076E+02  0.94657807083E+02 -0.94286994748E+02  0.22469448579E+03  0.17166756689E+03 0.  0.
         24    2    5    5    0    0 -0.62653507646E+02 -0.65061875292E+01 -0.26961137493E+02  0.10291762218E+03  0.76794150328E+02 0.  0.
          5    1    5    5  501    0  0.63710005694E+01  0.10116399461E+03 -0.67325857255E+02  0.12177686360E+03  0.47000000000E+01 0. -1.
        -11    1    6    6    0    0 -0.46252793339E+01  0.65789509654E+01 -0.41013952577E+02  0.41794977099E+02  0.00000000000E+00 0.  1.
         12    1    6    6    0    0 -0.58028228312E+02 -0.13085138495E+02  0.14052815084E+02  0.61122645085E+02  0.00000000000E+00 0. -1.
         -5    1    3    3    0  503 -0.31061203083E+02  0.21127859186E+02 -0.81758617458E+01  0.38731375989E+02  0.47000000000E+01 0.  1.
         13    1    4    4    0    0  0.76232257080E+02 -0.69766306560E+02  0.48025252083E+02  0.11395226803E+03  0.00000000000E+00 0. -1.
        -14    1    4    4    0    0  0.11111453079E+02 -0.46019359709E+02 -0.24227463892E+02  0.53180972765E+02  0.00000000000E+00 0.  1.
</event>
<event>
12    1  0.1061634E+000  0.1824623E+03  0.7818608E-02  0.1166129E+00
         21   -1    0    0  503  502  0.00000000000E+00  0.00000000000E+00  0.61900854553E+03  0.61900854553E+03  0.00000000000E+00 0. -1.
         21   -1    0    0  501  503 -0.00000000000E+00 -0.00000000000E+00 -0.62088469656E+02  0.62088469656E+02  0.00000000000E+00 0. -1.
          6    2    1    2  501    0 -0.97011645637E+01 -0.57704949045E+02  0.41105128287E+03  0.44972843367E+03  0.17282515199E+03 0.  0.
         24    2    3    3    0    0 -0.51179237372E+02 -0.87878077171E+02  0.31932052120E+03  0.34452638606E+03  0.79943509083E+02 0.  0.
         -6    2    1    2    0  502  0.97011645637E+01  0.57704949045E+02  0.14586879300E+03  0.23136858152E+03  0.16979323309E+03 0.  0.
        -24    2    5    5    0    0  0.94162555947E+01  0.30126124465E+02  0.17267629348E+03  0.19262061615E+03  0.79305423478E+02 0.  0.
          5    1    3    3  501    0  0.41478072809E+02  0.30173128126E+02  0.91730761671E+02  0.10520204761E+03  0.47000000000E+01 0. -1.
        -11    1    4    4    0    0 -0.41578411140E+02 -0.34503299218E+02  0.65170845641E+02  0.84655071032E+02  0.00000000000E+00 0.  1.
         12    1    4    4    0    0 -0.96008262321E+01 -0.53374777954E+02  0.25414967556E+03  0.25987131503E+03  0.00000000000E+00 0. -1.
         -5    1    5    5    0  502  0.28490896905E+00  0.27578824580E+02 -0.26807500474E+02  0.38747965366E+02  0.47000000000E+01 0.  1.
         11    1    6    6    0    0 -0.21698858995E+02 -0.44445762666E+01  0.12135223782E+03  0.12335704424E+03  0.00000000000E+00 0. -1.
        -12    1    6    6    0    0  0.31115114590E+02  0.34570700732E+02  0.51324055664E+02  0.69263571918E+02  0.00000000000E+00 0.  1.
</event>
<event>
12    1  0.1061634E+000  0.2150585E+03  0.7818608E-02  0.1137636E+00
         21   -1    0    0  501  502  0.00000000000E+00  0.00000000000E+00  0.15184434935E+03  0.15184434935E+03  0.00000000000E+00 0.  1.
         21   -1    0    0  502  503 -0.00000000000E+00 -0.00000000000E+00 -0.30448612590E+03  0.30448612590E+03  0.00000000000E+00 0.  1.
         -6    2    1    2    0  503  0.10004013177E+03 -0.83021487731E+02 -0.75840582747E+02  0.22803933746E+03  0.17131710378E+03 0.  0.
        -24    2    3    3    0    0 -0.46647817963E+01 -0.28360108962E+02  0.86435980079E+01  0.82744285748E+02  0.77109331912E+02 0.  0.
          6    2    1    2  501    0 -0.10004013177E+03  0.83021487731E+02 -0.76801193810E+02  0.22829113779E+03  0.17122448667E+03 0.  0.
         24    2    5    5    0    0  0.52877788717E+01  0.18969967734E+02  0.49714347092E+01  0.80286344802E+02  0.77674717363E+02 0.  0.
          5    1    5    5  501    0 -0.10532791064E+03  0.64051519996E+02 -0.81772628519E+02  0.14800479299E+03  0.47000000000E+01 0. -1.
        -13    1    6    6    0    0 -0.13038577016E+02 -0.26727352265E+02  0.84880510839E+01  0.30925763708E+02  0.00000000000E+00 0.  1.
         14    1    6    6    0    0  0.18326355888E+02  0.45697319999E+02 -0.35166163747E+01  0.49360581094E+02  0.00000000000E+00 0. -1.
         -5    1    3    3    0  503  0.10470491356E+03 -0.54661378769E+02 -0.84484180755E+02  0.14529505171E+03  0.47000000000E+01 0.  1.
         11    1    4    4    0    0 -0.32349194553E+02 -0.37727108116E+02  0.16700119931E+02  0.52428037163E+02  0.00000000000E+00 0. -1.
        -12    1    4    4    0    0  0.27684412756E+02  0.93669991544E+01 -0.80565219232E+01  0.30316248586E+02  0.00000000000E+00 0.  1.
</event>
<event>
12    1  0.1061634E+000  0.2583374E+03  0.7818608E-02  0.1110216E+00
         21   -1    0    0  503  502  0.00000000000E+00  0.00000000000E+00  0.18131142832E+03  0.18131142832E+03  0.00000000000E+00 0. -1.
         21   -1    0    0  501  503 -0.00000000000E+00 -0.00000000000E+00 -0.44033400491E+03  0.44033400491E+03  0.00000000000E+00 0. -1.
          6    2    1    2  501    0 -0.15693123136E+03 -0.75494116947E+02 -0.27343279147E+03  0.37616977270E+03  0.19081780152E+03 0.  0.
         24    2    3    3    0    0 -0.19149721008E+03 -0.56294102313E+02 -0.20633144139E+03  0.29814331162E+03  0.80477096950E+02 0.  0.
         -6    2    1    2    0  502  0.15693123136E+03  0.75494116947E+02  0.14410214880E+02  0.24547566053E+03  0.17240612677E+03 0.  0.
        -24    2    5    5    0    0  0.15084546871E+03  0.40524194580E+01  0.26165499808E+02  0.17266611877E+03  0.79738181925E+02 0.  0.
          5    1    3    3  501    0  0.34565978721E+02 -0.19200014634E+02 -0.67101350079E+02  0.78026461084E+02  0.47000000000E+01 0. -1.
        -13    1    4    4    0    0 -0.41420453670E+02 -0.37406501682E+02 -0.95542862822E+02  0.11064962262E+03  0.00000000000E+00 0.  1.
         14    1    4    4    0    0 -0.15007675641E+03 -0.18887600630E+02 -0.11078857857E+03  0.18749368900E+03  0.00000000000E+00 0. -1.
         -5    1    5    5    0  502  0.60857626506E+01  0.71441697489E+02 -0.11755284928E+02  0.72809541757E+02  0.47000000000E+01 0.  1.
         11    1    6    6    0    0  0.98186267078E+01 -0.34046940447E+01 -0.21282818189E+02  0.23684503837E+02  0.00000000000E+00 0. -1.
        -12    1    6    6    0    0  0.14102684200E+03  0.74571135027E+01  0.47448317996E+02  0.14898161493E+03  0.00000000000E+00 0.  1.
</event>
<event>
12    1  0.1061634E+000  0.3597726E+03  0.7818608E-02  0.1058804E+00
         21   -1    0    0  501  502  0.00000000000E+00  0.00000000000E+00  0.13477874850E+03  0.13477874850E+03  0.00000000000E+00 0.  1.
         21   -1    0    0  502  503 -0.00000000000E+00 -0.00000000000E+00 -0.11931919135E+04  0.11931919135E+04  0.00000000000E+00 0.  1.
         -6    2    1    2    0  503  0.27598067007E+03 -0.15036297798E+03 -0.23292246814E+03  0.42748678453E+03  0.17238828088E+03 0.  0.
        -24    2    3    3    0    0  0.19891035747E+03 -0.98710127117E+02 -0.23716489022E+03  0.33449249314E+03  0.79555158886E+02 0.  0.
          6    2    1    2  501    0 -0.27598067007E+03  0.15036297798E+03 -0.82549069690E+03  0.90048387750E+03  0.17510558978E+03 0.  0.
         24    2    5    5    0    0 -0.13758397925E+03  0.12446803877E+03 -0.61157197778E+03  0.64434426656E+03  0.82082920363E+02 0.  0.
          5    1    5    5  501    0 -0.13839669082E+03  0.25894939217E+02 -0.21391871912E+03  0.25613961094E+03  0.47000000000E+01 0. -1.
        -13    1    6    6    0    0 -0.13426354190E+03  0.83381964066E+02 -0.42928118040E+03  0.45745118041E+03  0.00000000000E+00 0.  1.
         14    1    6    6    0    0 -0.33204373537E+01  0.41086074701E+02 -0.18229079739E+03  0.18689308615E+03  0.00000000000E+00 0. -1.
         -5    1    3    3    0  503  0.77070312596E+02 -0.51652850867E+02  0.42424220851E+01  0.92994291392E+02  0.47000000000E+01 0.  1.
         11    1    4    4    0    0  0.11877437538E+03 -0.10024921552E+03 -0.14838103752E+03  0.21488180415E+03  0.00000000000E+00 0. -1.
        -12    1    4    4    0    0  0.80135982097E+02  0.15390884040E+01 -0.88783852696E+02  0.11961068898E+03  0.00000000000E+00 0.  1.
</event>
<event>
12    1  0.1061634E+000  0.1820207E+03  0.7818608E-02  0.1166192E+00
         21   -1    0    0  501  502  0.00000000000E+00  0.00000000000E+00  0.11909993023E+03  0.11909993023E+03  0.00000000000E+00 0. -1.
         21   -1    0    0  502  503 -0.00000000000E+00 -0.00000000000E+00 -0.29046563601E+03  0.29046563601E+03  0.00000000000E+00 0. -1.
         -6    2    1    2    0  503 -0.14840008500E+02 -0.51257422625E+02 -0.13156832253E+03  0.22459242801E+03  0.17402294676E+03 0.  0.
        -24    2    3    3    0    0  0.17431562497E+02 -0.55382117157E+02 -0.15494688612E+03  0.18425491898E+03  0.81057383244E+02 0.  0.
          6    2    1    2  501    0  0.14840008500E+02  0.51257422625E+02 -0.39797383255E+02  0.18497313823E+03  0.17257949162E+03 0.  0.
         24    2    5    5    0    0  0.56272486767E+02  0.11159699893E+02 -0.68832490456E+02  0.12024597953E+03  0.80187606164E+02 0.  0.
          5    1    5    5  501    0 -0.41432478267E+02  0.40097722731E+02  0.29035107200E+02  0.64727158703E+02  0.47000000000E+01 0. -1.
        -11    1    6    6    0    0  0.16744376296E+02  0.43449448549E+02 -0.24372655574E+02  0.52557159898E+02  0.00000000000E+00 0.  1.
         12    1    6    6    0    0  0.39528110471E+02 -0.32289748656E+02 -0.44459834881E+02  0.67688819633E+02  0.00000000000E+00 0. -1.
         -5    1    3    3    0  503 -0.32271570997E+02  0.41246945326E+01  0.23378563585E+02  0.40337509032E+02  0.47000000000E+01 0.  1.
         13    1    4    4    0    0 -0.36660457854E+01 -0.33266356440E+02 -0.14951012017E+03  0.15321020330E+03  0.00000000000E+00 0. -1.
        -14    1    4    4    0    0  0.21097608282E+02 -0.22115760717E+02 -0.54367659443E+01  0.31044715674E+02  0.00000000000E+00 0.  1.
</event>
<event>
12    1  0.1061634E+000  0.1777206E+03  0.7818608E-02  0.1170300E+00
         21   -1    0    0  503  502  0.00000000000E+00  0.00000000000E+00  0.23268597147E+02  0.23268597147E+02  0.00000000000E+00 0. -1.
         21   -1    0    0  501  503 -0.00000000000E+00 -0.00000000000E+00 -0.14436326222E+04  0.14436326222E+04  0.00000000000E+00 0. -1.
          6    2    1    2  501    0  0.45065145738E+02  0.99230318400E+01 -0.90007212872E+03  0.91744997745E+03  0.17162543605E+03 0.  0.
         24    2    3    3    0    0  0.52489339146E+02  0.56035952722E+02 -0.79031631036E+03  0.79807682392E+03  0.80197180322E+02 0.  0.
         -6    2    1    2    0  502 -0.45065145738E+02 -0.99230318400E+01 -0.52029189630E+03  0.54945124186E+03  0.17048072005E+03 0.  0.
        -24    2    5    5    0    0 -0.60628011187E+02  0.49367959474E+02 -0.28877715397E+03  0.30991253862E+03  0.80873888129E+02 0.  0.
          5    1    3    3  501    0 -0.74241934081E+01 -0.46112920882E+02 -0.10975581836E+03  0.11937315353E+03  0.47000000000E+01 0. -1.
        -13    1    4    4    0    0 -0.56356170095E-01  0.44132062311E+02 -0.17778648471E+03  0.18318208495E+03  0.00000000000E+00 0.  1.
         14    1    4    4    0    0  0.52545695316E+02  0.11903890411E+02 -0.61252982565E+03  0.61489473897E+03  0.00000000000E+00 0. -1.
         -5    1    5    5    0  502  0.15562865449E+02 -0.59290991314E+02 -0.23151474233E+03  0.23953870324E+03  0.47000000000E+01 0.  1.
         11    1    6    6    0    0 -0.56508592886E+02 -0.20072788309E+01 -0.10767079923E+03  0.12161517687E+03  0.00000000000E+00 0. -1.
        -12    1    6    6    0    0 -0.41194183006E+01  0.51375238305E+02 -0.18110635474E+03  0.18829736175E+03  0.00000000000E+00 0.  1.
</event>
<event>
12    1  0.1061634E+000  0.3687715E+03  0.7818608E-02  0.1055244E+00
         21   -1    0    0  503  502  0.00000000000E+00  0.00000000000E+00  0.10799076648E+03  0.10799076648E+03  0.00000000000E+00 0.  1.
         21   -1    0    0  501  503 -0.00000000000E+00 -0.00000000000E+00 -0.12862191769E+04  0.12862191769E+04  0.00000000000E+00 0.  1.
          6    2    1    2  501    0 -0.11094692799E+03  0.30653023883E+03 -0.48237934801E+03  0.60668320539E+03  0.17060090318E+03 0.  0.
         24    2    3    3    0    0 -0.80207986991E+02  0.13158623657E+03 -0.14940941927E+03  0.22926917562E+03  0.80578666479E+02 0.  0.
         -6    2    1    2    0  502  0.11094692799E+03 -0.30653023883E+03 -0.69584906240E+03  0.78752673799E+03  0.17240196419E+03 0.  0.
        -24    2    5    5    0    0  0.74435883011E+02 -0.81243262010E+02 -0.31864021726E+03  0.34662325515E+03  0.80466916506E+02 0.  0.
          5    1    3    3  501    0 -0.30738941002E+02  0.17494400226E+03 -0.33296992874E+03  0.37741402977E+03  0.47000000000E+01 0. -1.
        -13    1    4    4    0    0  0.59400093456E+01  0.37300841895E+02 -0.77875453250E+01  0.38565300197E+02  0.00000000000E+00 0.  1.
         14    1    4    4    0    0 -0.86147996337E+02  0.94285394675E+02 -0.14162187395E+03  0.19070387543E+03  0.00000000000E+00 0. -1.
         -5    1    5    5    0  502  0.36511044983E+02 -0.22528697682E+03 -0.37720884514E+03  0.44090348284E+03  0.47000000000E+01 0.  1.
         11    1    6    6    0    0  0.32364106975E+02 -0.87758736341E+02 -0.20748858186E+03  0.22759732606E+03  0.00000000000E+00 0. -1.
        -12    1    6    6    0    0  0.42071776036E+02  0.65154743313E+01 -0.11115163540E+03  0.11902592909E+03  0.00000000000E+00 0.  1.
</event>
<event>
12    1  0.1061634E+000  0.2304557E+03  0.7818608E-02  0.1126380E+00
         21   -1    0    0  501  502  0.00000000000E+00  0.00000000000E+00  0.19273389921E+03  0.19273389921E+03  0.00000000000E+00 0.  1.
         21   -1    0    0  502  503 -0.00000000000E+00 -0.00000000000E+00 -0.35355012925E+03  0.35355012925E+03  0.00000000000E+00 0. -1.
         -6    2    1    2    0  503 -0.71567719015E+02 -0.13443299038E+03  0.48260716588E+02  0.23512011654E+03  0.17250566694E+03 0.  0.
        -24    2    3    3    0    0 -0.46188741688E+02 -0.16674769502E+03  0.28068997900E+02  0.18909699051E+03  0.70933839077E+02 0.  0.
          6    2    1    2  501    0  0.71567719015E+02  0.13443299038E+03 -0.20907694663E+03  0.31116391192E+03  0.17296139210E+03 0.  0.
         24    2    5    5    0    0  0.83707976812E+02  0.14871038494E+03 -0.22126022131E+03  0.28832201978E+03  0.71075295160E+02 0.  0.
          5    1    5    5  501    0 -0.12140257797E+02 -0.14277394559E+02  0.12183274676E+02  0.22841892141E+02  0.47000000000E+01 0. -1.
        -13    1    6    6    0    0 -0.12732356914E+01  0.56209711760E+02 -0.93860302368E+02  0.10941165014E+03  0.00000000000E+00 0.  1.
         14    1    6    6    0    0  0.84981212503E+02  0.92500673182E+02 -0.12739991894E+03  0.17891036964E+03  0.00000000000E+00 0. -1.
         -5    1    3    3    0  503 -0.25378977327E+02  0.32314704632E+02  0.20191718688E+02  0.46023126026E+02  0.47000000000E+01 0.  1.
         13    1    4    4    0    0 -0.27304666814E+02 -0.73759264620E+02 -0.22190734476E+02  0.81721494380E+02  0.00000000000E+00 0. -1.
        -14    1    4    4    0    0 -0.18884074874E+02 -0.92988430396E+02  0.50259732376E+02  0.10737549613E+03  0.00000000000E+00 0.  1.
</event>
<event>
12    1  0.1061634E+000  0.2540682E+03  0.7818608E-02  0.1111462E+00
         21   -1    0    0  501  502  0.00000000000E+00  0.00000000000E+00  0.58929025589E+03  0.58929025589E+03  0.00000000000E+00 0. -1.
         21   -1    0    0  502  503 -0.00000000000E+00 -0.00000000000E+00 -0.10789419589E+03  0.10789419589E+03  0.00000000000E+00 0. -1.
         -6    2    1    2    0  503  0.53595519285E+02  0.17201120372E+03  0.26062193274E+03  0.36397040558E+03  0.17913774148E+03 0.  0.
        -24    2    3    3    0    0  0.43893663237E+02  0.18508061396E+03  0.27363304051E+03  0.34260888830E+03  0.79525606868E+02 0.  0.
          6    2    1    2  501    0 -0.53595519285E+02 -0.17201120372E+03  0.22077412726E+03  0.33321404620E+03  0.17271378470E+03 0.  0.
         24    2    5    5    0    0 -0.12268865282E+02 -0.16223495017E+03  0.10438724154E+03  0.20923233533E+03  0.80067283193E+02 0.  0.
          5    1    5    5  501    0 -0.41326654003E+02 -0.97762535494E+01  0.11638688572E+03  0.12398171088E+03  0.47000000000E+01 0. -1.
        -13    1    6    6    0    0  0.12625327544E+02 -0.13499380335E+03  0.10629155746E+03  0.17228064612E+03  0.00000000000E+00 0.  1.
         14    1    6    6    0    0 -0.24894192827E+02 -0.27241146811E+02 -0.19043159169E+01  0.36951689206E+02  0.00000000000E+00 0. -1.
         -5    1    3    3    0  503  0.97018560486E+01 -0.13069410240E+02 -0.13011107776E+02  0.21361517277E+02  0.47000000000E+01 0.  1.
         13    1    4    4    0    0  0.49303064191E+02  0.47543737182E+02  0.88011304078E+02  0.11152214457E+03  0.00000000000E+00 0. -1.
        -14    1    4    4    0    0 -0.54094009540E+01  0.13753687677E+03  0.18562173644E+03  0.23108674373E+03  0.00000000000E+00 0.  1.
</event>
<event>
12    1  0.1061634E+000  0.2068470E+03  0.7818608E-02  0.1144417E+00
         21   -1    0    0  503  502  0.00000000000E+00  0.00000000000E+00  0.14843978597E+03  0.14843978597E+03  0.00000000000E+00 0.  1.
         21   -1    0    0  501  503 -0.00000000000E+00 -0.00000000000E+00 -0.10898161941E+04  0.10898161941E+04  0.00000000000E+00 0. -1.
          6    2    1    2  501    0  0.89063533131E+02 -0.70964757997E+02  0.60550454265E+02  0.21552732936E+03  0.17267704647E+03 0.  0.
         24    2    3    3    0    0  0.27591748511E+02  0.59468831974E+01 -0.17767592877E+02  0.89630596422E+02  0.83194269350E+02 0.  0.
         -6    2    1    2    0  502 -0.89063533131E+02  0.70964757997E+02 -0.10019268624E+04  0.10227286507E+04  0.17072828000E+03 0.  0.
        -24    2    5    5    0    0 -0.29396088473E+02 -0.28767106002E+02 -0.47656929370E+03  0.48464936879E+03  0.77942559410E+02 0.  0.
          5    1    3    3  501    0  0.61471784620E+02 -0.76911641194E+02  0.78318047142E+02  0.12589673294E+03  0.47000000000E+01 0. -1.
        -13    1    4    4    0    0 -0.89891120913E+01 -0.21011187901E+01  0.28583575534E+02  0.30037303918E+02  0.00000000000E+00 0.  1.
         14    1    4    4    0    0  0.36580860602E+02  0.80480019875E+01 -0.46351168411E+02  0.59593292504E+02  0.00000000000E+00 0. -1.
         -5    1    5    5    0  502 -0.59667444658E+02  0.99731863999E+02 -0.52535756873E+03  0.53807928196E+03  0.47000000000E+01 0.  1.
         11    1    6    6    0    0 -0.21761041018E+01  0.80241997381E+01 -0.34934280502E+03  0.34944172423E+03  0.00000000000E+00 0. -1.
        -12    1    6    6    0    0 -0.27219984371E+02 -0.36791305740E+02 -0.12722648867E+03  0.13520764456E+03  0.00000000000E+00 0.  1.
</event>
<event>
12    1  0.1061634E+000  0.1947908E+03  0.7818608E-02  0.1154330E+00
         21   -1    0    0  501  502  0.00000000000E+00  0.00000000000E+00  0.49122584535E+03  0.49122584535E+03  0.00000000000E+00 0. -1.
         21   -1    0    0  502  503 -0.00000000000E+00 -0.00000000000E+00 -0.81653439762E+02  0.81653439762E+02  0.00000000000E+00 0. -1.
         -6    2    1    2    0  503  0.10973694903E+02 -0.88332807995E+02  0.27270951036E+03  0.33481440063E+03  0.17264732514E+03 0.  0.
        -24    2    3    3    0    0  0.29965877260E+02 -0.12450915089E+03  0.23184533558E+03  0.27683680533E+03  0.80534928470E+02 0.  0.
          6    2    1    2  501    0 -0.10973694903E+02  0.88332807995E+02  0.13686289523E+03  0.23806488448E+03  0.17326375901E+03 0.  0.
         24    2    5    5    0    0 -0.22682563938E+02  0.11517973142E+03  0.14959477431E+03  0.20578415251E+03  0.78661627807E+02 0.  0.
          5    1    5    5  501    0  0.11708869035E+02 -0.26846923424E+02 -0.12731879082E+02  0.32280731968E+02  0.47000000000E+01 0. -1.
        -11    1    6    6    0    0 -0.32130619925E+01  0.58774883234E+02  0.18423666709E+02  0.61678538905E+02  0.00000000000E+00 0.  1.
         12    1    6    6    0    0 -0.19469501946E+02  0.56404848185E+02  0.13117110760E+03  0.14410561361E+03  0.00000000000E+00 0. -1.
         -5    1    3    3    0  503 -0.18992182357E+02  0.36176342890E+02  0.40864174782E+02  0.57977595295E+02  0.47000000000E+01 0.  1.
         13    1    4    4    0    0  0.19195274842E+01 -0.27004582166E+02  0.39266308464E+01  0.27355995203E+02  0.00000000000E+00 0. -1.
        -14    1    4    4    0    0  0.28046349776E+02 -0.97504568719E+02  0.22791870473E+03  0.24948081013E+03  0.00000000000E+00 0.  1.
</event>
<event>
12    1  0.1061634E+000  0.1771424E+03  0.7818608E-02  0.1172089E+00
         21   -1    0    0  501  502  0.00000000000E+00  0.00000000000E+00  0.37112959563E+03  0.37112959563E+03  0.00000000000E+00 0. -1.
         21   -1    0    0  502  503 -0.00000000000E+00 -0.00000000000E+00 -0.13652912997E+03  0.13652912997E+03  0.00000000000E+00 0. -1.
         -6    2    1    2    0  503 -0.35781218794E+02  0.34166181159E+01  0.27926788260E+03  0.33071134935E+03  0.17345742255E+03 0.  0.
        -24    2    3    3    0    0  0.41596136013E+02  0.29687440693E+02  0.17420603115E+03  0.19752916666E+03  0.77836031029E+02 0.  0.
          6    2    1    2  501    0  0.35781218794E+02 -0.34166181159E+01 -0.44667416950E+02  0.17694737624E+03  0.16740139463E+03 0.  0.
         24    2    5    5    0    0 -0.25378747478E+02 -0.37107238680E+02 -0.52371654724E+02  0.10654109337E+03  0.81161483305E+02 0.  0.
          5    1    5    5  501    0  0.61159966272E+02  0.33690620565E+02  0.77042377743E+01  0.70406282873E+02  0.47000000000E+01 0. -1.
        -11    1    6    6    0    0 -0.43847654968E+02 -0.15694035047E+02 -0.61211414462E+02  0.76913957399E+02  0.00000000000E+00 0.  1.
         12    1    6    6    0    0  0.18468907490E+02 -0.21413203633E+02  0.88397597385E+01  0.29627135973E+02  0.00000000000E+00 0. -1.
         -5    1    3    3    0  503 -0.77377354806E+02 -0.26270822577E+02  0.10506185145E+03  0.13318218269E+03  0.47000000000E+01 0.  1.
         13    1    4    4    0    0 -0.17202193693E+01  0.13742026783E+02 -0.32021205608E+01  0.14214641426E+02  0.00000000000E+00 0. -1.
        -14    1    4    4    0    0  0.43316355382E+02  0.15945413910E+02  0.17740815171E+03  0.18331452524E+03  0.00000000000E+00 0.  1.
</event>
<event>
12    1  0.1061634E+000  0.2766140E+03  0.7818608E-02  0.1097776E+00
         21   -1    0    0  503  502  0.00000000000E+00  0.00000000000E+00  0.47493638841E+03  0.47493638841E+03  0.00000000000E+00 0. -1.
         21   -1    0    0  501  503 -0.00000000000E+00 -0.00000000000E+00 -0.17009245881E+03  0.17009245881E+03  0.00000000000E+00 0.  1.
          6    2    1    2  501    0 -0.19081820933E+03 -0.10097311670E+03  0.74953205819E+02  0.28658906855E+03  0.17293973472E+03 0.  0.
         24    2    3    3    0    0 -0.27452488565E+02 -0.28182343967E+02  0.60494197986E+02  0.10709531316E+03  0.79132638475E+02 0.  0.
         -6    2    1    2    0  502  0.19081820933E+03  0.10097311670E+03  0.22989072379E+03  0.35843977866E+03  0.17035894675E+03 0.  0.
        -24    2    5    5    0    0  0.12386956915E+03  0.12192283944E+03  0.18851626243E+03  0.27686191796E+03  0.10442840359E+03 0.  0.
          5    1    3    3  501    0 -0.16336572076E+03 -0.72790772736E+02  0.14459007833E+02  0.17949375539E+03  0.47000000000E+01 0. -1.
        -11    1    4    4    0    0 -0.11058091179E+02  0.27722227140E+02  0.16604736410E+02  0.34154363255E+02  0.00000000000E+00 0.  1.
         12    1    4    4    0    0 -0.16394397386E+02 -0.55904571106E+02  0.43889461577E+02  0.72940949910E+02  0.00000000000E+00 0. -1.
         -5    1    5    5    0  502  0.66948640179E+02 -0.20949722741E+02  0.41374461359E+02  0.81577860707E+02  0.47000000000E+01 0.  1.
         11    1    6    6    0    0  0.13178709155E+03  0.68226309537E+02  0.13436580760E+03  0.20019200050E+03  0.00000000000E+00 0. -1.
        -12    1    6    6    0    0 -0.79175223994E+01  0.53696529907E+02  0.54150454825E+02  0.76669917456E+02  0.00000000000E+00 0.  1.
</event>
<event>
12    1  0.1061634E+000  0.2586331E+03  0.7818608E-02  0.1108428E+00
         21   -1    0    0  503  502  0.00000000000E+00  0.00000000000E+00  0.19034152951E+03  0.19034152951E+03  0.00000000000E+00 0. -1.
         21   -1    0    0  501  503 -0.00000000000E+00 -0.00000000000E+00 -0.37320132261E+03  0.37320132261E+03  0.00000000000E+00 0.  1.
          6    2    1    2  501    0  0.12768911880E+03  0.14312865793E+03 -0.17733731783E+02  0.25924034987E+03  0.17349567712E+03 0.  0.
         24    2    3    3    0    0  0.12752158134E+03  0.47763520445E+02 -0.35986958801E+02  0.16203022791E+03  0.80097602704E+02 0.  0.
         -6    2    1    2    0  502 -0.12768911880E+03 -0.14312865793E+03 -0.16512606132E+03  0.30430250225E+03  0.16894695313E+03 0.  0.
        -24    2    5    5    0    0 -0.53089624364E+02 -0.42382360652E+01 -0.44927669017E+02  0.10599623063E+03  0.79876370747E+02 0.  0.
          5    1    3    3  501    0  0.16753745444E+00  0.95365137483E+02  0.18253227018E+02  0.97210121965E+02  0.47000000000E+01 0. -1.
        -13    1    4    4    0    0  0.25006221220E+02 -0.18594550612E+02 -0.23985534081E+02  0.39323965432E+02  0.00000000000E+00 0.  1.
         14    1    4    4    0    0  0.10251536012E+03  0.66358071057E+02 -0.12001424720E+02  0.12270626248E+03  0.00000000000E+00 0. -1.
         -5    1    5    5    0  502 -0.74599494432E+02 -0.13889042186E+03 -0.12019839230E+03  0.19830627163E+03  0.47000000000E+01 0.  1.
         11    1    6    6    0    0 -0.26092612488E+02 -0.41362479499E+02 -0.31493973703E+02  0.58168286174E+02  0.00000000000E+00 0. -1.
        -12    1    6    6    0    0 -0.26997011876E+02  0.37124243434E+02 -0.13433695314E+02  0.47827944453E+02  0.00000000000E+00 0.  1.
</event>
<event>
12    1  0.1061634E+000  0.1902641E+03  0.7818608E-02  0.1161574E+00
         21   -1    0    0  503  502  0.00000000000E+00  0.00000000000E+00  0.13182127461E+03  0.13182127461E+03  0.00000000000E+00 0. -1.
         21   -1    0    0  501  503 -0.00000000000E+00 -0.00000000000E+00 -0.26191302861E+03  0.26191302861E+03  0.00000000000E+00 0. -1.
          6    2    1    2  501    0  0.19964797695E+02 -0.33332319821E+02 -0.95913532267E+02  0.20042480725E+03  0.17164224712E+03 0.  0.
         24    2    3    3    0    0  0.33560193700E+02 -0.85849684569E+02 -0.60055491823E+02  0.13522666726E+03  0.78632909773E+02 0.  0.
         -6    2    1    2    0  502 -0.19964797695E+02  0.33332319821E+02 -0.34178221727E+02  0.19330949598E+03  0.18625459378E+03 0.  0.
        -24    2    5    5    0    0 -0.13561651974E+02  0.87480588933E+02 -0.59646738634E+02  0.13294584237E+03  0.79247029788E+02 0.  0.
          5    1    3    3  501    0 -0.13595396005E+02  0.52517364748E+02 -0.35858040444E+02  0.65198139982E+02  0.47000000000E+01 0. -1.
        -11    1    4    4    0    0  0.35976840323E+02 -0.13762428735E+02 -0.48887774548E+02  0.62239472882E+02  0.00000000000E+00 0.  1.
         12    1    4    4    0    0 -0.24166466234E+01 -0.72087255834E+02 -0.11167717275E+02  0.72987194382E+02  0.00000000000E+00 0. -1.
         -5    1    5    5    0  502 -0.64031457206E+01 -0.54148269112E+02  0.25468516907E+02  0.60363653604E+02  0.47000000000E+01 0.  1.
         11    1    6    6    0    0  0.22787927846E+02 -0.48819655200E+00 -0.55307893606E+01  0.23454586381E+02  0.00000000000E+00 0. -1.
        -12    1    6    6    0    0 -0.36349579820E+02  0.87968785485E+02 -0.54115949274E+02  0.10949125599E+03  0.00000000000E+00 0.  1.
</event>
<event>
12    1  0.1061634E+000  0.2235201E+03  0.7818608E-02  0.1131393E+00
         21   -1    0    0  501  502  0.00000000000E+00  0.00000000000E+00  0.35427986174E+02  0.35427986174E+02  0.00000000000E+00 0. -1.
         21   -1    0    0  502  503 -0.00000000000E+00 -0.00000000000E+00 -0.16070279232E+04  0.16070279232E+04  0.00000000000E+00 0. -1.
         -6    2    1    2    0  503 -0.10624411468E+03  0.95079943365E+02 -0.49662914391E+03  0.54461155599E+03  0.17214305913E+03 0.  0.
        -24    2    3    3    0    0 -0.13810629311E+03  0.59817513014E+02 -0.32626140985E+03  0.36767684426E+03  0.78027374583E+02 0.  0.
          6    2    1    2  501    0  0.10624411468E+03 -0.95079943365E+02 -0.10749707932E+04  0.10978443534E+04  0.17138264400E+03 0.  0.
         24    2    5    5    0    0  0.58935490542E+02 -0.81011794293E+02 -0.37676570251E+03  0.39788117057E+03  0.79503009061E+02 0.  0.
          5    1    5    5  501    0  0.47308624135E+02 -0.14068149072E+02 -0.69820509065E+03  0.69996318285E+03  0.47000000000E+01 0. -1.
        -11    1    6    6    0    0 -0.18869128720E+02 -0.11525677508E+02 -0.91709050713E+02  0.94336818069E+02  0.00000000000E+00 0.  1.
         12    1    6    6    0    0  0.77804619262E+02 -0.69486116785E+02 -0.28505665179E+03  0.30354435250E+03  0.00000000000E+00 0. -1.
         -5    1    3    3    0  503  0.31862178437E+02  0.35262430351E+02 -0.17036773406E+03  0.17693471174E+03  0.47000000000E+01 0.  1.
         11    1    4    4    0    0 -0.18270400828E+02 -0.18679946732E+02 -0.55953468564E+02  0.61753854946E+02  0.00000000000E+00 0. -1.
        -12    1    4    4    0    0 -0.11983589229E+03  0.78497459746E+02 -0.27030794129E+03  0.30592298931E+03  0.00000000000E+00 0.  1.
</event>
<event>
12    1  0.1061634E+000  0.2053934E+03  0.7818608E-02  0.1146208E+00
         21   -1    0    0  503  502  0.00000000000E+00  0.00000000000E+00  0.45622463802E+02  0.45622463802E+02  0.00000000000E+00 0. -1.
         21   -1    0    0  501  503 -0.00000000000E+00 -0.00000000000E+00 -0.97218374421E+03  0.97218374421E+03  0.00000000000E+00 0. -1.
          6    2    1    2  501    0 -0.10460691976E+03  0.53059446798E+01 -0.33360854710E+03  0.39176664491E+03  0.17667959888E+03 0.  0.
         24    2    3    3    0    0 -0.14471283282E+03  0.11253176379E+02 -0.26205176654E+03  0.30938754155E+03  0.77337471877E+02 0.  0.
         -6    2    1    2    0  502  0.10460691976E+03 -0.53059446798E+01 -0.59295273331E+03  0.62603956309E+03  0.17135293961E+03 0.  0.
        -24    2    5    5    0    0 -0.84449053256E+01 -0.29174366843E+02 -0.23458187433E+03  0.24947326177E+03  0.79282989765E+02 0.  0.
          5    1    3    3  501    0  0.40105913063E+02 -0.59472316989E+01 -0.71556780558E+02  0.82379103366E+02  0.47000000000E+01 0. -1.
        -11    1    4    4    0    0 -0.10944794885E+03  0.42217779648E+02 -0.17963471006E+03  0.21454562099E+03  0.00000000000E+00 0.  1.
         12    1    4    4    0    0 -0.35264883975E+02 -0.30964603269E+02 -0.82417056475E+02  0.94841920560E+02  0.00000000000E+00 0. -1.
         -5    1    5    5    0  502  0.11305182508E+03  0.23868422163E+02 -0.35837085898E+03  0.37656630133E+03  0.47000000000E+01 0.  1.
         13    1    6    6    0    0 -0.29970567269E-01 -0.41797874755E+02 -0.54152969802E+02  0.68407655790E+02  0.00000000000E+00 0. -1.
        -14    1    6    6    0    0 -0.84149347583E+01  0.12623507912E+02 -0.18042890453E+03  0.18106560598E+03  0.00000000000E+00 0.  1.
</event>
<event>
12    1  0.1061634E+000  0.2935892E+03  0.7818608E-02  0.1088728E+00
         21   -1    0    0  501  502  0.00000000000E+00  0.00000000000E+00  0.11431142570E+04  0.11431142570E+04  0.00000000000E+00 0.  1.
         21   -1    0    0  502  503 -0.00000000000E+00 -0.00000000000E+00 -0.75053854084E+02  0.75053854084E+02  0.00000000000E+00 0.  1.
         -6    2    1    2    0  503 -0.82051873660E+02 -0.22179543929E+03  0.51093909344E+03  0.58928209743E+03  0.17397961456E+03 0.  0.
        -24    2    3    3    0    0 -0.10719695582E+03 -0.18504065381E+03  0.31882360814E+03  0.39201669472E+03  0.79355938243E+02 0.  0.
          6    2    1    2  501    0  0.82051873660E+02  0.22179543929E+03  0.55712130946E+03  0.62888601364E+03  0.17084419169E+03 0.  0.
         24    2    5    5    0    0  0.23815917986E+02  0.13495129038E+03  0.19111449283E+03  0.24820712986E+03  0.79391317037E+02 0.  0.
          5    1    5    5  501    0  0.58235955674E+02  0.86844148912E+02  0.36600681663E+03  0.38067888378E+03  0.47000000000E+01 0. -1.
        -13    1    6    6    0    0  0.71141554245E+01  0.14056432138E+03  0.16900541227E+03  0.21993582934E+03  0.00000000000E+00 0.  1.
         14    1    6    6    0    0  0.16701762561E+02 -0.56130310051E+01  0.22109080562E+02  0.28271300519E+02  0.00000000000E+00 0. -1.
         -5    1    3    3    0  503  0.25145082157E+02 -0.36754785477E+02  0.19211548531E+03  0.19726540271E+03  0.47000000000E+01 0.  1.
         13    1    4    4    0    0 -0.49667563887E+02 -0.13560413254E+03  0.25424802505E+03  0.29239939451E+03  0.00000000000E+00 0. -1.
        -14    1    4    4    0    0 -0.57529391930E+02 -0.49436521276E+02  0.64575583086E+02  0.99617300217E+02  0.00000000000E+00 0.  1.
</event>
<event>
12    1  0.1061634E+000  0.6345509E+03  0.7818608E-02  0.9836218E-01
         21   -1    0    0  501  502  0.00000000000E+00  0.00000000000E+00  0.12885055873E+04  0.12885055873E+04  0.00000000000E+00 0. -1.
         21   -1    0    0  502  503 -0.00000000000E+00 -0.00000000000E+00 -0.43162805579E+03  0.43162805579E+03  0.00000000000E+00 0.  1.
         -6    2    1    2    0  503 -0.35719162916E+03 -0.49530498287E+03  0.88030785482E+03  0.10851713079E+04  0.17245858092E+03 0.  0.
        -24    2    3    3    0    0 -0.31255146539E+03 -0.47223675981E+03  0.73424415369E+03  0.93063463931E+03  0.79185723621E+02 0.  0.
          6    2    1    2  501    0  0.35719162916E+03  0.49530498287E+03 -0.23430323273E+02  0.63496233527E+03  0.17238126685E+03 0.  0.
         24    2    5    5    0    0  0.19747266591E+03  0.26614238783E+03 -0.90669041802E+02  0.34761450170E+03  0.52799074506E+02 0.  0.
          5    1    5    5  501    0  0.15971896325E+03  0.22916259504E+03  0.67238718530E+02  0.28734783357E+03  0.47000000000E+01 0. -1.
        -11    1    6    6    0    0  0.36398224488E+02  0.81275395138E+02 -0.38022012951E+02  0.96830749608E+02  0.00000000000E+00 0.  1.
         12    1    6    6    0    0  0.16107444142E+03  0.18486699269E+03 -0.52647028851E+02  0.25078375209E+03  0.00000000000E+00 0. -1.
         -5    1    3    3    0  503 -0.44640163768E+02 -0.23068223061E+02  0.14606370113E+03  0.15453666854E+03  0.47000000000E+01 0.  1.
         13    1    4    4    0    0 -0.13249198565E+03 -0.26960271281E+03  0.40183828260E+03  0.50171082745E+03  0.00000000000E+00 0. -1.
        -14    1    4    4    0    0 -0.18005947974E+03 -0.20263404700E+03  0.33240587110E+03  0.42892381187E+03  0.00000000000E+00 0.  1.
</event>
<event>
12    1  0.1061634E+000  0.2688621E+03  0.7818608E-02  0.1102169E+00
         21   -1    0    0  501  502  0.00000000000E+00  0.00000000000E+00  0.16018699330E+04  0.16018699330E+04  0.00000000000E+00 0.  1.
         21   -1    0    0  502  503 -0.00000000000E+00 -0.00000000000E+00 -0.45224089457E+02  0.45224089457E+02  0.00000000000E+00 0.  1.
         -6    2    1    2    0  503  0.32272714626E+02 -0.20221696870E+03  0.70122947323E+03  0.75042016951E+03  0.17168117583E+03 0.  0.
        -24    2    3    3    0    0  0.17656186134E+02 -0.12999160889E+03  0.62793850211E+03  0.64638266688E+03  0.79336185405E+02 0.  0.
          6    2    1    2  501    0 -0.32272714626E+02  0.20221696870E+03  0.85541637026E+03  0.89667385290E+03  0.17422284989E+03 0.  0.
         24    2    5    5    0    0  0.24278248779E+02  0.47850988646E+02  0.21360738706E+03  0.23412745590E+03  0.79425432457E+02 0.  0.
          5    1    5    5  501    0 -0.56550963404E+02  0.15436598006E+03  0.64180898320E+03  0.66254639700E+03  0.47000000000E+01 0. -1.
        -11    1    6    6    0    0 -0.54328850503E+01 -0.43672194131E+01  0.13504990133E+03  0.13522967387E+03  0.00000000000E+00 0.  1.
         12    1    6    6    0    0  0.29711133829E+02  0.52218208059E+02  0.78557485729E+02  0.98897782030E+02  0.00000000000E+00 0. -1.
         -5    1    3    3    0  503  0.14616528492E+02 -0.72225359818E+02  0.73290971120E+02  0.10403750263E+03  0.47000000000E+01 0.  1.
         13    1    4    4    0    0  0.30659052334E+02 -0.13470438313E+03  0.59121269325E+03  0.60713894372E+03  0.00000000000E+00 0. -1.
        -14    1    4    4    0    0 -0.13002866200E+02  0.47127742428E+01  0.36725808865E+02  0.39243723157E+02  0.00000000000E+00 0.  1.
</event>
<event>
12    1  0.1061634E+000  0.1806665E+03  0.7818608E-02  0.1167472E+00
         21   -1    0    0  503  502  0.00000000000E+00  0.00000000000E+00  0.15025520703E+03  0.15025520703E+03  0.00000000000E+00 0. -1.
         21   -1    0    0  501  503 -0.00000000000E+00 -0.00000000000E+00 -0.28297912045E+03  0.28297912045E+03  0.00000000000E+00 0. -1.
          6    2    1    2  501    0 -0.38768345598E+02 -0.33981793940E+02  0.39091592088E+02  0.18484730726E+03  0.17315492337E+03 0.  0.
         24    2    3    3    0    0 -0.64259685868E+02 -0.27585317848E+02  0.82748851578E+02  0.13367339162E+03  0.78300358890E+02 0.  0.
         -6    2    1    2    0  502  0.38768345598E+02  0.33981793940E+02 -0.17181550551E+03  0.24838702021E+03  0.17180744145E+03 0.  0.
        -24    2    5    5    0    0 -0.20933323817E+02  0.63150656760E+02 -0.69989707233E+02  0.12670836521E+03  0.82038047271E+02 0.  0.
          5    1    3    3  501    0  0.25491340269E+02 -0.63964760917E+01 -0.43657259490E+02  0.51173915634E+02  0.47000000000E+01 0. -1.
        -11    1    4    4    0    0 -0.23514596441E+02  0.15517470057E+02 -0.41344255402E+01  0.28474929276E+02  0.00000000000E+00 0.  1.
         12    1    4    4    0    0 -0.40745089427E+02 -0.43102787905E+02  0.86883277118E+02  0.10519846235E+03  0.00000000000E+00 0. -1.
         -5    1    5    5    0  502  0.59701669415E+02 -0.29168862821E+02 -0.10182579827E+03  0.12167865500E+03  0.47000000000E+01 0.  1.
         13    1    6    6    0    0 -0.96876743666E+01 -0.10482971723E+00 -0.61083048156E+02  0.61846590819E+02  0.00000000000E+00 0. -1.
        -14    1    6    6    0    0 -0.11245649451E+02  0.63255486478E+02 -0.89066590767E+01  0.64861774390E+02  0.00000000000E+00 0.  1.
</event>
<event>
12    1  0.1061634E+000  0.2970817E+03  0.7818608E-02  0.1086783E+00
         21   -1    0    0  503  502  0.00000000000E+00  0.00000000000E+00  0.12525823957E+04  0.12525823957E+04  0.00000000000E+00 0.  1.
         21   -1    0    0  501  503 -0.00000000000E+00 -0.00000000000E+00 -0.74137411033E+02  0.74137411033E+02  0.00000000000E+00 0. -1.
          6    2    1    2  501    0 -0.12697287264E+03 -0.20562934883E+03  0.43818806365E+03  0.52907462168E+03  0.17177204865E+03 0.  0.
         24    2    3    3    0    0 -0.13048650516E+03 -0.15404915974E+03  0.23293129040E+03  0.31735477262E+03  0.75493006397E+02 0.  0.
         -6    2    1    2    0  502  0.12697287264E+03  0.20562934883E+03  0.74025692105E+03  0.79764518509E+03  0.17277729203E+03 0.  0.
        -24    2    5    5    0    0  0.14677630410E+03  0.17660776332E+03  0.50726909327E+03  0.56197625158E+03  0.75906448003E+02 0.  0.
          5    1    3    3  501    0  0.35136325147E+01 -0.51580189090E+02  0.20525677325E+03  0.21171984906E+03  0.47000000000E+01 0. -1.
        -13    1    4    4    0    0 -0.28554486288E+02 -0.27623133741E+02  0.99607724778E+02  0.10723849607E+03  0.00000000000E+00 0.  1.
         14    1    4    4    0    0 -0.10193201887E+03 -0.12642602600E+03  0.13332356562E+03  0.21011627655E+03  0.00000000000E+00 0. -1.
         -5    1    5    5    0  502 -0.19803431459E+02  0.29021585509E+02  0.23298782778E+03  0.23566893350E+03  0.47000000000E+01 0.  1.
         11    1    6    6    0    0  0.34671963829E+02  0.25349362068E+01  0.76843417758E+02  0.84341459734E+02  0.00000000000E+00 0. -1.
        -12    1    6    6    0    0  0.11210434027E+03  0.17407282711E+03  0.43042567551E+03  0.47763479185E+03  0.00000000000E+00 0.  1.
</event>
<event>
12    1  0.1061634E+000  0.3186406E+03  0.7818608E-02  0.1076312E+00
         21   -1    0    0  503  502  0.00000000000E+00  0.00000000000E+00  0.22741542387E+03  0.22741542387E+03  0.00000000000E+00 0.  1.
         21   -1    0    0  501  503 -0.00000000000E+00 -0.00000000000E+00 -0.62475027164E+03  0.62475027164E+03  0.00000000000E+00 0.  1.
          6    2    1    2  501    0 -0.23260687348E+03 -0.13273067737E+03 -0.42648998068E+03  0.53219403370E+03  0.17208543106E+03 0.  0.
         24    2    3    3    0    0 -0.63032794465E+02 -0.11335799259E+01 -0.10201128562E+03  0.14311604939E+03  0.78111990228E+02 0.  0.
         -6    2    1    2    0  502  0.23260687348E+03  0.13273067737E+03  0.29155132909E+02  0.31997166181E+03  0.17265124466E+03 0.  0.
        -24    2    5    5    0    0  0.15158704295E+03  0.58894909007E+02  0.80545875212E+02  0.19881460662E+03  0.81193398096E+02 0.  0.
          5    1    3    3  501    0 -0.16957407901E+03 -0.13159709744E+03 -0.32447869506E+03  0.38907798431E+03  0.47000000000E+01 0. -1.
        -13    1    4    4    0    0 -0.21978543625E+02  0.80363899766E+01 -0.98118278213E+02  0.10087039438E+03  0.00000000000E+00 0.  1.
         14    1    4    4    0    0 -0.41054250840E+02 -0.91699699024E+01 -0.38930074055E+01  0.42245655004E+02  0.00000000000E+00 0. -1.
         -5    1    5    5    0  502  0.81019830525E+02  0.73835768359E+02 -0.51390742304E+02  0.12115705519E+03  0.47000000000E+01 0.  1.
         11    1    6    6    0    0  0.37694549494E+02  0.54652363055E+02  0.41720583710E+02  0.78411523096E+02  0.00000000000E+00 0. -1.
        -12    1    6    6    0    0  0.11389249346E+03  0.42425459518E+01  0.38825291502E+02  0.12040308353E+03  0.00000000000E+00 0.  1.
</event>
<event>
12    1  0.1061634E+000  0.2985070E+03  0.7818608E-02  0.1087118E+00
         21   -1    0    0  503  502  0.00000000000E+00  0.00000000000E+00  0.90946411882E+02  0.90946411882E+02  0.00000000000E+00 0.  1.
         21   -1    0    0  501  503 -0.00000000000E+00 -0.00000000000E+00 -0.95648445917E+03  0.95648445917E+03  0.00000000000E+00 0.  1.
          6    2    1    2  501    0 -0.23311104778E+03  0.22989243191E+02 -0.39957061860E+03  0.49876156169E+03  0.18503283566E+03 0.  0.
         24    2    3    3    0    0 -0.54800219837E+02 -0.42577865672E+02 -0.17885676756E+03  0.20750481727E+03  0.79073175930E+02 0.  0.
         -6    2    1    2    0  502  0.23311104778E+03 -0.22989243191E+02 -0.46596742869E+03  0.54866930936E+03  0.17042036422E+03 0.  0.
        -24    2    5    5    0    0  0.14354215698E+03  0.54494718247E+02 -0.27700552482E+03  0.32561092779E+03  0.75606814275E+02 0.  0.
          5    1    3    3  501    0 -0.17831082794E+03  0.65567108862E+02 -0.22071385104E+03  0.29125674441E+03  0.47000000000E+01 0. -1.
        -11    1    4    4    0    0 -0.73934570303E+02 -0.43427507075E+02 -0.13972175873E+03  0.16393425182E+03  0.00000000000E+00 0.  1.
         12    1    4    4    0    0  0.19134350466E+02  0.84964140342E+00 -0.39135008827E+02  0.43570565456E+02  0.00000000000E+00 0. -1.
         -5    1    5    5    0  502  0.89568890792E+02 -0.77483961438E+02 -0.18896190386E+03  0.22305838157E+03  0.47000000000E+01 0.  1.
         11    1    6    6    0    0  0.81878305779E+02  0.28424157150E+02 -0.81543582505E+02  0.11900145173E+03  0.00000000000E+00 0. -1.
        -12    1    6    6    0    0  0.61663851205E+02  0.26070561097E+02 -0.19546194232E+03  0.20660947605E+03  0.00000000000E+00 0.  1.
</event>
<event>
12    1  0.1061634E+000  0.1820413E+03  0.7818608E-02  0.1165969E+00
         21   -1    0    0  501  502  0.00000000000E+00  0.00000000000E+00  0.77898513456E+02  0.77898513456E+02  0.00000000000E+00 0.  1.
         21   -1    0    0  502  503 -0.00000000000E+00 -0.00000000000E+00 -0.51528740011E+03  0.51528740011E+03  0.00000000000E+00 0.  1.
         -6    2    1    2    0  503 -0.11330808556E+02  0.51721470551E+02 -0.34314864763E+03  0.38819745211E+03  0.17361673225E+03 0.  0.
        -24    2    3    3    0    0  0.29189736665E+02  0.83006363149E+02 -0.15949885454E+03  0.19748826095E+03  0.76286509721E+02 0.  0.
          6    2    1    2  501    0  0.11330808556E+02 -0.51721470551E+02 -0.94240239026E+02  0.20498846146E+03  0.17417103358E+03 0.  0.
         24    2    5    5    0    0 -0.46648201545E+02 -0.23044367284E+02 -0.10073514926E+03  0.13981012362E+03  0.81805884866E+02 0.  0.
          5    1    5    5  501    0  0.57979010102E+02 -0.28677103267E+02  0.64949102358E+01  0.65178337837E+02  0.47000000000E+01 0. -1.
        -11    1    6    6    0    0 -0.27366995507E+02  0.21467425199E+02 -0.88247327387E+01  0.35884240213E+02  0.00000000000E+00 0.  1.
         12    1    6    6    0    0 -0.19281206038E+02 -0.44511792483E+02 -0.91910416523E+02  0.10392588341E+03  0.00000000000E+00 0. -1.
         -5    1    3    3    0  503 -0.40520545221E+02 -0.31284892598E+02 -0.18364979309E+03  0.19070919116E+03  0.47000000000E+01 0.  1.
         11    1    4    4    0    0 -0.22745384561E+02  0.41881359716E+02 -0.87585819161E+02  0.99712970714E+02  0.00000000000E+00 0. -1.
        -12    1    4    4    0    0  0.51935121226E+02  0.41125003433E+02 -0.71913035379E+02  0.97775290240E+02  0.00000000000E+00 0.  1.
</event>
<event>
12    1  0.1061634E+000  0.2334002E+03  0.7818608E-02  0.1124367E+00
         21   -1    0    0  503  502  0.00000000000E+00  0.00000000000E+00  0.18736663531E+03  0.18736663531E+03  0.00000000000E+00 0.  1.
         21   -1    0    0  501  503 -0.00000000000E+00 -0.00000000000E+00 -0.57373079297E+03  0.57373079297E+03  0.00000000000E+00 0.  1.
          6    2    1    2  501    0  0.51144622068E+02  0.14915991669E+03  0.74530176301E+02  0.24447449897E+03  0.17131427365E+03 0.  0.
         24    2    3    3    0    0  0.30717641308E+02  0.62306736943E+01  0.13984533254E+02  0.87841504568E+02  0.80858938728E+02 0.  0.
         -6    2    1    2    0  502 -0.51144622068E+02 -0.14915991669E+03 -0.46089433396E+03  0.51662292931E+03  0.17207908328E+03 0.  0.
        -24    2    5    5    0    0 -0.61047196507E+02 -0.30915660778E+02 -0.14898766888E+03  0.18287508624E+03  0.81015019629E+02 0.  0.
          5    1    3    3  501    0  0.20426980761E+02  0.14292924299E+03  0.60545643047E+02  0.15663299441E+03  0.47000000000E+01 0. -1.
        -13    1    4    4    0    0 -0.27255909569E+02  0.26633194975E+01  0.11508313417E+02  0.29705540811E+02  0.00000000000E+00 0.  1.
         14    1    4    4    0    0  0.57973550877E+02  0.35673541968E+01  0.24762198367E+01  0.58135963757E+02  0.00000000000E+00 0. -1.
         -5    1    5    5    0  502  0.99025744382E+01 -0.11824425591E+03 -0.31190666508E+03  0.33374784307E+03  0.47000000000E+01 0.  1.
         11    1    6    6    0    0 -0.49250462475E+02 -0.60831742641E+01 -0.14718315032E+03  0.15532383205E+03  0.00000000000E+00 0. -1.
        -12    1    6    6    0    0 -0.11796734032E+02 -0.24832486514E+02 -0.18045185588E+01  0.27551254191E+02  0.00000000000E+00 0.  1.
</event>
<event>
12    1  0.1061634E+000  0.1895340E+03  0.7818608E-02  0.1159502E+00
         21   -1    0    0  503  502  0.00000000000E+00  0.00000000000E+00  0.90363670673E+03  0.90363670673E+03  0.00000000000E+00 0.  1.
         21   -1    0    0  501  503 -0.00000000000E+00 -0.00000000000E+00 -0.39526615860E+02  0.39526615860E+02  0.00000000000E+00 0.  1.
          6    2    1    2  501    0  0.62166469368E+02 -0.43198195604E+02  0.47275084273E+03  0.50832402242E+03  0.17078992491E+03 0.  0.
         24    2    3    3    0    0  0.93886002976E+02  0.10829279987E+02  0.31208379231E+03  0.33580999974E+03  0.80250904303E+02 0.  0.
         -6    2    1    2    0  502 -0.62166469368E+02  0.43198195604E+02  0.39135924814E+03  0.43483930017E+03  0.17375960938E+03 0.  0.
        -24    2    5    5    0    0 -0.61151141862E+02 -0.12219067934E+02  0.11609451906E+03  0.15401041087E+03  0.79702581702E+02 0.  0.
          5    1    3    3  501    0 -0.31719533608E+02 -0.54027475591E+02  0.16066705042E+03  0.17251402268E+03  0.47000000000E+01 0. -1.
        -13    1    4    4    0    0  0.25992104758E+02  0.32567506482E+02  0.18929528769E+03  0.19382708255E+03  0.00000000000E+00 0.  1.
         14    1    4    4    0    0  0.67893898218E+02 -0.21738226496E+02  0.12278850462E+03  0.14198291719E+03  0.00000000000E+00 0. -1.
         -5    1    5    5    0  502 -0.10153275057E+01  0.55417263538E+02  0.27526472908E+03  0.28082888929E+03  0.47000000000E+01 0.  1.
         11    1    6    6    0    0 -0.68902915965E+02  0.16981509379E+02  0.82904257985E+02  0.10912882058E+03  0.00000000000E+00 0. -1.
        -12    1    6    6    0    0  0.77517741028E+01 -0.29200577313E+02  0.33190261075E+02  0.44881590295E+02  0.00000000000E+00 0.  1.
</event>
<event>
12    1  0.1061634E+000  0.1884105E+03  0.7818608E-02  0.1160674E+00
         21   -1    0    0  501  502  0.00000000000E+00  0.00000000000E+00  0.17956867416E+03  0.17956867416E+03  0.00000000000E+00 0.  1.
         21   -1    0    0  502  503 -0.00000000000E+00 -0.00000000000E+00 -0.20423014405E+03  0.20423014405E+03  0.00000000000E+00 0.  1.
         -6    2    1    2    0  503  0.42532485418E+00  0.67021164123E+02  0.30328793682E+02  0.18752750711E+03  0.17249554445E+03 0.  0.
        -24    2    3    3    0    0 -0.56749555061E+02  0.62491071618E+02  0.48685276112E+02  0.12712436913E+03  0.81637632769E+02 0.  0.
          6    2    1    2  501    0 -0.42532485418E+00 -0.67021164123E+02 -0.54990263570E+02  0.19627131110E+03  0.17608657283E+03 0.  0.
         24    2    5    5    0    0  0.96239732110E+01  0.28589746348E+02 -0.47465907466E+02  0.99725257181E+02  0.82353628284E+02 0.  0.
          5    1    5    5  501    0 -0.10049298065E+02 -0.95610910471E+02 -0.75243561046E+01  0.96546053920E+02  0.47000000000E+01 0. -1.
        -11    1    6    6    0    0 -0.10160839817E+02  0.39028656670E+02  0.69195219396E+01  0.40918925830E+02  0.00000000000E+00 0.  1.
         12    1    6    6    0    0  0.19784813028E+02 -0.10438910322E+02 -0.54385429405E+02  0.58806331350E+02  0.00000000000E+00 0. -1.
         -5    1    3    3    0  503  0.57174879916E+02  0.45300925041E+01 -0.18356482429E+02  0.60403137987E+02  0.47000000000E+01 0.  1.
         13    1    4    4    0    0  0.13682742697E+02  0.40771001881E+02  0.11228458977E+02  0.44447388372E+02  0.00000000000E+00 0. -1.
        -14    1    4    4    0    0 -0.70432297758E+02  0.21720069738E+02  0.37456817135E+02  0.82676980755E+02  0.00000000000E+00 0.  1.
</event>
<event>
12    1  0.1061634E+000  0.1797201E+03  0.7818608E-02  0.1168402E+00
         21   -1    0    0  503  502  0.00000000000E+00  0.00000000000E+00  0.51799379866E+02  0.51799379866E+02  0.00000000000E+00 0. -1.
         21   -1    0    0  501  503 -0.00000000000E+00 -0.00000000000E+00 -0.75807671449E+03  0.75807671449E+03  0.00000000000E+00 0. -1.
          6    2    1    2  501    0 -0.14183734992E+02 -0.44222292226E+02 -0.18070895935E+03  0.25486281043E+03  0.17361605537E+03 0.  0.
         24    2    3    3    0    0  0.54097934185E+02 -0.55012557984E+02 -0.91900712832E+02  0.14222262741E+03  0.76345050331E+02 0.  0.
         -6    2    1    2    0  502  0.14183734992E+02  0.44222292226E+02 -0.52556837527E+03  0.55501328392E+03  0.17222322369E+03 0.  0.
        -24    2    5    5    0    0  0.12617695297E+01 -0.25238555303E+02 -0.14745572789E+03  0.17032763220E+03  0.81423177704E+02 0.  0.
          5    1    3    3  501    0 -0.68281669177E+02  0.10790265758E+02 -0.88808246520E+02  0.11264018302E+03  0.47000000000E+01 0. -1.
        -13    1    4    4    0    0 -0.61934708157E+01 -0.25169792220E+02  0.27871202181E+01  0.26070012663E+02  0.00000000000E+00 0.  1.
         14    1    4    4    0    0  0.60291405000E+02 -0.29842765764E+02 -0.94687833050E+02  0.11615261475E+03  0.00000000000E+00 0. -1.
         -5    1    5    5    0  502  0.12921965463E+02  0.69460847529E+02 -0.37811264738E+03  0.38468565172E+03  0.47000000000E+01 0.  1.
         13    1    6    6    0    0  0.38183123597E+02 -0.13956548802E+01 -0.46255359933E+02  0.59995475685E+02  0.00000000000E+00 0. -1.
        -14    1    6    6    0    0 -0.36921354068E+02 -0.23842900422E+02 -0.10120036795E+03  0.11033215651E+03  0.00000000000E+00 0.  1.
</event>
<event>
12    1  0.1061634E+000  0.1785765E+03  0.7818608E-02  0.1170212E+00
         21   -1    0    0  501  502  0.00000000000E+00  0.00000000000E+00  0.28566478570E+03  0.28566478570E+03  0.00000000000E+00 0.  1.
         21   -1    0    0  502  503 -0.00000000000E+00 -0.00000000000E+00 -0.11227137115E+03  0.11227137115E+03  0.00000000000E+00 0.  1.
         -6    2    1    2    0  503  0.16518872399E+02  0.21510341455E+02  0.12132057949E+03  0.21588941501E+03  0.17650492506E+03 0.  0.
        -24    2    3    3    0    0  0.10414723279E+02  0.77939396733E+02  0.11396194956E+03  0.15846347705E+03  0.77073546609E+02 0.  0.
          6    2    1    2  501    0 -0.16518872399E+02 -0.21510341455E+02  0.52072835066E+02  0.18204674184E+03  0.17231908811E+03 0.  0.
         24    2    5    5    0    0 -0.64702836565E+02  0.64884098263E+01  0.69999409111E+02  0.12331790282E+03  0.77966860635E+02 0.  0.
          5    1    5    5  501    0  0.48183964165E+02 -0.27998751281E+02 -0.17926574045E+02  0.58728839023E+02  0.47000000000E+01 0. -1.
        -11    1    6    6    0    0 -0.35331971202E+02 -0.16890893499E+02 -0.49689453973E+01  0.39475826661E+02  0.00000000000E+00 0.  1.
         12    1    6    6    0    0 -0.29370865363E+02  0.23379303326E+02  0.74968354508E+02  0.83842076154E+02  0.00000000000E+00 0. -1.
         -5    1    3    3    0  503  0.61041491204E+01 -0.56429055279E+02  0.73586299259E+01  0.57425937959E+02  0.47000000000E+01 0.  1.
         11    1    4    4    0    0  0.33283594047E+02  0.51468238667E+02  0.31553350438E+02  0.68937588789E+02  0.00000000000E+00 0. -1.
        -12    1    4    4    0    0 -0.22868870768E+02  0.26471158066E+02  0.82408599122E+02  0.89525888260E+02  0.00000000000E+00 0.  1.
</event>
<event>
12    1  0.1061634E+000  0.2604415E+03  0.7818608E-02  0.1107297E+00
         21   -1    0    0  501  502  0.00000000000E+00  0.00000000000E+00  0.10121557344E+04  0.10121557344E+04  0.00000000000E+00 0. -1.
         21   -1    0    0  502  503 -0.00000000000E+00 -0.00000000000E+00 -0.89334978866E+02  0.89334978866E+02  0.00000000000E+00 0. -1.
         -6    2    1    2    0  503 -0.94348319444E+02  0.16588184643E+03  0.73922166877E+03  0.78283981320E+03  0.17312164855E+03 0.  0.
        -24    2    3    3    0    0 -0.10144682200E+03  0.15964491713E+03  0.46465347945E+03  0.50806887476E+03  0.80331614429E+02 0.  0.
          6    2    1    2  501    0  0.94348319444E+02 -0.16588184643E+03  0.18359908675E+03  0.31865090005E+03  0.17723255652E+03 0.  0.
         24    2    5    5    0    0  0.11987965477E+03 -0.90879212097E+02  0.78930981229E+02  0.18729357610E+03  0.78858233768E+02 0.  0.
          5    1    5    5  501    0 -0.25531335327E+02 -0.75002634337E+02  0.10466810552E+03  0.13135732395E+03  0.47000000000E+01 0. -1.
        -11    1    6    6    0    0  0.24954561562E+02 -0.54990851780E+02  0.28437363890E+01  0.60455030882E+02  0.00000000000E+00 0.  1.
         12    1    6    6    0    0  0.94925093209E+02 -0.35888360317E+02  0.76087244840E+02  0.12683854522E+03  0.00000000000E+00 0. -1.
         -5    1    3    3    0  503  0.70985025533E+01  0.62369293077E+01  0.27456818932E+03  0.27477093844E+03  0.47000000000E+01 0.  1.
         11    1    4    4    0    0  0.34840128993E+01  0.62148764910E+02  0.14417662010E+03  0.15703982014E+03  0.00000000000E+00 0. -1.
        -12    1    4    4    0    0 -0.10493083490E+03  0.97496152216E+02  0.32047685935E+03  0.35102905462E+03  0.00000000000E+00 0.  1.
</event>
<event>
12    1  0.1061634E+000  0.2678993E+03  0.7818608E-02  0.1103440E+00
         21   -1    0    0  503  502  0.00000000000E+00  0.00000000000E+00  0.12343497485E+04  0.12343497485E+04  0.00000000000E+00 0.  1.
         21   -1    0    0  501  503 -0.00000000000E+00 -0.00000000000E+00 -0.19576559832E+03  0.19576559832E+03  0.00000000000E+00 0.  1.
          6    2    1    2  501    0 -0.20287371913E+03 -0.53618909043E+01  0.11237131435E+04  0.11552061662E+04  0.17488156468E+03 0.  0.
         24    2    3    3    0    0 -0.79656698069E+02 -0.42862311598E+02  0.33531935257E+03  0.35634724531E+03  0.79761668316E+02 0.  0.
         -6    2    1    2    0  502  0.20287371913E+03  0.53618909043E+01 -0.85128993315E+02  0.27490918067E+03  0.16474712843E+03 0.  0.
        -24    2    5    5    0    0  0.22274176704E+03  0.15992469688E+02 -0.70551156051E+02  0.24766304567E+03  0.80559696494E+02 0.  0.
          5    1    3    3  501    0 -0.12321702106E+03  0.37500420694E+02  0.78839379095E+03  0.79885892086E+03  0.47000000000E+01 0. -1.
        -11    1    4    4    0    0 -0.39489141372E+01 -0.36625471269E+02  0.17640108437E+03  0.18020644171E+03  0.00000000000E+00 0.  1.
         12    1    4    4    0    0 -0.75707783932E+02 -0.62368403288E+01  0.15891826820E+03  0.17614080360E+03  0.00000000000E+00 0. -1.
         -5    1    5    5    0  502 -0.19868047913E+02 -0.10630578783E+02 -0.14577837264E+02  0.27246135000E+02  0.47000000000E+01 0.  1.
         13    1    6    6    0    0  0.18063816936E+03  0.14691646529E+02 -0.20723181967E+02  0.18241557767E+03  0.00000000000E+00 0. -1.
        -14    1    6    6    0    0  0.42103597683E+02  0.13008231583E+01 -0.49827974084E+02  0.65247467997E+02  0.00000000000E+00 0.  1.
</event>
<event>
12    1  0.1061634E+000  0.3664808E+03  0.7818608E-02  0.1056125E+00
         21   -1    0    0  501  502  0.00000000000E+00  0.00000000000E+00  0.59730639226E+03  0.59730639226E+03  0.00000000000E+00 0. -1.
         21   -1    0    0  502  503 -0.00000000000E+00 -0.00000000000E+00 -0.23953828432E+03  0.23953828432E+03  0.00000000000E+00 0. -1.
         -6    2    1    2    0  503  0.31916570292E+03 -0.47830608186E+02  0.73751136691E+02  0.37382808937E+03  0.17364819963E+03 0.  0.
        -24    2    3    3    0    0  0.27496857438E+03 -0.33448977254E+02  0.11606485722E+03  0.31079826765E+03  0.79987255976E+02 0.  0.
          6    2    1    2  501    0 -0.31916570292E+03  0.47830608186E+02  0.28401697125E+03  0.46301658721E+03  0.17194245280E+03 0.  0.
         24    2    5    5    0    0 -0.23864240941E+03  0.93918072933E+02  0.18335128528E+03  0.32603583844E+03  0.83131643407E+02 0.  0.
          5    1    5    5  501    0 -0.80523293509E+02 -0.46087464747E+02  0.10066568596E+03  0.13698074877E+03  0.47000000000E+01 0. -1.
        -13    1    6    6    0    0 -0.63177062160E+02 -0.10308230762E+02  0.29651990440E+02  0.70546731615E+02  0.00000000000E+00 0.  1.
         14    1    6    6    0    0 -0.17546534725E+03  0.10422630369E+03  0.15369929484E+03  0.25548910682E+03  0.00000000000E+00 0. -1.
         -5    1    3    3    0  503  0.44197128546E+02 -0.14381630932E+02 -0.42313720532E+02  0.63029821713E+02  0.47000000000E+01 0.  1.
         13    1    4    4    0    0  0.34240737900E+02  0.17369549018E+00 -0.11719059108E+02  0.36191085207E+02  0.00000000000E+00 0. -1.
        -14    1    4    4    0    0  0.24072783648E+03 -0.33622672745E+02  0.12778391633E+03  0.27460718245E+03  0.00000000000E+00 0.  1.
</event>
<event>
12    1  0.1061634E+000  0.1925722E+03  0.7818608E-02  0.1157037E+00
         21   -1    0    0  501  502  0.00000000000E+00  0.00000000000E+00  0.56776852928E+02  0.56776852928E+02  0.00000000000E+00 0. -1.
         21   -1    0    0  502  503 -0.00000000000E+00 -0.00000000000E+00 -0.64946156817E+03  0.64946156817E+03  0.00000000000E+00 0. -1.
         -6    2    1    2    0  503 -0.84828841904E+02  0.19281629237E+02 -0.25663657153E+03  0.32085258798E+03  0.17180320056E+03 0.  0.
        -24    2    3    3    0    0  0.16377019198E+02 -0.67978000057E+01 -0.79413115553E+02  0.11505412759E+03  0.81342439792E+02 0.  0.
          6    2    1    2  501    0  0.84828841904E+02 -0.19281629237E+02 -0.33604814371E+03  0.38538583311E+03  0.16741019034E+03 0.  0.
         24    2    5    5    0    0  0.56952212710E+02 -0.27798433749E+02 -0.34046758005E+03  0.35553179098E+03  0.80426201455E+02 0.  0.
          5    1    5    5  501    0  0.27876629194E+02  0.85168045126E+01  0.44194363376E+01  0.29854042136E+02  0.47000000000E+01 0. -1.
        -13    1    6    6    0    0  0.56887740254E+02 -0.51222476545E+02 -0.22362442785E+03  0.23636379127E+03  0.00000000000E+00 0.  1.
         14    1    6    6    0    0  0.64472456372E-01  0.23424042795E+02 -0.11684315220E+03  0.11916799971E+03  0.00000000000E+00 0. -1.
         -5    1    3    3    0  503 -0.10120586110E+03  0.26079429243E+02 -0.17722345598E+03  0.20579846039E+03  0.47000000000E+01 0.  1.
         11    1    4    4    0    0 -0.95664334581E-01  0.19678160681E+02 -0.81461650310E+02  0.83804770931E+02  0.00000000000E+00 0. -1.
        -12    1    4    4    0    0  0.16472683533E+02 -0.26475960687E+02  0.20485347576E+01  0.31249356661E+02  0.00000000000E+00 0.  1.
</event>
<event>
12    1  0.1061634E+000  0.2413984E+03  0.7818608E-02  0.1119044E+00
         21   -1    0    0  501  502  0.00000000000E+00  0.00000000000E+00  0.22469403064E+03  0.22469403064E+03  0.00000000000E+00 0.  1.
         21   -1    0    0  502  503 -0.00000000000E+00 -0.00000000000E+00 -0.26258990417E+03  0.26258990417E+03  0.00000000000E+00 0.  1.
         -6    2    1    2    0  503 -0.12434496978E+03  0.11337896508E+03  0.12568690386E+02  0.24172542724E+03  0.17308018074E+03 0.  0.
        -24    2    3    3    0    0 -0.28898643653E+02  0.11574113781E+03  0.23448293340E+02  0.14551712826E+03  0.79964176796E+02 0.  0.
          6    2    1    2  501    0  0.12434496978E+03 -0.11337896508E+03 -0.50464563918E+02  0.24555850757E+03  0.17156878269E+03 0.  0.
         24    2    5    5    0    0  0.31601060267E+02 -0.11738207609E+03 -0.45665254229E+02  0.15248551995E+03  0.79933344448E+02 0.  0.
          5    1    5    5  501    0  0.92743909514E+02  0.40031110056E+01 -0.47993096882E+01  0.93072987613E+02  0.47000000000E+01 0. -1.
        -13    1    6    6    0    0  0.13843811677E+02 -0.89392787106E+02  0.64871965774E+01  0.90690711916E+02  0.00000000000E+00 0.  1.
         14    1    6    6    0    0  0.17757248590E+02 -0.27989288982E+02 -0.52152450807E+02  0.61794808037E+02  0.00000000000E+00 0. -1.
         -5    1    3    3    0  503 -0.95446326129E+02 -0.23621727292E+01 -0.10879602954E+02  0.96208298977E+02  0.47000000000E+01 0.  1.
         13    1    4    4    0    0 -0.33423241956E+02  0.87201675762E+01 -0.44489543075E+01  0.34827397546E+02  0.00000000000E+00 0. -1.
        -14    1    4    4    0    0  0.45245983036E+01  0.10702097024E+03  0.27897247648E+02  0.11068973072E+03  0.00000000000E+00 0.  1.
</event>
<event>
12    1  0.1061634E+000  0.1885147E+03  0.7818608E-02  0.1160014E+00
         21   -1    0    0  503  502  0.00000000000E+00  0.00000000000E+00  0.14329153725E+04  0.14329153725E+04  0.00000000000E+00 0. -1.
         21   -1    0    0  501  503 -0.00000000000E+00 -0.00000000000E+00 -0.53420106205E+02  0.53420106205E+02  0.00000000000E+00 0. -1.
          6    2    1    2  501    0  0.69613947611E+02  0.31130512283E+02  0.12355918727E+04  0.12498900244E+04  0.17240239790E+03 0.  0.
         24    2    3    3    0    0  0.47430930606E+02  0.68183900418E+02  0.49630335290E+03  0.50932628962E+03  0.78724289414E+02 0.  0.
         -6    2    1    2    0  502 -0.69613947611E+02 -0.31130512283E+02  0.14390339361E+03  0.23644545428E+03  0.17141486418E+03 0.  0.
        -24    2    5    5    0    0  0.36072803561E+01 -0.88521319084E+01  0.13815288736E+03  0.15955050790E+03  0.79238699980E+02 0.  0.
          5    1    3    3  501    0  0.22183017004E+02 -0.37053388135E+02  0.73928851976E+03  0.74056373478E+03  0.47000000000E+01 0. -1.
        -13    1    4    4    0    0  0.13506124972E+02  0.38662961409E+02  0.73513839575E+02  0.84151795024E+02  0.00000000000E+00 0.  1.
         14    1    4    4    0    0  0.33924805634E+02  0.29520939008E+02  0.42278951332E+03  0.42517449459E+03  0.00000000000E+00 0. -1.
         -5    1    5    5    0  502 -0.73221227967E+02 -0.22278380374E+02  0.57505062488E+01  0.76894946383E+02  0.47000000000E+01 0.  1.
         11    1    6    6    0    0  0.24879355737E+02 -0.27283214672E+02  0.29354465771E+02  0.47170338195E+02  0.00000000000E+00 0. -1.
        -12    1    6    6    0    0 -0.21272075381E+02  0.18431082763E+02  0.10879842159E+03  0.11238016970E+03  0.00000000000E+00 0.  1.
</event>
<event>
12    1  0.1061634E+000  0.2590563E+03  0.7818608E-02  0.1107725E+00
         21   -1    0    0  501  502  0.00000000000E+00  0.00000000000E+00  0.90860298327E+02  0.90860298327E+02  0.00000000000E+00 0.  1.
         21   -1    0    0  502  503 -0.00000000000E+00 -0.00000000000E+00 -0.10625324105E+04  0.10625324105E+04  0.00000000000E+00 0. -1.
         -6    2    1    2    0  503 -0.15540304378E+03 -0.11528435161E+03 -0.16735211690E+03  0.30841027540E+03  0.17224859710E+03 0.  0.
        -24    2    3    3    0    0 -0.18346514050E+03 -0.82046701495E+02 -0.13033027751E+03  0.25109597309E+03  0.75313262199E+02 0.  0.
          6    2    1    2  501    0  0.15540304378E+03  0.11528435161E+03 -0.80431999531E+03  0.84498243346E+03  0.17211644390E+03 0.  0.
         24    2    5    5    0    0  0.14150920451E+03  0.34779622498E+02 -0.41229100812E+03  0.44450413570E+03  0.79784548487E+02 0.  0.
          5    1    5    5  501    0  0.13893839269E+02  0.80504729112E+02 -0.39202898719E+03  0.40047829776E+03  0.47000000000E+01 0. -1.
        -11    1    6    6    0    0  0.10819888885E+03  0.54225325467E+02 -0.25085041758E+03  0.27851986908E+03  0.00000000000E+00 0.  1.
         12    1    6    6    0    0  0.33310315658E+02 -0.19445702969E+02 -0.16144059054E+03  0.16598426662E+03  0.00000000000E+00 0. -1.
         -5    1    3    3    0  503  0.28062096722E+02 -0.33237650115E+02 -0.37021839390E+02  0.57314302311E+02  0.47000000000E+01 0.  1.
         13    1    4    4    0    0 -0.93438611952E+02 -0.97200080459E+01 -0.86112367204E+02  0.12743858343E+03  0.00000000000E+00 0. -1.
        -14    1    4    4    0    0 -0.90026528545E+02 -0.72326693449E+02 -0.44217910304E+02  0.12365738966E+03  0.00000000000E+00 0.  1.
</event>
<event>
12    1  0.1061634E+000  0.2481000E+03  0.7818608E-02  0.1114518E+00
         21   -1    0    0  501  502  0.00000000000E+00  0.00000000000E+00  0.76578370297E+03  0.76578370297E+03  0.00000000000E+00 0.  1.
         21   -1    0    0  502  503 -0.00000000000E+00 -0.00000000000E+00 -0.92747757933E+02  0.92747757933E+02  0.00000000000E+00 0.  1.
         -6    2    1    2    0  503  0.17229546047E+03  0.45207806950E+02  0.17965681352E+03  0.30628462802E+03  0.17263901995E+03 0.  0.
        -24    2    3    3    0    0  0.18424512369E+03  0.71234273176E+02  0.13256224003E+03  0.25096591286E+03  0.79940944795E+02 0.  0.
          6    2    1    2  501    0 -0.17229546047E+03 -0.45207806950E+02  0.49337913151E+03  0.55224683288E+03  0.17269662853E+03 0.  0.
         24    2    5    5    0    0 -0.13763613732E+03 -0.29060540654E+02  0.20277093984E+03  0.25909633576E+03  0.78909035251E+02 0.  0.
          5    1    5    5  501    0 -0.34659323153E+02 -0.16147266296E+02  0.29060819168E+03  0.29315049712E+03  0.47000000000E+01 0. -1.
        -13    1    6    6    0    0 -0.10301247832E+03  0.13541553130E+02  0.11008526109E+03  0.15137274874E+03  0.00000000000E+00 0.  1.
         14    1    6    6    0    0 -0.34623659000E+02 -0.42602093784E+02  0.92685678746E+02  0.10772358703E+03  0.00000000000E+00 0. -1.
         -5    1    3    3    0  503 -0.11949663220E+02 -0.26026466226E+02  0.47094573491E+02  0.55318715165E+02  0.47000000000E+01 0.  1.
         13    1    4    4    0    0  0.62423997600E+02  0.12935544908E+02  0.30090181511E+01  0.63821140609E+02  0.00000000000E+00 0. -1.
        -14    1    4    4    0    0  0.12182112609E+03  0.58298728268E+02  0.12955322188E+03  0.18714477225E+03  0.00000000000E+00 0.  1.
</event>
<event>
12    1  0.1061634E+000  0.2039145E+03  0.7818608E-02  0.1146917E+00
         21   -1    0    0  501  502  0.00000000000E+00  0.00000000000E+00  0.81959379066E+02  0.81959379066E+02  0.00000000000E+00 0.  1.
         21   -1    0    0  502  503 -0.00000000000E+00 -0.00000000000E+00 -0.56056559438E+03  0.56056559438E+03  0.00000000000E+00 0.  1.
         -6    2    1    2    0  503 -0.44198703808E+02  0.99384091974E+02 -0.34195819046E+03  0.39705844588E+03  0.16996847433E+03 0.  0.
        -24    2    3    3    0    0  0.31611830155E+02  0.70627975064E+02 -0.25479323617E+03  0.27791999459E+03  0.79575822498E+02 0.  0.
          6    2    1    2  501    0  0.44198703808E+02 -0.99384091974E+02 -0.13664802486E+03  0.24546652757E+03  0.17248307251E+03 0.  0.
         24    2    5    5    0    0  0.95613577575E+02 -0.79260841261E+02 -0.87566825632E+02  0.17144295983E+03  0.79375703772E+02 0.  0.
          5    1    5    5  501    0 -0.51414873767E+02 -0.20123250713E+02 -0.49081199226E+02  0.74023567742E+02  0.47000000000E+01 0. -1.
        -11    1    6    6    0    0  0.35777445789E+02 -0.83540300719E+01  0.86874009121E+01  0.37752965185E+02  0.00000000000E+00 0.  1.
         12    1    6    6    0    0  0.59836131786E+02 -0.70906811189E+02 -0.96254226544E+02  0.13368999464E+03  0.00000000000E+00 0. -1.
         -5    1    3    3    0  503 -0.75810533963E+02  0.28756116909E+02 -0.87164954283E+02  0.11913845129E+03  0.47000000000E+01 0.  1.
         11    1    4    4    0    0 -0.87849002145E+01 -0.21546605078E+01  0.83130905061E+00  0.90833974052E+01  0.00000000000E+00 0. -1.
        -12    1    4    4    0    0  0.40396730370E+02  0.72782635572E+02 -0.25562454522E+03  0.26883659719E+03  0.00000000000E+00 0.  1.
</event>
<event>
12    1  0.1061634E+000  0.3109449E+03  0.7818608E-02  0.1079959E+00
         21   -1    0    0  501  502  0.00000000000E+00  0.00000000000E+00  0.41786329866E+03  0.41786329866E+03  0.00000000000E+00 0. -1.
         21   -1    0    0  502  503 -0.00000000000E+00 -0.00000000000E+00 -0.30440915793E+03  0.30440915793E+03  0.00000000000E+00 0. -1.
         -6    2    1    2    0  503 -0.24515558034E+03 -0.79171174157E+02  0.23413750678E+03  0.38923913651E+03  0.17411892464E+03 0.  0.
        -24    2    3    3    0    0 -0.12220789921E+03 -0.72189205683E+02  0.55261977273E+02  0.17202167580E+03  0.79946974721E+02 0.  0.
          6    2    1    2  501    0  0.24515558034E+03  0.79171174157E+02 -0.12068336606E+03  0.33303332009E+03  0.17313978184E+03 0.  0.
         24    2    5    5    0    0  0.42580052164E+02 -0.11340767214E+01 -0.58915807613E+02  0.10648730002E+03  0.77808262452E+02 0.  0.
          5    1    5    5  501    0  0.20257552817E+03  0.80305250878E+02 -0.61767558444E+02  0.22654602007E+03  0.47000000000E+01 0. -1.
        -13    1    6    6    0    0  0.43001886637E+02  0.33072769690E+02 -0.39953121424E+02  0.67373750532E+02  0.00000000000E+00 0.  1.
         14    1    6    6    0    0 -0.42183447271E+00 -0.34206846411E+02 -0.18962686189E+02  0.39113549484E+02  0.00000000000E+00 0. -1.
         -5    1    3    3    0  503 -0.12294768112E+03 -0.69819684737E+01  0.17887552951E+03  0.21721746070E+03  0.47000000000E+01 0.  1.
         11    1    4    4    0    0 -0.73184883716E+01 -0.30269288621E+02 -0.10875220918E+02  0.32985762621E+02  0.00000000000E+00 0. -1.
        -12    1    4    4    0    0 -0.11488941084E+03 -0.41919917062E+02  0.66137198191E+02  0.13903591318E+03  0.00000000000E+00 0.  1.
</event>
<event>
12    1  0.1061634E+000  0.2420182E+03  0.7818608E-02  0.1118483E+00
         21   -1    0    0  503  502  0.00000000000E+00  0.00000000000E+00  0.72592296304E+03  0.72592296304E+03  0.00000000000E+00 0.  1.
         21   -1    0    0  501  503 -0.00000000000E+00 -0.00000000000E+00 -0.13559208664E+03  0.13559208664E+03  0.00000000000E+00 0.  1.
          6    2    1    2  501    0 -0.11148880241E+03  0.12477784881E+03  0.56947239693E+03  0.61876619706E+03  0.17485288430E+03 0.  0.
         24    2    3    3    0    0 -0.13675306341E+03  0.12853179785E+03  0.55004056632E+03  0.58633070634E+03  0.77570930106E+02 0.  0.
         -6    2    1    2    0  502  0.11148880241E+03 -0.12477784881E+03  0.20858479471E+02  0.24274885261E+03  0.17462148969E+03 0.  0.
        -24    2    5    5    0    0  0.71800261754E+02 -0.85757226192E+02 -0.55084849467E+02  0.14847654247E+03  0.80631033677E+02 0.  0.
          5    1    3    3  501    0  0.25264261001E+02 -0.37539490369E+01  0.19431830608E+02  0.32435490717E+02  0.47000000000E+01 0. -1.
        -13    1    4    4    0    0  0.49030931758E+00  0.31399768161E+01 -0.20501897551E+01  0.37819486596E+01  0.00000000000E+00 0.  1.
         14    1    4    4    0    0 -0.13724337272E+03  0.12539182103E+03  0.55209075607E+03  0.58254875768E+03  0.00000000000E+00 0. -1.
         -5    1    5    5    0  502  0.39688540652E+02 -0.39020622621E+02  0.75943328939E+02  0.94272310140E+02  0.47000000000E+01 0.  1.
         11    1    6    6    0    0  0.44782096468E+02 -0.90256009314E+02 -0.17963375418E+02  0.10234386273E+03  0.00000000000E+00 0. -1.
        -12    1    6    6    0    0  0.27018165286E+02  0.44987831223E+01 -0.37121474050E+02  0.46132679747E+02  0.00000000000E+00 0.  1.
</event>
<event>
12    1  0.1061634E+000  0.3542395E+03  0.7818608E-02  0.1060907E+00
         21   -1    0    0  501  502  0.00000000000E+00  0.00000000000E+00  0.16518995203E+04  0.16518995203E+04  0.00000000000E+00 0.  1.
         21   -1    0    0  502  503 -0.00000000000E+00 -0.00000000000E+00 -0.10039531010E+03  0.10039531010E+03  0.00000000000E+00 0.  1.
         -6    2    1    2    0  503 -0.15398422237E+03 -0.26846034480E+03  0.12084569437E+04  0.12593068871E+04  0.17234718884E+03 0.  0.
        -24    2    3    3    0    0 -0.15446798245E+03 -0.18968725926E+03  0.10649602672E+04  0.10955423634E+04  0.78937224534E+02 0.  0.
          6    2    1    2  501    0  0.15398422237E+03  0.26846034480E+03  0.34304726643E+03  0.49298794330E+03  0.17196972921E+03 0.  0.
         24    2    5    5    0    0  0.40263539176E+02  0.15909994890E+03  0.11364329787E+03  0.21452724451E+03  0.78569670732E+02 0.  0.
          5    1    5    5  501    0  0.11372068319E+03  0.10936039590E+03  0.22940396857E+03  0.27846069879E+03  0.47000000000E+01 0. -1.
        -11    1    6    6    0    0 -0.22933078096E+02  0.28334269969E+02  0.27543838018E+02  0.45688291043E+02  0.00000000000E+00 0.  1.
         12    1    6    6    0    0  0.63196617271E+02  0.13076567893E+03  0.86099459847E+02  0.16883895346E+03  0.00000000000E+00 0. -1.
         -5    1    3    3    0  503  0.48376007527E+00 -0.78773085540E+02  0.14349667654E+03  0.16376452365E+03  0.47000000000E+01 0.  1.
         11    1    4    4    0    0 -0.10357466764E+03 -0.11835603014E+03  0.50979297343E+03  0.53350233121E+03  0.00000000000E+00 0. -1.
        -12    1    4    4    0    0 -0.50893314800E+02 -0.71331229112E+02  0.55516729376E+03  0.56204003221E+03  0.00000000000E+00 0.  1.
</event>
<event>
12    1  0.1061634E+000  0.5474661E+03  0.7818608E-02  0.1002145E+00
         21   -1    0    0  503  502  0.00000000000E+00  0.00000000000E+00  0.10030109217E+04  0.10030109217E+04  0.00000000000E+00 0.  1.
         21   -1    0    0  501  503 -0.00000000000E+00 -0.00000000000E+00 -0.33685995841E+03  0.33685995841E+03  0.00000000000E+00 0. -1.
          6    2    1    2  501    0  0.44249664373E+03 -0.26930254719E+03  0.55966005656E+03  0.78214388327E+03  0.17378876141E+03 0.  0.
         24    2    3    3    0    0  0.18346279649E+03 -0.16309226140E+03  0.33596121740E+03  0.42375524022E+03  0.80255097010E+02 0.  0.
         -6    2    1    2    0  502 -0.44249664373E+03  0.26930254719E+03  0.10649090673E+03  0.55772699683E+03  0.17717773040E+03 0.  0.
        -24    2    5    5    0    0 -0.23503643218E+03  0.12522285263E+03  0.12605105837E+03  0.30434312345E+03  0.76242902629E+02 0.  0.
          5    1    3    3  501    0  0.25903384723E+03 -0.10621028579E+03  0.22369883916E+03  0.35838864304E+03  0.47000000000E+01 0. -1.
        -13    1    4    4    0    0  0.78847775976E+02 -0.21426877801E+02  0.11828767665E+03  0.14376389434E+03  0.00000000000E+00 0.  1.
         14    1    4    4    0    0  0.10461502052E+03 -0.14166538359E+03  0.21767354074E+03  0.27999134588E+03  0.00000000000E+00 0. -1.
         -5    1    5    5    0  502 -0.20746021154E+03  0.14407969456E+03 -0.19560151645E+02  0.25338387338E+03  0.47000000000E+01 0.  1.
         13    1    6    6    0    0 -0.19239876464E+03  0.68744591010E+02  0.77464664697E+02  0.21850372469E+03  0.00000000000E+00 0. -1.
        -14    1    6    6    0    0 -0.42637667548E+02  0.56478261620E+02  0.48586393674E+02  0.85839398762E+02  0.00000000000E+00 0.  1.
</event>
<event>
12    1  0.1061634E+000  0.1868444E+03  0.7818608E-02  0.1161348E+00
         21   -1    0    0  503  502  0.00000000000E+00  0.00000000000E+00  0.49992197835E+02  0.49992197835E+02  0.00000000000E+00 0.  1.
         21   -1    0    0  501  503 -0.00000000000E+00 -0.00000000000E+00 -0.97591053669E+03  0.97591053669E+03  0.00000000000E+00 0.  1.
          6    2    1    2  501    0  0.74724849745E+02 -0.10151207077E+02 -0.18928225476E+03  0.26593986902E+03  0.17090755336E+03 0.  0.
         24    2    3    3    0    0  0.86002571243E+02 -0.46551552951E+02 -0.18894149149E+03  0.22754223496E+03  0.80703730652E+02 0.  0.
         -6    2    1    2    0  502 -0.74724849745E+02  0.10151207077E+02 -0.73663608410E+03  0.75996286551E+03  0.17095024533E+03 0.  0.
        -24    2    5    5    0    0 -0.24652633842E+02  0.67423433854E+02 -0.37550333564E+03  0.39087441165E+03  0.81402572517E+02 0.  0.
          5    1    3    3  501    0 -0.11277721498E+02  0.36400345875E+02 -0.34076326847E+00  0.38397634062E+02  0.47000000000E+01 0. -1.
        -11    1    4    4    0    0  0.85522400448E+02 -0.50371996333E+02 -0.10865817339E+03  0.14716663222E+03  0.00000000000E+00 0.  1.
         12    1    4    4    0    0  0.48017079571E+00  0.38204433820E+01 -0.80283318095E+02  0.80375602741E+02  0.00000000000E+00 0. -1.
         -5    1    5    5    0  502 -0.50072215903E+02 -0.57272226777E+02 -0.36113274846E+03  0.36908845386E+03  0.47000000000E+01 0.  1.
         13    1    6    6    0    0 -0.26992529985E+02  0.84782560093E+02 -0.33745284279E+03  0.34898581673E+03  0.00000000000E+00 0. -1.
        -14    1    6    6    0    0  0.23398961425E+01 -0.17359126239E+02 -0.38050492849E+02  0.41888594913E+02  0.00000000000E+00 0.  1.
</event>
<event>
12    1  0.1061634E+000  0.2024858E+03  0.7818608E-02  0.1147959E+00
         21   -1    0    0  501  502  0.00000000000E+00  0.00000000000E+00  0.10749727779E+03  0.10749727779E+03  0.00000000000E+00 0.  1.
         21   -1    0    0  502  503 -0.00000000000E+00 -0.00000000000E+00 -0.39917643937E+03  0.39917643937E+03  0.00000000000E+00 0.  1.
         -6    2    1    2    0  503  0.97428662078E+02  0.37211303174E+01 -0.20371212270E+03  0.28722662822E+03  0.17746637996E+03 0.  0.
        -24    2    3    3    0    0  0.51847300211E+02 -0.57133659549E+02 -0.17212854987E+03  0.20476101070E+03  0.79664523028E+02 0.  0.
          6    2    1    2  501    0 -0.97428662078E+02 -0.37211303174E+01 -0.87967038873E+02  0.21944708894E+03  0.17581989055E+03 0.  0.
         24    2    5    5    0    0 -0.77670001434E+02 -0.39987069744E+01 -0.13052249716E+03  0.17229267505E+03  0.81240536873E+02 0.  0.
          5    1    5    5  501    0 -0.19758660644E+02  0.27757665703E+00  0.42555458287E+02  0.47154413889E+02  0.47000000000E+01 0. -1.
        -13    1    6    6    0    0  0.63144134558E+00  0.27667033675E+02 -0.38096761123E+02  0.47087436526E+02  0.00000000000E+00 0.  1.
         14    1    6    6    0    0 -0.78301442779E+02 -0.31665740650E+02 -0.92425736037E+02  0.12520523853E+03  0.00000000000E+00 0. -1.
         -5    1    3    3    0  503  0.45581361867E+02  0.60854789867E+02 -0.31583572830E+02  0.82465617514E+02  0.47000000000E+01 0.  1.
         11    1    4    4    0    0  0.22724098900E+01  0.18977493712E+02 -0.41107685684E+02  0.45333772583E+02  0.00000000000E+00 0. -1.
        -12    1    4    4    0    0  0.49574890321E+02 -0.76111153261E+02 -0.13102086419E+03  0.15942723812E+03  0.00000000000E+00 0.  1.
</event>
<event>
12    1  0.1061634E+000  0.2208960E+03  0.7818608E-02  0.1134540E+00
         21   -1    0    0  501  502  0.00000000000E+00  0.00000000000E+00  0.11523934315E+04  0.11523934315E+04  0.00000000000E+00 0.  1.
         21   -1    0    0  502  503 -0.00000000000E+00 -0.00000000000E+00 -0.44396133626E+02  0.44396133626E+02  0.00000000000E+00 0.  1.
         -6    2    1    2    0  503 -0.97236124758E+02 -0.96741852706E+02  0.72754342398E+03  0.76033839147E+03  0.17315076018E+03 0.  0.
        -24    2    3    3    0    0 -0.18389997034E+01 -0.54029770033E+01  0.15469314097E+03  0.17244134400E+03  0.75983387511E+02 0.  0.
          6    2    1    2  501    0  0.97236124758E+02  0.96741852706E+02  0.38045387392E+03  0.43645117368E+03  0.16410553556E+03 0.  0.
         24    2    5    5    0    0  0.78030747203E+02 -0.21769890451E+01  0.22579771187E+03  0.25180447796E+03  0.79544651881E+02 0.  0.
          5    1    5    5  501    0  0.19205377555E+02  0.98918841751E+02  0.15465616205E+03  0.18464669572E+03  0.47000000000E+01 0. -1.
        -13    1    6    6    0    0  0.14310074051E+02  0.18810108692E+02  0.97265388290E+01  0.25557855268E+02  0.00000000000E+00 0.  1.
         14    1    6    6    0    0  0.63720673152E+02 -0.20987097737E+02  0.21607117304E+03  0.22624662269E+03  0.00000000000E+00 0. -1.
         -5    1    3    3    0  503 -0.95397125055E+02 -0.91338875702E+02  0.57285028301E+03  0.58789704747E+03  0.47000000000E+01 0.  1.
         13    1    4    4    0    0  0.14679693320E+02  0.21790908418E+01 -0.17522876235E+01  0.14943638940E+02  0.00000000000E+00 0. -1.
        -14    1    4    4    0    0 -0.16518693023E+02 -0.75820678450E+01  0.15644542859E+03  0.15749770506E+03  0.00000000000E+00 0.  1.
</event>
<event>
12    1  0.1061634E+000  0.6555044E+03  0.7818608E-02  0.9796529E-01
         21   -1    0    0  501  502  0.00000000000E+00  0.00000000000E+00  0.63009425463E+03  0.63009425463E+03  0.00000000000E+00 0.  1.
         21   -1    0    0  502  503 -0.00000000000E+00 -0.00000000000E+00 -0.71334212463E+03  0.71334212463E+03  0.00000000000E+00 0.  1.
         -6    2    1    2    0  503 -0.63156208525E+03 -0.38260762565E+02  0.99433054305E+02  0.66300294097E+03  0.17132254369E+03 0.  0.
        -24    2    3    3    0    0 -0.54966056003E+03  0.16870022264E+02  0.98753245496E+02  0.56416056439E+03  0.78189577398E+02 0.  0.
          6    2    1    2  501    0  0.63156208525E+03  0.38260762565E+02 -0.18268092430E+03  0.68043343828E+03  0.17112215038E+03 0.  0.
         24    2    5    5    0    0  0.32514339938E+03  0.60188054445E+01 -0.16061544889E+03  0.37149828319E+03  0.80369122242E+02 0.  0.
          5    1    5    5  501    0  0.30641868587E+03  0.32241957120E+02 -0.22065475417E+02  0.30893515509E+03  0.47000000000E+01 0. -1.
        -11    1    6    6    0    0  0.14252137032E+03  0.41016149370E+02 -0.59109798461E+02  0.15965160125E+03  0.00000000000E+00 0.  1.
         12    1    6    6    0    0  0.18262202906E+03 -0.34997343925E+02 -0.10150565043E+03  0.21184668194E+03  0.00000000000E+00 0. -1.
         -5    1    3    3    0  503 -0.81901525221E+02 -0.55130784829E+02  0.67980880866E+00  0.98842376587E+02  0.47000000000E+01 0.  1.
         13    1    4    4    0    0 -0.40122685202E+03  0.26245733906E+02  0.10407689613E+03  0.41533579865E+03  0.00000000000E+00 0. -1.
        -14    1    4    4    0    0 -0.14843370801E+03 -0.93757116422E+01 -0.53236506335E+01  0.14882476574E+03  0.00000000000E+00 0.  1.
</event>
<event>
12    1  0.1061634E+000  0.2589293E+03  0.7818608E-02  0.1107949E+00
         21   -1    0    0  503  502  0.00000000000E+00  0.00000000000E+00  0.12845791516E+04  0.12845791516E+04  0.00000000000E+00 0.  1.
         21   -1    0    0  501  503 -0.00000000000E+00 -0.00000000000E+00 -0.85226677173E+02  0.85226677173E+02  0.00000000000E+00 0.  1.
          6    2    1    2  501    0 -0.19300246331E+03 -0.50848603287E+01  0.10267139940E+04  0.10586010009E+04  0.17093462724E+03 0.  0.
         24    2    3    3    0    0 -0.51454481775E+02 -0.15031201478E+02  0.22851236120E+03  0.24787126940E+03  0.79679145715E+02 0.  0.
         -6    2    1    2    0  502  0.19300246331E+03  0.50848603287E+01  0.17263848034E+03  0.31120482788E+03  0.17253577412E+03 0.  0.
        -24    2    5    5    0    0  0.16964168952E+03  0.30089453900E+02  0.69521353272E+02  0.20245655273E+03  0.80447244356E+02 0.  0.
          5    1    3    3  501    0 -0.14154798154E+03  0.99463411497E+01  0.79820163285E+03  0.81072973145E+03  0.47000000000E+01 0. -1.
        -11    1    4    4    0    0 -0.37537360600E+02  0.29682338515E+02  0.13615355877E+03  0.14431869673E+03  0.00000000000E+00 0.  1.
         12    1    4    4    0    0 -0.13917121176E+02 -0.44713539994E+02  0.92358802422E+02  0.10355257266E+03  0.00000000000E+00 0. -1.
         -5    1    5    5    0  502  0.23360773792E+02 -0.25004593571E+02  0.10311712707E+03  0.10874827514E+03  0.47000000000E+01 0.  1.
         11    1    6    6    0    0  0.10373278974E+03 -0.66867295217E+00  0.77215375726E+02  0.12931803060E+03  0.00000000000E+00 0. -1.
        -12    1    6    6    0    0  0.65908899784E+02  0.30758126852E+02 -0.76940224538E+01  0.73138522133E+02  0.00000000000E+00 0.  1.
</event>
<event>
12    1  0.1061634E+000  0.1953228E+03  0.7818608E-02  0.1154310E+00
         21   -1    0    0  501  502  0.00000000000E+00  0.00000000000E+00  0.35105898398E+02  0.35105898398E+02  0.00000000000E+00 0.  1.
         21   -1    0    0  502  503 -0.00000000000E+00 -0.00000000000E+00 -0.17814856467E+04  0.17814856467E+04  0.00000000000E+00 0.  1.
         -6    2    1    2    0  503  0.54085079582E+02  0.70694505455E+02 -0.14496855810E+04  0.14627847639E+04  0.17386222353E+03 0.  0.
        -24    2    3    3    0    0  0.77259024460E+02  0.94197500755E+01 -0.56134147313E+03  0.57201601087E+03  0.77719873152E+02 0.  0.
          6    2    1    2  501    0 -0.54085079582E+02 -0.70694505455E+02 -0.29669416725E+03  0.35380678116E+03  0.17096461791E+03 0.  0.
         24    2    5    5    0    0 -0.74239101959E+02 -0.14597089374E+02 -0.10076573939E+03  0.14895770610E+03  0.79436419192E+02 0.  0.
          5    1    5    5  501    0  0.20154022377E+02 -0.56097416082E+02 -0.19592842786E+03  0.20484907506E+03  0.47000000000E+01 0. -1.
        -11    1    6    6    0    0  0.67098608569E+00  0.24694681193E+02 -0.28368355216E+02  0.37617031770E+02  0.00000000000E+00 0.  1.
         12    1    6    6    0    0 -0.74910088045E+02 -0.39291770566E+02 -0.72397384178E+02  0.11134067433E+03  0.00000000000E+00 0. -1.
         -5    1    3    3    0  503 -0.23173944878E+02  0.61274755380E+02 -0.88834410787E+03  0.89076875302E+03  0.47000000000E+01 0.  1.
         11    1    4    4    0    0  0.14559799199E+02  0.26106702239E+02 -0.66129158139E+02  0.72571435225E+02  0.00000000000E+00 0. -1.
        -12    1    4    4    0    0  0.62699225261E+02 -0.16686952164E+02 -0.49521231499E+03  0.49944457564E+03  0.00000000000E+00 0.  1.
</event>
<event>
12    1  0.1061634E+000  0.8914933E+03  0.7818608E-02  0.9436437E-01
         21   -1    0    0  503  502  0.00000000000E+00  0.00000000000E+00  0.54180864043E+03  0.54180864043E+03  0.00000000000E+00 0. -1.
         21   -1    0    0  501  503 -0.00000000000E+00 -0.00000000000E+00 -0.14675493549E+04  0.14675493549E+04  0.00000000000E+00 0.  1.
          6    2    1    2  501    0 -0.36214469628E+02 -0.87374203099E+03 -0.49525259273E+03  0.10198212826E+04  0.17327346398E+03 0.  0.
         24    2    3    3    0    0 -0.15511523579E+02 -0.79487614004E+03 -0.49121325804E+03  0.93804813937E+03  0.81087369722E+02 0.  0.
         -6    2    1    2    0  502  0.36214469628E+02  0.87374203099E+03 -0.43048812169E+03  0.98953671268E+03  0.17066416819E+03 0.  0.
        -24    2    5    5    0    0 -0.60279934860E+01  0.74429373269E+03 -0.31347361669E+03  0.80993779286E+03  0.61024771278E+02 0.  0.
          5    1    3    3  501    0 -0.20702946049E+02 -0.78865890941E+02 -0.40393346907E+01  0.81773143230E+02  0.47000000000E+01 0. -1.
        -13    1    4    4    0    0  0.41223540298E+01 -0.90871324334E-01 -0.24366401584E+01  0.47894963833E+01  0.00000000000E+00 0.  1.
         14    1    4    4    0    0 -0.19633877608E+02 -0.79478526872E+03 -0.48877661788E+03  0.93325864299E+03  0.00000000000E+00 0. -1.
         -5    1    5    5    0  502  0.42242463114E+02  0.12944829830E+03 -0.11701450500E+03  0.17959891982E+03  0.47000000000E+01 0.  1.
         13    1    6    6    0    0 -0.12016945347E+02  0.42597078431E+03 -0.14788430964E+03  0.45107126388E+03  0.00000000000E+00 0. -1.
        -14    1    6    6    0    0  0.59889518613E+01  0.31832294838E+03 -0.16558930705E+03  0.35886652898E+03  0.00000000000E+00 0.  1.
</event>
<event>
12    1  0.1061634E+000  0.1968303E+03  0.7818608E-02  0.1154293E+00
         21   -1    0    0  503  502  0.00000000000E+00  0.00000000000E+00  0.20107504043E+03  0.20107504043E+03  0.00000000000E+00 0. -1.
         21   -1    0    0  501  503 -0.00000000000E+00 -0.00000000000E+00 -0.20289577787E+03  0.20289577787E+03  0.00000000000E+00 0. -1.
          6    2    1    2  501    0  0.66584636445E+02 -0.41968202272E+02 -0.61665518696E+02  0.20626393455E+03  0.18040878773E+03 0.  0.
         24    2    3    3    0    0 -0.34730382929E+02 -0.23351600405E+02 -0.69121203708E+01  0.89510623493E+02  0.78821808976E+02 0.  0.
         -6    2    1    2    0  502 -0.66584636445E+02  0.41968202272E+02  0.59844781259E+02  0.19770688374E+03  0.17120680542E+03 0.  0.
        -24    2    5    5    0    0  0.31024920313E+02  0.16899744500E+02  0.28963938334E+02  0.92199682066E+02  0.80085732841E+02 0.  0.
          5    1    3    3  501    0  0.10131501937E+03 -0.18616601866E+02 -0.54753398325E+02  0.11675331106E+03  0.47000000000E+01 0. -1.
        -11    1    4    4    0    0 -0.85515530310E+01  0.26770311618E+02 -0.15845818662E+02  0.32262495446E+02  0.00000000000E+00 0.  1.
         12    1    4    4    0    0 -0.26178829898E+02 -0.50121912024E+02  0.89336982909E+01  0.57248128047E+02  0.00000000000E+00 0. -1.
         -5    1    5    5    0  502 -0.97609556757E+02  0.25068457772E+02  0.30880842925E+02  0.10550720167E+03  0.47000000000E+01 0.  1.
         11    1    6    6    0    0  0.43655015773E+02  0.40766363356E+02  0.25613715458E+02  0.64990146968E+02  0.00000000000E+00 0. -1.
        -12    1    6    6    0    0 -0.12630095460E+02 -0.23866618856E+02  0.33502228762E+01  0.27209535098E+02  0.00000000000E+00 0.  1.
</event>
<event>
12    1  0.1061634E+000  0.2359819E+03  0.7818608E-02  0.1123395E+00
         21   -1    0    0  503  502  0.00000000000E+00  0.00000000000E+00  0.11419854923E+03  0.11419854923E+03  0.00000000000E+00 0. -1.
         21   -1    0    0  501  503 -0.00000000000E+00 -0.00000000000E+00 -0.10068790554E+04  0.10068790554E+04  0.00000000000E+00 0. -1.
          6    2    1    2  501    0 -0.48491724533E+02  0.14099356700E+03 -0.37341706253E+02  0.23378288238E+03  0.17615163861E+03 0.  0.
         24    2    3    3    0    0 -0.54925863056E+02  0.17259526494E+03 -0.29387410212E+02  0.20023550876E+03  0.80153996632E+02 0.  0.
         -6    2    1    2    0  502  0.48491724533E+02 -0.14099356700E+03 -0.85533879996E+03  0.88729472229E+03  0.18291207781E+03 0.  0.
        -24    2    5    5    0    0  0.84917974717E+02 -0.13293373704E+03 -0.80542856412E+03  0.82480508952E+03  0.81889089252E+02 0.  0.
          5    1    3    3  501    0  0.64341385231E+01 -0.31601697941E+02 -0.79542960412E+01  0.33547373620E+02  0.47000000000E+01 0. -1.
        -11    1    4    4    0    0 -0.27758231112E+02  0.14845378052E+03 -0.49204261129E+02  0.15883986798E+03  0.00000000000E+00 0.  1.
         12    1    4    4    0    0 -0.27167631944E+02  0.24141484419E+02  0.19816850917E+02  0.41395640781E+02  0.00000000000E+00 0. -1.
         -5    1    5    5    0  502 -0.36426250184E+02 -0.80598299667E+01 -0.49910235842E+02  0.62489632767E+02  0.47000000000E+01 0.  1.
         13    1    6    6    0    0 -0.13610430825E+02 -0.11515007038E+02 -0.14633293371E+03  0.14741494735E+03  0.00000000000E+00 0. -1.
        -14    1    6    6    0    0  0.98528405542E+02 -0.12141873000E+03 -0.65909563041E+03  0.67739014218E+03  0.00000000000E+00 0.  1.
</event>
<event>
12    1  0.1061634E+000  0.2178625E+03  0.7818608E-02  0.1136085E+00
         21   -1    0    0  501  502  0.00000000000E+00  0.00000000000E+00  0.14988084862E+03  0.14988084862E+03  0.00000000000E+00 0. -1.
         21   -1    0    0  502  503 -0.00000000000E+00 -0.00000000000E+00 -0.55582968829E+03  0.55582968829E+03  0.00000000000E+00 0. -1.
         -6    2    1    2    0  503  0.11404085167E+03  0.63131352717E+02  0.29838631251E+02  0.21989632116E+03  0.17456564553E+03 0.  0.
        -24    2    3    3    0    0  0.97051849550E+02  0.52016583723E+02  0.85537277760E+02  0.16042705594E+03  0.79343732640E+02 0.  0.
          6    2    1    2  501    0 -0.11404085167E+03 -0.63131352717E+02 -0.43578747092E+03  0.48581421574E+03  0.17062780798E+03 0.  0.
         24    2    5    5    0    0 -0.11876675936E+03 -0.83437616694E+02 -0.25346675950E+03  0.30224512691E+03  0.77713187822E+02 0.  0.
          5    1    5    5  501    0  0.47259076875E+01  0.20306263977E+02 -0.18232071143E+03  0.18356908884E+03  0.47000000000E+01 0. -1.
        -13    1    6    6    0    0 -0.41046086270E+02  0.28767388577E+01 -0.11130978280E+03  0.11867149856E+03  0.00000000000E+00 0.  1.
         14    1    6    6    0    0 -0.77720673086E+02 -0.86314355551E+02 -0.14215697670E+03  0.18357362834E+03  0.00000000000E+00 0. -1.
         -5    1    3    3    0  503  0.16989002119E+02  0.11114768994E+02 -0.55698646508E+02  0.59469265219E+02  0.47000000000E+01 0.  1.
         11    1    4    4    0    0  0.64046290143E+01  0.35243399336E+02  0.50266839887E+02  0.61724157846E+02  0.00000000000E+00 0. -1.
        -12    1    4    4    0    0  0.90647220536E+02  0.16773184387E+02  0.35270437872E+02  0.98702898099E+02  0.00000000000E+00 0.  1.
</event>
<event>
12    1  0.1061634E+000  0.7660531E+03  0.7818608E-02  0.9610814E-01
         21   -1    0    0  503  502  0.00000000000E+00  0.00000000000E+00  0.19310601398E+04  0.19310601398E+04  0.00000000000E+00 0.  1.
         21   -1    0    0  501  503 -0.00000000000E+00 -0.00000000000E+00 -0.36560765860E+03  0.36560765860E+03  0.00000000000E+00 0.  1.
          6    2    1    2  501    0  0.56650147093E+03 -0.48506279437E+03  0.12554228426E+04  0.14702564826E+04  0.17134112129E+03 0.  0.
         24    2    3    3    0    0  0.48122348667E+03 -0.42073926173E+03  0.96193455717E+03  0.11578988108E+04  0.82546915610E+02 0.  0.
         -6    2    1    2    0  502 -0.56650147093E+03  0.48506279437E+03  0.31002963866E+03  0.82641131586E+03  0.17500701438E+03 0.  0.
        -24    2    5    5    0    0 -0.55827107955E+03  0.43039115855E+03  0.27535033463E+03  0.76097836366E+03  0.79794207535E+02 0.  0.
          5    1    3    3  501    0  0.85277984261E+02 -0.64323532644E+02  0.29348828539E+03  0.31235767177E+03  0.47000000000E+01 0. -1.
        -11    1    4    4    0    0  0.21071197420E+03 -0.21430071622E+03  0.38965097588E+03  0.49208964229E+03  0.00000000000E+00 0.  1.
         12    1    4    4    0    0  0.27051151246E+03 -0.20643854551E+03  0.57228358130E+03  0.66580916851E+03  0.00000000000E+00 0. -1.
         -5    1    5    5    0  502 -0.82303913801E+01  0.54671635822E+02  0.34679304030E+02  0.65432952201E+02  0.47000000000E+01 0.  1.
         13    1    6    6    0    0 -0.18570907345E+03  0.11675230670E+03  0.53305819841E+02  0.22574426130E+03  0.00000000000E+00 0. -1.
        -14    1    6    6    0    0 -0.37256200610E+03  0.31363885185E+03  0.22204451479E+03  0.53523410236E+03  0.00000000000E+00 0.  1.
</event>
<event>
12    1  0.1061634E+000  0.2927596E+03  0.7818608E-02  0.1088981E+00
         21   -1    0    0  501  502  0.00000000000E+00  0.00000000000E+00  0.16608106027E+03  0.16608106027E+03  0.00000000000E+00 0. -1.
         21   -1    0    0  502  503 -0.00000000000E+00 -0.00000000000E+00 -0.96495380852E+03  0.96495380852E+03  0.00000000000E+00 0. -1.
         -6    2    1    2    0  503 -0.15285781211E+03  0.18039866403E+03 -0.13170259314E+02  0.29256210442E+03  0.17178457586E+03 0.  0.
        -24    2    3    3    0    0 -0.18191479232E+03  0.14892612657E+03 -0.66048099556E+01  0.24897284154E+03  0.81681512404E+02 0.  0.
          6    2    1    2  501    0  0.15285781211E+03 -0.18039866403E+03 -0.78570248894E+03  0.83847276437E+03  0.17262383023E+03 0.  0.
         24    2    5    5    0    0  0.90470057267E+02 -0.19360109099E+03 -0.64016576414E+03  0.67950872977E+03  0.79080304515E+02 0.  0.
          5    1    5    5  501    0  0.62387754840E+02  0.13202426960E+02 -0.14553672480E+03  0.15896403460E+03  0.47000000000E+01 0. -1.
        -11    1    6    6    0    0  0.47209477945E+01  0.32092241660E+01 -0.17595202657E+01  0.59734729757E+01  0.00000000000E+00 0.  1.
         12    1    6    6    0    0  0.85749109473E+02 -0.19681031516E+03 -0.63840624387E+03  0.67353525679E+03  0.00000000000E+00 0. -1.
         -5    1    3    3    0  503  0.29056980212E+02  0.31472537461E+02 -0.65654493581E+01  0.43589262882E+02  0.47000000000E+01 0.  1.
         13    1    4    4    0    0 -0.74112740600E+02  0.85106062883E+02 -0.39299865483E+02  0.11949987316E+03  0.00000000000E+00 0. -1.
        -14    1    4    4    0    0 -0.10780205172E+03  0.63820063687E+02  0.32695055527E+02  0.12947296838E+03  0.00000000000E+00 0.  1.
</event>
<event>
12    1  0.1061634E+000  0.2404094E+03  0.7818608E-02  0.1119545E+00
         21   -1    0    0  503  502  0.00000000000E+00  0.00000000000E+00  0.12907962309E+04  0.12907962309E+04  0.00000000000E+00 0. -1.
         21   -1    0    0  501  503 -0.00000000000E+00 -0.00000000000E+00 -0.52624850161E+02  0.52624850161E+02  0.00000000000E+00 0. -1.
          6    2    1    2  501    0  0.16374333026E+03 -0.40906354857E+02  0.87879214113E+03  0.91104379822E+03  0.17099697920E+03 0.  0.
         24    2    3    3    0    0  0.38412082218E+02  0.11018237529E+02  0.51530878102E+03  0.52304079810E+03  0.80197550204E+02 0.  0.
         -6    2    1    2    0  502 -0.16374333026E+03  0.40906354857E+02  0.35937923958E+03  0.43237728281E+03  0.17120592506E+03 0.  0.
        -24    2    5    5    0    0 -0.12629060402E+03  0.84831976540E+02  0.31700848798E+03  0.36061700456E+03  0.80027880266E+02 0.  0.
          5    1    3    3  501    0  0.12533124804E+03 -0.51924592386E+02  0.36348336011E+03  0.38800300012E+03  0.47000000000E+01 0. -1.
        -13    1    4    4    0    0  0.55576217326E+02 -0.35170872923E+01  0.22225754019E+03  0.22912769367E+03  0.00000000000E+00 0.  1.
         14    1    4    4    0    0 -0.17164135108E+02  0.14535324822E+02  0.29305124083E+03  0.29391310442E+03  0.00000000000E+00 0. -1.
         -5    1    5    5    0  502 -0.37452726237E+02 -0.43925621684E+02  0.42370751602E+02  0.71760278248E+02  0.47000000000E+01 0.  1.
         11    1    6    6    0    0  0.89720401186E+01 -0.37038892186E+00  0.38093940545E+02  0.39137999413E+02  0.00000000000E+00 0. -1.
        -12    1    6    6    0    0 -0.13526264414E+03  0.85202365462E+02  0.27891454744E+03  0.32147900515E+03  0.00000000000E+00 0.  1.
</event>
<event>
12    1  0.1061634E+000  0.1978283E+03  0.7818608E-02  0.1152050E+00
         21   -1    0    0  503  502  0.00000000000E+00  0.00000000000E+00  0.17013366341E+03  0.17013366341E+03  0.00000000000E+00 0. -1.
         21   -1    0    0  501  503 -0.00000000000E+00 -0.00000000000E+00 -0.23726801453E+03  0.23726801453E+03  0.00000000000E+00 0. -1.
          6    2    1    2  501    0  0.81783050004E+02 -0.43046037360E+02  0.75362427938E+01  0.19797183777E+03  0.17491319274E+03 0.  0.
         24    2    3    3    0    0  0.66280099303E+02  0.38018544657E+02 -0.17605286320E+02  0.11156585173E+03  0.79363290401E+02 0.  0.
         -6    2    1    2    0  502 -0.81783050004E+02  0.43046037360E+02 -0.74670593912E+02  0.20942984017E+03  0.17246371143E+03 0.  0.
        -24    2    5    5    0    0 -0.10233287612E+03 -0.10509159095E+02 -0.64613696271E+02  0.15100308594E+03  0.89691372258E+02 0.  0.
          5    1    3    3  501    0  0.15502950700E+02 -0.81064582016E+02  0.25141529114E+02  0.86405986043E+02  0.47000000000E+01 0. -1.
        -13    1    4    4    0    0 -0.39863133339E-01 -0.19413410669E+02 -0.13675600707E+02  0.23746666241E+02  0.00000000000E+00 0.  1.
         14    1    4    4    0    0  0.66319962437E+02  0.57431955325E+02 -0.39296856135E+01  0.87819185484E+02  0.00000000000E+00 0. -1.
         -5    1    5    5    0  502  0.20549826111E+02  0.53555196455E+02 -0.10056897641E+02  0.58426754237E+02  0.47000000000E+01 0.  1.
         11    1    6    6    0    0  0.16237402011E+02 -0.73408023938E+01 -0.70992016828E+01  0.19181743101E+02  0.00000000000E+00 0. -1.
        -12    1    6    6    0    0 -0.11857027813E+03 -0.31683567014E+01 -0.57514494588E+02  0.13182134283E+03  0.00000000000E+00 0.  1.
</event>
<event>
12    1  0.1061634E+000  0.2549932E+03  0.7818608E-02  0.1110256E+00
         21   -1    0    0  501  502  0.00000000000E+00  0.00000000000E+00  0.16097024082E+03  0.16097024082E+03  0.00000000000E+00 0.  1.
         21   -1    0    0  502  503 -0.00000000000E+00 -0.00000000000E+00 -0.71982481496E+03  0.71982481496E+03  0.00000000000E+00 0.  1.
         -6    2    1    2    0  503 -0.18137240020E+03  0.50632111189E+02  0.12499165429E+02  0.25529932926E+03  0.17193591873E+03 0.  0.
        -24    2    3    3    0    0 -0.18069885806E+03  0.41766858253E+01  0.39648268919E+02  0.20128336843E+03  0.79205348099E+02 0.  0.
          6    2    1    2  501    0  0.18137240020E+03 -0.50632111189E+02 -0.57135373958E+03  0.62549572652E+03  0.17128995863E+03 0.  0.
         24    2    5    5    0    0  0.84120196246E+02 -0.47076771969E+02 -0.46356693344E+03  0.48020045066E+03  0.80035874189E+02 0.  0.
          5    1    5    5  501    0  0.97252203951E+02 -0.35553392202E+01 -0.10778680613E+03  0.14529527586E+03  0.47000000000E+01 0. -1.
        -11    1    6    6    0    0  0.37349167093E+02 -0.13728287922E+01 -0.55399898154E+02  0.66828090328E+02  0.00000000000E+00 0.  1.
         12    1    6    6    0    0  0.46771029153E+02 -0.45703943177E+02 -0.40816703529E+03  0.41337236033E+03  0.00000000000E+00 0. -1.
         -5    1    3    3    0  503 -0.67354213459E+00  0.46455425364E+02 -0.27149103490E+02  0.54015960836E+02  0.47000000000E+01 0.  1.
         11    1    4    4    0    0 -0.67618785869E+02  0.24485634886E+02 -0.15927253834E+02  0.73658155915E+02  0.00000000000E+00 0. -1.
        -12    1    4    4    0    0 -0.11308007219E+03 -0.20308949061E+02  0.55575522753E+02  0.12762521251E+03  0.00000000000E+00 0.  1.
</event>
<event>
12    1  0.1061634E+000  0.1783730E+03  0.7818608E-02  0.1169450E+00
         21   -1    0    0  501  502  0.00000000000E+00  0.00000000000E+00  0.14326343485E+04  0.14326343485E+04  0.00000000000E+00 0. -1.
         21   -1    0    0  502  503 -0.00000000000E+00 -0.00000000000E+00 -0.24886222471E+02  0.24886222471E+02  0.00000000000E+00 0. -1.
         -6    2    1    2    0  503 -0.46194671344E+02  0.75082050381E+01  0.94480396072E+03  0.96149438723E+03  0.17212382661E+03 0.  0.
        -24    2    3    3    0    0  0.38821524500E+02  0.53451068649E+01  0.57943663694E+03  0.58633068452E+03  0.80629860771E+02 0.  0.
          6    2    1    2  501    0  0.46194671344E+02 -0.75082050381E+01  0.46294416536E+03  0.49602618379E+03  0.17185561951E+03 0.  0.
         24    2    5    5    0    0  0.57184003532E+02 -0.50750871535E+02  0.19182190908E+03  0.22121704733E+03  0.79345296056E+02 0.  0.
          5    1    5    5  501    0 -0.10989332188E+02  0.43242666497E+02  0.27112225628E+03  0.27480913646E+03  0.47000000000E+01 0. -1.
        -13    1    6    6    0    0  0.32844085748E+02 -0.48091182928E+02  0.48409831977E+02  0.75729833462E+02  0.00000000000E+00 0.  1.
         14    1    6    6    0    0  0.24339917784E+02 -0.26596886067E+01  0.14341207710E+03  0.14548721387E+03  0.00000000000E+00 0. -1.
         -5    1    3    3    0  503 -0.85016195843E+02  0.21630981731E+01  0.36536732378E+03  0.37516370271E+03  0.47000000000E+01 0.  1.
         13    1    4    4    0    0  0.24173358759E+02 -0.35501069031E+02  0.36721066167E+03  0.36971387209E+03  0.00000000000E+00 0. -1.
        -14    1    4    4    0    0  0.14648165740E+02  0.40846175896E+02  0.21222597527E+03  0.21661681243E+03  0.00000000000E+00 0.  1.
</event>
<event>
12    1  0.1061634E+000  0.1827190E+03  0.7818608E-02  0.1168113E+00
         21   -1    0    0  501  502  0.00000000000E+00  0.00000000000E+00  0.12556693642E+03  0.12556693642E+03  0.00000000000E+00 0. -1.
         21   -1    0    0  502  503 -0.00000000000E+00 -0.00000000000E+00 -0.38703360447E+03  0.38703360447E+03  0.00000000000E+00 0. -1.
         -6    2    1    2    0  503  0.52216726756E+02 -0.28515005797E+02  0.19501819905E+02  0.18375681220E+03  0.17276154937E+03 0.  0.
        -24    2    3    3    0    0  0.45433841325E+02 -0.83624649557E+02 -0.15477119023E+01  0.12418959672E+03  0.79770574590E+02 0.  0.
          6    2    1    2  501    0 -0.52216726756E+02  0.28515005797E+02 -0.28096848796E+03  0.32884372870E+03  0.16017245259E+03 0.  0.
         24    2    5    5    0    0  0.88468281404E+01  0.58458931967E+02 -0.18674127014E+03  0.21254129953E+03  0.82497205646E+02 0.  0.
          5    1    5    5  501    0 -0.61063554896E+02 -0.29943926170E+02 -0.94227217818E+02  0.11630242916E+03  0.47000000000E+01 0. -1.
        -11    1    6    6    0    0  0.15071821649E+02  0.16699749506E+02 -0.14954689397E+01  0.22545018712E+02  0.00000000000E+00 0.  1.
         12    1    6    6    0    0 -0.62249935086E+01  0.41759182461E+02 -0.18524580120E+03  0.18999628082E+03  0.00000000000E+00 0. -1.
         -5    1    3    3    0  503  0.67828854305E+01  0.55109643760E+02  0.21049531808E+02  0.59567215475E+02  0.47000000000E+01 0.  1.
         11    1    4    4    0    0  0.18056205460E+02 -0.13182202726E+02  0.33983958566E+02  0.40678083339E+02  0.00000000000E+00 0. -1.
        -12    1    4    4    0    0  0.27377635866E+02 -0.70442446830E+02 -0.35531670468E+02  0.83511513382E+02  0.00000000000E+00 0.  1.
</event>
<event>
12    1  0.1061634E+000  0.1884631E+03  0.7818608E-02  0.1161172E+00
         21   -1    0    0  501  502  0.00000000000E+00  0.00000000000E+00  0.99988584716E+03  0.99988584716E+03  0.00000000000E+00 0.  1.
         21   -1    0    0  502  503 -0.00000000000E+00 -0.00000000000E+00 -0.26160908009E+03  0.26160908009E+03  0.00000000000E+00 0.  1.
         -6    2    1    2    0  503  0.64720460760E+02  0.24082419875E+02 -0.21784850752E+03  0.28805609811E+03  0.17535575964E+03 0.  0.
        -24    2    3    3    0    0  0.40334663736E+02  0.23922997370E+01 -0.23456329671E+03  0.25108850979E+03  0.79955558829E+02 0.  0.
          6    2    1    2  501    0 -0.64720460760E+02 -0.24082419875E+02  0.95612527459E+03  0.97343882915E+03  0.16923035307E+03 0.  0.
         24    2    5    5    0    0  0.29800193564E+01 -0.13050671218E+02  0.18786576753E+03  0.20210892912E+03  0.73316247090E+02 0.  0.
          5    1    5    5  501    0 -0.67700480116E+02 -0.11031748657E+02  0.76825950706E+03  0.77132990003E+03  0.47000000000E+01 0. -1.
        -11    1    6    6    0    0  0.22711550027E+02 -0.23438081079E+02  0.17116707180E+03  0.17425075213E+03  0.00000000000E+00 0.  1.
         12    1    6    6    0    0 -0.19731530670E+02  0.10387409861E+02  0.16698695724E+02  0.27858176988E+02  0.00000000000E+00 0. -1.
         -5    1    3    3    0  503  0.24385797024E+02  0.21690120138E+02  0.16714789194E+02  0.36967588316E+02  0.47000000000E+01 0.  1.
         13    1    4    4    0    0  0.44209308831E+02  0.11723110019E+02 -0.56289407566E+02  0.72528557824E+02  0.00000000000E+00 0. -1.
        -14    1    4    4    0    0 -0.38746450953E+01 -0.93308102819E+01 -0.17827388915E+03  0.17855995197E+03  0.00000000000E+00 0.  1.
</event>
<event>
12    1  0.1061634E+000  0.3603954E+03  0.7818608E-02  0.1058487E+00
         21   -1    0    0  503  502  0.00000000000E+00  0.00000000000E+00  0.86617788618E+03  0.86617788618E+03  0.00000000000E+00 0. -1.
         21   -1    0    0  501  503 -0.00000000000E+00 -0.00000000000E+00 -0.21902849760E+03  0.21902849760E+03  0.00000000000E+00 0. -1.
          6    2    1    2  501    0  0.30935703162E+03 -0.70623989153E+02  0.18491392116E+02  0.36086945339E+03  0.17086635114E+03 0.  0.
         24    2    3    3    0    0  0.26318767499E+03 -0.88526493110E+02 -0.31962002091E+02  0.29001930077E+03  0.77362348666E+02 0.  0.
         -6    2    1    2    0  502 -0.30935703162E+03  0.70623989153E+02  0.62865799645E+03  0.72433693039E+03  0.16959832359E+03 0.  0.
        -24    2    5    5    0    0 -0.24271421288E+03  0.21936953980E+02  0.56318318285E+03  0.61888204003E+03  0.80301076889E+02 0.  0.
          5    1    3    3  501    0  0.46169356630E+02  0.17902503958E+02  0.50453394208E+02  0.70850152623E+02  0.47000000000E+01 0. -1.
        -11    1    4    4    0    0  0.14319541355E+03 -0.13901234018E+02  0.50164990412E+01  0.14395602118E+03  0.00000000000E+00 0.  1.
         12    1    4    4    0    0  0.11999226144E+03 -0.74625259093E+02 -0.36978501132E+02  0.14606327959E+03  0.00000000000E+00 0. -1.
         -5    1    5    5    0  502 -0.66642818741E+02  0.48687035172E+02  0.65474813609E+02  0.10545489036E+03  0.47000000000E+01 0.  1.
         11    1    6    6    0    0 -0.24715355637E+02 -0.22492216007E+02  0.90052103737E+02  0.96052745784E+02  0.00000000000E+00 0. -1.
        -12    1    6    6    0    0 -0.21799885724E+03  0.44429169987E+02  0.47313107911E+03  0.52282929425E+03  0.00000000000E+00 0.  1.
</event>
<event>
12    1  0.1061634E+000  0.2778689E+03  0.7818608E-02  0.1096868E+00
         21   -1    0    0  501  502  0.00000000000E+00  0.00000000000E+00  0.22445676967E+03  0.22445676967E+03  0.00000000000E+00 0. -1.
         21   -1    0    0  502  503 -0.00000000000E+00 -0.00000000000E+00 -0.35601588711E+03  0.35601588711E+03  0.00000000000E+00 0. -1.
         -6    2    1    2    0  503 -0.19516456473E+03  0.98553983758E+02 -0.12245939252E+02  0.27807100171E+03  0.17138093221E+03 0.  0.
        -24    2    3    3    0    0 -0.39252533780E+02  0.78079497979E+02  0.14167449085E+02  0.11854820383E+03  0.78840285413E+02 0.  0.
          6    2    1    2  501    0  0.19516456473E+03 -0.98553983758E+02 -0.11931317819E+03  0.30240165507E+03  0.17149061624E+03 0.  0.
         24    2    5    5    0    0  0.61465883306E+02 -0.16807776929E+02 -0.10171310033E+03  0.14463717083E+03  0.80708117513E+02 0.  0.
          5    1    5    5  501    0  0.13369868142E+03 -0.81746206829E+02 -0.17600077858E+02  0.15776448423E+03  0.47000000000E+01 0. -1.
        -11    1    6    6    0    0  0.20961647051E+02 -0.10204347106E+02  0.10192207915E+02  0.25444065106E+02  0.00000000000E+00 0.  1.
         12    1    6    6    0    0  0.40504236256E+02 -0.66034298236E+01 -0.11190530824E+03  0.11919310573E+03  0.00000000000E+00 0. -1.
         -5    1    3    3    0  503 -0.15591203095E+03  0.20474485779E+02 -0.26413388336E+02  0.15952279789E+03  0.47000000000E+01 0.  1.
         13    1    4    4    0    0 -0.29675011591E+02 -0.58649301972E+01  0.15625829153E+02  0.34046589489E+02  0.00000000000E+00 0. -1.
        -14    1    4    4    0    0 -0.95775221897E+01  0.83944428176E+02 -0.14583800686E+01  0.84501614337E+02  0.00000000000E+00 0.  1.
</event>
<event>
12    1  0.1061634E+000  0.2437441E+03  0.7818608E-02  0.1117598E+00
         21   -1    0    0  503  502  0.00000000000E+00  0.00000000000E+00  0.39975194102E+03  0.39975194102E+03  0.00000000000E+00 0. -1.
         21   -1    0    0  501  503 -0.00000000000E+00 -0.00000000000E+00 -0.15333435933E+03  0.15333435933E+03  0.00000000000E+00 0. -1.
          6    2    1    2  501    0  0.79993758193E+01  0.17319337252E+03  0.17709859630E+03  0.30128902269E+03  0.17132200116E+03 0.  0.
         24    2    3    3    0    0 -0.13517696190E+02  0.18651181692E+03  0.18441024533E+03  0.27453242424E+03  0.79947028816E+02 0.  0.
         -6    2    1    2    0  502 -0.79993758193E+01 -0.17319337252E+03  0.69318985392E+02  0.25179727766E+03  0.16892842568E+03 0.  0.
        -24    2    5    5    0    0 -0.23897823438E+02 -0.70468490201E+02 -0.22920015784E+02  0.11274590074E+03  0.81543834436E+02 0.  0.
          5    1    3    3  501    0  0.21517072009E+02 -0.13318444395E+02 -0.73116490286E+01  0.26756598447E+02  0.47000000000E+01 0. -1.
        -11    1    4    4    0    0  0.72310978920E+01  0.17552140802E+03  0.14131150288E+03  0.22545286491E+03  0.00000000000E+00 0.  1.
         12    1    4    4    0    0 -0.20748794081E+02  0.10990408902E+02  0.43098742446E+02  0.49079559331E+02  0.00000000000E+00 0. -1.
         -5    1    5    5    0  502  0.15898447619E+02 -0.10272488232E+03  0.92239001177E+02  0.13905137692E+03  0.47000000000E+01 0.  1.
         11    1    6    6    0    0  0.30364929263E+02 -0.25950662967E+02 -0.46027754104E+01  0.40207603498E+02  0.00000000000E+00 0. -1.
        -12    1    6    6    0    0 -0.54262752701E+02 -0.44517827234E+02 -0.18317240374E+02  0.72538297245E+02  0.00000000000E+00 0.  1.
</event>
<event>
12    1  0.1061634E+000  0.2419955E+03  0.7818608E-02  0.1118717E+00
         21   -1    0    0  501  502  0.00000000000E+00  0.00000000000E+00  0.21284685634E+03  0.21284685634E+03  0.00000000000E+00 0.  1.
         21   -1    0    0  502  503 -0.00000000000E+00 -0.00000000000E+00 -0.27787029992E+03  0.27787029992E+03  0.00000000000E+00 0.  1.
         -6    2    1    2    0  503  0.12838616314E+03  0.11103893128E+03 -0.14536602721E+01  0.24051139432E+03  0.17038476023E+03 0.  0.
        -24    2    3    3    0    0 -0.16097535358E+02  0.60023164636E+02 -0.17706616850E+02  0.86354343952E+02  0.57285578478E+02 0.  0.
          6    2    1    2  501    0 -0.12838616314E+03 -0.11103893128E+03 -0.63569783315E+02  0.25020576194E+03  0.17247943301E+03 0.  0.
         24    2    5    5    0    0 -0.81720663788E+02 -0.81957352531E+02 -0.10950784117E+03  0.17840184692E+03  0.80249468440E+02 0.  0.
          5    1    5    5  501    0 -0.46665499356E+02 -0.29081578752E+02  0.45938057852E+02  0.71803915019E+02  0.47000000000E+01 0. -1.
        -13    1    6    6    0    0 -0.34892213374E+02 -0.86954274986E+02 -0.75099389556E+02  0.12007677046E+03  0.00000000000E+00 0.  1.
         14    1    6    6    0    0 -0.46828450414E+02  0.49969224548E+01 -0.34408451611E+02  0.58325076464E+02  0.00000000000E+00 0. -1.
         -5    1    3    3    0  503  0.14448369850E+03  0.51015766647E+02  0.16252956578E+02  0.15415705036E+03  0.47000000000E+01 0.  1.
         11    1    4    4    0    0 -0.13077956219E+01  0.34147828467E+02  0.18977860083E+02  0.39088920319E+02  0.00000000000E+00 0. -1.
        -12    1    4    4    0    0 -0.14789739736E+02  0.25875336169E+02 -0.36684476933E+02  0.47265423633E+02  0.00000000000E+00 0.  1.
</event>
<event>
12    1  0.1061634E+000  0.2334083E+03  0.7818608E-02  0.1125265E+00
         21   -1    0    0  503  502  0.00000000000E+00  0.00000000000E+00  0.57682516331E+02  0.57682516331E+02  0.00000000000E+00 0.  1.
         21   -1    0    0  501  503 -0.00000000000E+00 -0.00000000000E+00 -0.95239134055E+03  0.95239134055E+03  0.00000000000E+00 0. -1.
          6    2    1    2  501    0 -0.14721870480E+03 -0.30576397335E+02 -0.54376298009E+03  0.59174116221E+03  0.17852496022E+03 0.  0.
         24    2    3    3    0    0 -0.89275998696E+02  0.30824913046E+02 -0.18120698435E+03  0.21945576342E+03  0.80028005808E+02 0.  0.
         -6    2    1    2    0  502  0.14721870480E+03  0.30576397335E+02 -0.35094584413E+03  0.41833269467E+03  0.17097074253E+03 0.  0.
        -24    2    5    5    0    0  0.11295337542E+03 -0.43800111230E+02 -0.23575407414E+03  0.27692119691E+03  0.80177621969E+02 0.  0.
          5    1    3    3  501    0 -0.57942706109E+02 -0.61401310381E+02 -0.36255599574E+03  0.37228539879E+03  0.47000000000E+01 0. -1.
        -13    1    4    4    0    0 -0.35751311217E+02  0.51393078578E+02 -0.12145747840E+03  0.13664305266E+03  0.00000000000E+00 0.  1.
         14    1    4    4    0    0 -0.53524687479E+02 -0.20568165532E+02 -0.59749505952E+02  0.82812710768E+02  0.00000000000E+00 0. -1.
         -5    1    5    5    0  502  0.34265329387E+02  0.74376508565E+02 -0.11519176999E+03  0.14141149776E+03  0.47000000000E+01 0.  1.
         13    1    6    6    0    0  0.29651586530E+02 -0.52675933751E+02 -0.82644708693E+02  0.10239198433E+03  0.00000000000E+00 0. -1.
        -14    1    6    6    0    0  0.83301788887E+02  0.88758225204E+01 -0.15310936545E+03  0.17452921258E+03  0.00000000000E+00 0.  1.
</event>
<event>
12    1  0.1061634E+000  0.3265894E+03  0.7818608E-02  0.1072672E+00
         21   -1    0    0  503  502  0.00000000000E+00  0.00000000000E+00  0.81874391127E+02  0.81874391127E+02  0.00000000000E+00 0. -1.
         21   -1    0    0  501  503 -0.00000000000E+00 -0.00000000000E+00 -0.17944356307E+04  0.17944356307E+04  0.00000000000E+00 0. -1.
          6    2    1    2  501    0 -0.26929017371E+03  0.68573166698E+02 -0.13475170996E+04  0.13864958897E+04  0.17131561937E+03 0.  0.
         24    2    3    3    0    0 -0.18625376076E+03  0.98937224901E+02 -0.77162037584E+03  0.80383290957E+03  0.79185252648E+02 0.  0.
         -6    2    1    2    0  502  0.26929017371E+03 -0.68573166698E+02 -0.36504413999E+03  0.48981413220E+03  0.17158433237E+03 0.  0.
        -24    2    5    5    0    0  0.10061295519E+03 -0.83292106647E+02 -0.13727194280E+03  0.20596396917E+03  0.80728114891E+02 0.  0.
          5    1    3    3  501    0 -0.83036412952E+02 -0.30364058204E+02 -0.57589672378E+03  0.58266298009E+03  0.47000000000E+01 0. -1.
        -13    1    4    4    0    0 -0.17247879434E+03  0.86878728762E+02 -0.75430090238E+03  0.77863129872E+03  0.00000000000E+00 0.  1.
         14    1    4    4    0    0 -0.13774966415E+02  0.12058496140E+02 -0.17319473455E+02  0.25201610854E+02  0.00000000000E+00 0. -1.
         -5    1    5    5    0  502  0.16867721852E+03  0.14718939949E+02 -0.22777219720E+03  0.28385016303E+03  0.47000000000E+01 0.  1.
         13    1    6    6    0    0  0.27589848976E+02 -0.68853518997E+02 -0.94428019201E+02  0.12007771506E+03  0.00000000000E+00 0. -1.
        -14    1    6    6    0    0  0.73023106216E+02 -0.14438587650E+02 -0.42843923596E+02  0.85886254103E+02  0.00000000000E+00 0.  1.
</event>
<event>
12    1  0.1061634E+000  0.2121768E+03  0.7818608E-02  0.1139987E+00
         21   -1    0    0  503  502  0.00000000000E+00  0.00000000000E+00  0.37380330559E+03  0.37380330559E+03  0.00000000000E+00 0.  1.
         21   -1    0    0  501  503 -0.00000000000E+00 -0.00000000000E+00 -0.12877937221E+03  0.12877937221E+03  0.00000000000E+00 0.  1.
          6    2    1    2  501    0 -0.43875462895E+02 -0.11741055284E+03  0.57265084871E+02  0.21976867121E+03  0.17119779419E+03 0.  0.
         24    2    3    3    0    0 -0.74672340056E+02 -0.24622916344E+02  0.13522840195E+02  0.11256108240E+03  0.79403297697E+02 0.  0.
         -6    2    1    2    0  502  0.43875462895E+02  0.11741055284E+03  0.18775884850E+03  0.28281400659E+03  0.17035281909E+03 0.  0.
        -24    2    5    5    0    0 -0.87265462647E+01  0.12331943138E+03  0.77297173978E+02  0.16023440897E+03  0.66455834573E+02 0.  0.
          5    1    3    3  501    0  0.30796877160E+02 -0.92787636493E+02  0.43742244677E+02  0.10720758881E+03  0.47000000000E+01 0. -1.
        -11    1    4    4    0    0  0.87928780527E+01 -0.17281122869E+02 -0.14500035033E+02  0.24211627950E+02  0.00000000000E+00 0.  1.
         12    1    4    4    0    0 -0.83465218108E+02 -0.73417934748E+01  0.28022875227E+02  0.88349454448E+02  0.00000000000E+00 0. -1.
         -5    1    5    5    0  502  0.52602009160E+02 -0.59088785410E+01  0.11046167453E+03  0.12257959762E+03  0.47000000000E+01 0.  1.
         11    1    6    6    0    0 -0.39967425582E+01  0.45319852430E+02  0.67611727473E+02  0.81493611206E+02  0.00000000000E+00 0. -1.
        -12    1    6    6    0    0 -0.47298037065E+01  0.77999578947E+02  0.96854465050E+01  0.78740797767E+02  0.00000000000E+00 0.  1.
</event>
<event>
12    1  0.1061634E+000  0.1916631E+03  0.7818608E-02  0.1157017E+00
         21   -1    0    0  501  502  0.00000000000E+00  0.00000000000E+00  0.28735079311E+03  0.28735079311E+03  0.00000000000E+00 0. -1.
         21   -1    0    0  502  503 -0.00000000000E+00 -0.00000000000E+00 -0.13424161978E+03  0.13424161978E+03  0.00000000000E+00 0. -1.
         -6    2    1    2    0  503  0.18557206987E+02 -0.81785664138E+02  0.12305070266E+03  0.22758655135E+03  0.17210722861E+03 0.  0.
        -24    2    3    3    0    0 -0.43498089827E+02 -0.58584810219E+02  0.12018187748E+03  0.16110753478E+03  0.78661873111E+02 0.  0.
          6    2    1    2  501    0 -0.18557206987E+02  0.81785664138E+02  0.30058470666E+02  0.19400586155E+03  0.17234122509E+03 0.  0.
         24    2    5    5    0    0  0.20213093082E+02 -0.17803473272E+02  0.39042625695E+02  0.86656257453E+02  0.72522048661E+02 0.  0.
          5    1    5    5  501    0 -0.38770300069E+02  0.99589137410E+02 -0.89841550292E+01  0.10734960409E+03  0.47000000000E+01 0. -1.
        -11    1    6    6    0    0 -0.18616496112E+02 -0.22339735634E+02 -0.30145660325E+01  0.29235685798E+02  0.00000000000E+00 0.  1.
         12    1    6    6    0    0  0.38829589194E+02  0.45362623626E+01  0.42057191728E+02  0.57420571655E+02  0.00000000000E+00 0. -1.
         -5    1    3    3    0  503  0.62055296814E+02 -0.23200853919E+02  0.28688251737E+01  0.66479016563E+02  0.47000000000E+01 0.  1.
         11    1    4    4    0    0  0.33189379634E+01 -0.36982987134E+02  0.84911744731E+01  0.38090113290E+02  0.00000000000E+00 0. -1.
        -12    1    4    4    0    0 -0.46817027790E+02 -0.21601823085E+02  0.11169070301E+03  0.12301742149E+03  0.00000000000E+00 0.  1.
</event>
<event>
12    1  0.1061634E+000  0.2033493E+03  0.7818608E-02  0.1147558E+00
         21   -1    0    0  503  502  0.00000000000E+00  0.00000000000E+00  0.22492080320E+03  0.22492080320E+03  0.00000000000E+00 0. -1.
         21   -1    0    0  501  503 -0.00000000000E+00 -0.00000000000E+00 -0.18121623349E+03  0.18121623349E+03  0.00000000000E+00 0. -1.
          6    2    1    2  501    0  0.85537101757E+02  0.61352188928E+02  0.24350103986E+02  0.20186870576E+03  0.17052084898E+03 0.  0.
         24    2    3    3    0    0  0.86291764200E+02  0.81444909586E+02  0.65126166246E+02  0.15616242400E+03  0.77882881773E+02 0.  0.
         -6    2    1    2    0  502 -0.85537101757E+02 -0.61352188928E+02  0.19354465717E+02  0.20426833093E+03  0.17398353030E+03 0.  0.
        -24    2    5    5    0    0 -0.85084866983E+02  0.79955149708E+01  0.51210300684E+02  0.12780793090E+03  0.80056289291E+02 0.  0.
          5    1    3    3  501    0 -0.75466244309E+00 -0.20092720658E+02 -0.40776062260E+02  0.45706281759E+02  0.47000000000E+01 0. -1.
        -13    1    4    4    0    0  0.73341414952E+02  0.20114165557E+02  0.51977336251E+02  0.92115070900E+02  0.00000000000E+00 0.  1.
         14    1    4    4    0    0  0.12950349248E+02  0.61330744029E+02  0.13148829994E+02  0.64047353099E+02  0.00000000000E+00 0. -1.
         -5    1    5    5    0  502 -0.45223477354E+00 -0.69347703898E+02 -0.31855834966E+02  0.76460400036E+02  0.47000000000E+01 0.  1.
         11    1    6    6    0    0  0.85996905705E+01  0.20252581416E+02  0.14973224799E+02  0.26614266716E+02  0.00000000000E+00 0. -1.
        -12    1    6    6    0    0 -0.93684557554E+02 -0.12257066446E+02  0.36237075884E+02  0.10119366418E+03  0.00000000000E+00 0.  1.
</event>
<event>
12    1  0.1061634E+000  0.2693227E+03  0.7818608E-02  0.1101802E+00
         21   -1    0    0  503  502  0.00000000000E+00  0.00000000000E+00  0.31891029207E+03  0.31891029207E+03  0.00000000000E+00 0.  1.
         21   -1    0    0  501  503 -0.00000000000E+00 -0.00000000000E+00 -0.23676275192E+03  0.23676275192E+03  0.00000000000E+00 0.  1.
          6    2    1    2  501    0  0.19085128704E+03 -0.79523463415E+02 -0.16249390385E+02  0.26981248586E+03  0.17258777432E+03 0.  0.
         24    2    3    3    0    0  0.12562781116E+03 -0.10723742840E+03 -0.53522322393E+02  0.18960321508E+03  0.76174321043E+02 0.  0.
         -6    2    1    2    0  502 -0.19085128704E+03  0.79523463415E+02  0.98396930534E+02  0.28586055812E+03  0.17113184319E+03 0.  0.
        -24    2    5    5    0    0 -0.21076585686E+03  0.54210034404E+02  0.10039445787E+03  0.25325013195E+03  0.81826694382E+02 0.  0.
          5    1    3    3  501    0  0.65223475875E+02  0.27713964981E+02  0.37272932008E+02  0.80209270789E+02  0.47000000000E+01 0. -1.
        -13    1    4    4    0    0  0.36000087757E+02 -0.62181374073E+02  0.74107987884E+01  0.72231914960E+02  0.00000000000E+00 0.  1.
         14    1    4    4    0    0  0.89627723404E+02 -0.45056054322E+02 -0.60933121181E+02  0.11737130011E+03  0.00000000000E+00 0. -1.
         -5    1    5    5    0  502  0.19914569824E+02  0.25313429011E+02 -0.19975273396E+01  0.32610426170E+02  0.47000000000E+01 0.  1.
         13    1    6    6    0    0 -0.14357504200E+03  0.58069976182E+02  0.10283252182E+03  0.18590439038E+03  0.00000000000E+00 0. -1.
        -14    1    6    6    0    0 -0.67190814856E+02 -0.38599417777E+01 -0.24380639450E+01  0.67345741568E+02  0.00000000000E+00 0.  1.
</event>
<event>
12    1  0.1061634E+000  0.2220819E+03  0.7818608E-02  0.1132711E+00
         21   -1    0    0  501  502  0.00000000000E+00  0.00000000000E+00  0.23176413715E+03  0.23176413715E+03  0.00000000000E+00 0. -1.
         21   -1    0    0  502  503 -0.00000000000E+00 -0.00000000000E+00 -0.22934539140E+03  0.22934539140E+03  0.00000000000E+00 0. -1.
         -6    2    1    2    0  503 -0.10792495895E+03 -0.84464208412E+02  0.66603955243E+02  0.22993834874E+03  0.17220208506E+03 0.  0.
        -24    2    3    3    0    0 -0.10130382722E+02 -0.80797487615E+01  0.67170535904E+02  0.10575793229E+03  0.80653284836E+02 0.  0.
          6    2    1    2  501    0  0.10792495895E+03  0.84464208412E+02 -0.64185209493E+02  0.23117117981E+03  0.17475232184E+03 0.  0.
         24    2    5    5    0    0  0.12305410661E+03  0.96054614827E+02 -0.88579976977E+02  0.19985946777E+03  0.87912412971E+02 0.  0.
          5    1    5    5  501    0 -0.15129147659E+02 -0.11590406416E+02  0.24394767483E+02  0.31311712031E+02  0.47000000000E+01 0. -1.
        -11    1    6    6    0    0  0.33370103730E+01  0.50835020666E+02 -0.20600944118E+02  0.54952105172E+02  0.00000000000E+00 0.  1.
         12    1    6    6    0    0  0.11971709624E+03  0.45219594162E+02 -0.67979032859E+02  0.14490736260E+03  0.00000000000E+00 0. -1.
         -5    1    3    3    0  503 -0.97794576231E+02 -0.76384459650E+02 -0.56658066047E+00  0.12418041645E+03  0.47000000000E+01 0.  1.
         11    1    4    4    0    0 -0.30863247112E+02 -0.49981879678E+01 -0.40412265460E+01  0.31525440794E+02  0.00000000000E+00 0. -1.
        -12    1    4    4    0    0  0.20732864390E+02 -0.30815607937E+01  0.71211762450E+02  0.74232491497E+02  0.00000000000E+00 0.  1.
</event>
<event>
12    1  0.1061634E+000  0.1752326E+03  0.7818608E-02  0.1172593E+00
         21   -1    0    0  503  502  0.00000000000E+00  0.00000000000E+00  0.15602775985E+03  0.15602775985E+03  0.00000000000E+00 0.  1.
         21   -1    0    0  501  503 -0.00000000000E+00 -0.00000000000E+00 -0.21518495594E+03  0.21518495594E+03  0.00000000000E+00 0.  1.
          6    2    1    2  501    0 -0.31500054795E+02 -0.18216106876E+02  0.25323360447E+02  0.17667884683E+03  0.17102649599E+03 0.  0.
         24    2    3    3    0    0  0.31181804493E+02  0.24884931238E+02 -0.14493730185E+02  0.90689279572E+02  0.80143075063E+02 0.  0.
         -6    2    1    2    0  502  0.31500054795E+02  0.18216106876E+02 -0.84480556543E+02  0.19453386896E+03  0.17141289840E+03 0.  0.
        -24    2    5    5    0    0  0.50782838573E+01 -0.55424270347E+02 -0.57012195720E+02  0.11148198166E+03  0.77975656870E+02 0.  0.
          5    1    3    3  501    0 -0.62681859288E+02 -0.43101038114E+02  0.39817090632E+02  0.85989567255E+02  0.47000000000E+01 0. -1.
        -13    1    4    4    0    0 -0.39245510942E+01  0.29964977916E+02 -0.37687236996E+02  0.48307658142E+02  0.00000000000E+00 0.  1.
         14    1    4    4    0    0  0.35106355587E+02 -0.50800466780E+01  0.23193506811E+02  0.42381621430E+02  0.00000000000E+00 0. -1.
         -5    1    5    5    0  502  0.26421770938E+02  0.73640377223E+02 -0.27468360823E+02  0.83051887296E+02  0.47000000000E+01 0.  1.
         11    1    6    6    0    0  0.36393400957E+02 -0.29585710114E+02 -0.52865087986E+02  0.70671857227E+02  0.00000000000E+00 0. -1.
        -12    1    6    6    0    0 -0.31315117100E+02 -0.25838560233E+02 -0.41471077339E+01  0.40810124436E+02  0.00000000000E+00 0.  1.
</event>
<event>
12    1  0.1061634E+000  0.2157241E+03  0.7818608E-02  0.1137888E+00
         21   -1    0    0  503  502  0.00000000000E+00  0.00000000000E+00  0.24407653676E+02  0.24407653676E+02  0.00000000000E+00 0.  1.
         21   -1    0    0  501  503 -0.00000000000E+00 -0.00000000000E+00 -0.19044621614E+04  0.19044621614E+04  0.00000000000E+00 0.  1.
          6    2    1    2  501    0  0.76463003940E+01  0.12707932905E+03 -0.10760256683E+04  0.10974370645E+04  0.17415295025E+03 0.  0.
         24    2    3    3    0    0 -0.10313636396E+02  0.14511644145E+03 -0.10389067409E+04  0.10521844235E+04  0.81238488783E+02 0.  0.
         -6    2    1    2    0  502 -0.76463003940E+01 -0.12707932905E+03 -0.80402883946E+03  0.83143275054E+03  0.16914615633E+03 0.  0.
        -24    2    5    5    0    0 -0.57483871445E+02 -0.10736621340E+03 -0.67715301311E+03  0.69362144575E+03  0.87992088144E+02 0.  0.
          5    1    3    3  501    0  0.17959936790E+02 -0.18037112397E+02 -0.37118927313E+02  0.45252641006E+02  0.47000000000E+01 0. -1.
        -13    1    4    4    0    0 -0.14631455982E+02  0.24738492410E+02 -0.45903223094E+03  0.45993114871E+03  0.00000000000E+00 0.  1.
         14    1    4    4    0    0  0.43178195867E+01  0.12037794904E+03 -0.57987451001E+03  0.59225327482E+03  0.00000000000E+00 0. -1.
         -5    1    5    5    0  502  0.49837571051E+02 -0.19713115649E+02 -0.12687582635E+03  0.13781130479E+03  0.47000000000E+01 0.  1.
         13    1    6    6    0    0  0.22163846868E+02 -0.40762558672E+02 -0.20348454184E+03  0.20870740539E+03  0.00000000000E+00 0. -1.
        -14    1    6    6    0    0 -0.79647718313E+02 -0.66603654729E+02 -0.47366847127E+03  0.48491404036E+03  0.00000000000E+00 0.  1.
</event>
<event>
12    1  0.1061634E+000  0.2076875E+03  0.7818608E-02  0.1145395E+00
         21   -1    0    0  503  502  0.00000000000E+00  0.00000000000E+00  0.15736679172E+03  0.15736679172E+03  0.00000000000E+00 0.  1.
         21   -1    0    0  501  503 -0.00000000000E+00 -0.00000000000E+00 -0.56095410257E+03  0.56095410257E+03  0.00000000000E+00 0.  1.
          6    2    1    2  501    0  0.59164307525E+02  0.80220206844E+02 -0.46639344498E+03  0.51054572271E+03  0.18220426060E+03 0.  0.
         24    2    3    3    0    0  0.10725901116E+03  0.85282569352E+02 -0.36313344585E+03  0.39642541140E+03  0.80682062434E+02 0.  0.
         -6    2    1    2    0  502 -0.59164307525E+02 -0.80220206844E+02  0.62806134140E+02  0.20777517158E+03  0.17114384175E+03 0.  0.
        -24    2    5    5    0    0 -0.95923210485E+02 -0.91513720579E+02  0.30826184540E+02  0.15754004866E+03  0.79325846438E+02 0.  0.
          5    1    3    3  501    0 -0.48094703635E+02 -0.50623625079E+01 -0.10325999913E+03  0.11412031131E+03  0.47000000000E+01 0. -1.
        -11    1    4    4    0    0  0.36555726033E+02 -0.65970088685E+01 -0.14158023051E+03  0.14637213978E+03  0.00000000000E+00 0.  1.
         12    1    4    4    0    0  0.70703285127E+02  0.91879578220E+02 -0.22155321534E+03  0.25005327163E+03  0.00000000000E+00 0. -1.
         -5    1    5    5    0  502  0.36758902960E+02  0.11293513735E+02  0.31979949599E+02  0.50235122929E+02  0.47000000000E+01 0.  1.
         13    1    6    6    0    0 -0.68863894527E+01 -0.81734856521E+00  0.29638032290E+02  0.30438517973E+02  0.00000000000E+00 0. -1.
        -14    1    6    6    0    0 -0.89036821032E+02 -0.90696372014E+02  0.11881522500E+01  0.12710153068E+03  0.00000000000E+00 0.  1.
</event>
<event>
12    1  0.1061634E+000  0.1997239E+03  0.7818608E-02  0.1150073E+00
         21   -1    0    0  501  502  0.00000000000E+00  0.00000000000E+00  0.89808034725E+03  0.89808034725E+03  0.00000000000E+00 0.  1.
         21   -1    0    0  502  503 -0.00000000000E+00 -0.00000000000E+00 -0.50084458901E+02  0.50084458901E+02  0.00000000000E+00 0.  1.
         -6    2    1    2    0  503  0.82023704780E+02 -0.59968590748E+02  0.58451261322E+03  0.61753951898E+03  0.17139411441E+03 0.  0.
        -24    2    3    3    0    0  0.32551435933E+02 -0.37734752111E+02  0.13410229794E+03  0.16385086904E+03  0.79875988096E+02 0.  0.
          6    2    1    2  501    0 -0.82023704780E+02  0.59968590748E+02  0.26348327513E+03  0.33062528718E+03  0.17194628297E+03 0.  0.
         24    2    5    5    0    0 -0.12127161707E+03  0.30749263842E+02  0.21629288350E+03  0.26248432486E+03  0.80393326908E+02 0.  0.
          5    1    5    5  501    0  0.39247912287E+02  0.29219326906E+02  0.47190391622E+02  0.68140962315E+02  0.47000000000E+01 0. -1.
        -13    1    6    6    0    0 -0.44191743810E+02  0.24248459315E+02  0.15736752640E+03  0.16524356679E+03  0.00000000000E+00 0.  1.
         14    1    6    6    0    0 -0.77079873257E+02  0.65008045270E+01  0.58925357103E+02  0.97240758073E+02  0.00000000000E+00 0. -1.
         -5    1    3    3    0  503  0.49472268848E+02 -0.22233838636E+02  0.45041031528E+03  0.45368864993E+03  0.47000000000E+01 0.  1.
         11    1    4    4    0    0  0.24875438132E+02 -0.59843508875E+02  0.12039274226E+03  0.13672763205E+03  0.00000000000E+00 0. -1.
        -12    1    4    4    0    0  0.76759978010E+01  0.22108756764E+02  0.13709555676E+02  0.27123236988E+02  0.00000000000E+00 0.  1.
</event>
<event>
12    1  0.1061634E+000  0.3329364E+03  0.7818608E-02  0.1069884E+00
         21   -1    0    0  501  502  0.00000000000E+00  0.00000000000E+00  0.21679355556E+03  0.21679355556E+03  0.00000000000E+00 0. -1.
         21   -1    0    0  502  503 -0.00000000000E+00 -0.00000000000E+00 -0.51569385461E+03  0.51569385461E+03  0.00000000000E+00 0. -1.
         -6    2    1    2    0  503 -0.10341926526E+03 -0.26520372810E+03 -0.18521065850E+03  0.38067496578E+03  0.17199383631E+03 0.  0.
        -24    2    3    3    0    0 -0.12740104481E+02 -0.21263766402E+03 -0.12840185367E+03  0.26136347598E+03  0.80291619302E+02 0.  0.
          6    2    1    2  501    0  0.10341926526E+03  0.26520372810E+03 -0.11368964055E+03  0.35181244439E+03  0.17267918183E+03 0.  0.
         24    2    5    5    0    0  0.66970092246E+02  0.23908372652E+03 -0.14320888621E+03  0.29792114120E+03  0.81253921405E+02 0.  0.
          5    1    5    5  501    0  0.36449173014E+02  0.26120001570E+02  0.29519245653E+02  0.53891303189E+02  0.47000000000E+01 0. -1.
        -11    1    6    6    0    0  0.34144427718E+02  0.20261404745E+03 -0.86512974826E+02  0.22294122315E+03  0.00000000000E+00 0.  1.
         12    1    6    6    0    0  0.32825664528E+02  0.36469679074E+02 -0.56695911381E+02  0.74979918050E+02  0.00000000000E+00 0. -1.
         -5    1    3    3    0  503 -0.90679160778E+02 -0.52566064080E+02 -0.56808804833E+02  0.11931148980E+03  0.47000000000E+01 0.  1.
         11    1    4    4    0    0  0.28051488240E+02 -0.86346997723E+02 -0.76989395234E+02  0.11903804848E+03  0.00000000000E+00 0. -1.
        -12    1    4    4    0    0 -0.40791592722E+02 -0.12629066629E+03 -0.51412458431E+02  0.14232542749E+03  0.00000000000E+00 0.  1.
</event>
<event>
12    1  0.1061634E+000  0.1736535E+03  0.7818608E-02  0.1174222E+00
         21   -1    0    0  503  502  0.00000000000E+00  0.00000000000E+00  0.56298095400E+03  0.56298095400E+03  0.00000000000E+00 0. -1.
         21   -1    0    0  501  503 -0.00000000000E+00 -0.00000000000E+00 -0.62091269178E+02  0.62091269178E+02  0.00000000000E+00 0. -1.
          6    2    1    2  501    0 -0.14071769624E+02 -0.15694068886E+02  0.36702142718E+03  0.40580924859E+03  0.17184906089E+03 0.  0.
         24    2    3    3    0    0 -0.29740057447E+02  0.28697282045E+02  0.98477315364E+02  0.13312973474E+03  0.79484209856E+02 0.  0.
         -6    2    1    2    0  502  0.14071769624E+02  0.15694068886E+02  0.13386825764E+03  0.21926297459E+03  0.17236943791E+03 0.  0.
        -24    2    5    5    0    0 -0.51359914374E+02  0.95871947069E+00  0.39027850290E+02  0.10300795896E+03  0.80303839031E+02 0.  0.
          5    1    3    3  501    0  0.15668287823E+02 -0.44391350931E+02  0.26854411182E+03  0.27267951385E+03  0.47000000000E+01 0. -1.
        -13    1    4    4    0    0  0.11895325663E+02 -0.21246168292E+02  0.22830692524E+02  0.33378720180E+02  0.00000000000E+00 0.  1.
         14    1    4    4    0    0 -0.41635383111E+02  0.49943450337E+02  0.75646622841E+02  0.99751014559E+02  0.00000000000E+00 0. -1.
         -5    1    5    5    0  502  0.65431683998E+02  0.14735349415E+02  0.94840407345E+02  0.11625501563E+03  0.47000000000E+01 0.  1.
         13    1    6    6    0    0 -0.48112726656E+02  0.32730629995E+02  0.40724604857E+02  0.71025502792E+02  0.00000000000E+00 0. -1.
        -14    1    6    6    0    0 -0.32471877185E+01 -0.31771910524E+02 -0.16967545675E+01  0.31982456167E+02  0.00000000000E+00 0.  1.
</event>
<event>
12    1  0.1061634E+000  0.5602580E+03  0.7818608E-02  0.9991899E-01
         21   -1    0    0  503  502  0.00000000000E+00  0.00000000000E+00  0.13548298118E+04  0.13548298118E+04  0.00000000000E+00 0.  1.
         21   -1    0    0  501  503 -0.00000000000E+00 -0.00000000000E+00 -0.23857280254E+03  0.23857280254E+03  0.00000000000E+00 0.  1.
          6    2    1    2  501    0  0.52266100902E+03  0.10204557264E+03  0.69694075001E+03  0.89421220391E+03  0.17407247730E+03 0.  0.
         24    2    3    3    0    0  0.12748165793E+03  0.30801530041E+02  0.26240773839E+03  0.30253369211E+03  0.73949349800E+02 0.  0.
         -6    2    1    2    0  502 -0.52266100902E+03 -0.10204557264E+03  0.41931625924E+03  0.69919041042E+03  0.17161956623E+03 0.  0.
        -24    2    5    5    0    0 -0.36962659245E+03 -0.54554289323E+02  0.20276059975E+03  0.42975878959E+03  0.63093328386E+02 0.  0.
          5    1    3    3  501    0  0.39517935110E+03  0.71244042599E+02  0.43453301162E+03  0.59167851180E+03  0.47000000000E+01 0. -1.
        -11    1    4    4    0    0  0.65273778677E+02  0.38639190932E+01  0.19990415072E+03  0.21032656876E+03  0.00000000000E+00 0.  1.
         12    1    4    4    0    0  0.62207879252E+02  0.26937610948E+02  0.62503587671E+02  0.92207123349E+02  0.00000000000E+00 0. -1.
         -5    1    5    5    0  502 -0.15303441657E+03 -0.47491283318E+02  0.21655565950E+03  0.26943162084E+03  0.47000000000E+01 0.  1.
         11    1    6    6    0    0 -0.26698012965E+03 -0.15399585662E+02  0.12521521651E+03  0.29528695757E+03  0.00000000000E+00 0. -1.
        -12    1    6    6    0    0 -0.10264646281E+03 -0.39154703661E+02  0.77545383234E+02  0.13447183202E+03  0.00000000000E+00 0.  1.
</event>
<event>
12    1  0.1061634E+000  0.2235508E+03  0.7818608E-02  0.1131787E+00
         21   -1    0    0  503  502  0.00000000000E+00  0.00000000000E+00  0.44157842144E+03  0.44157842144E+03  0.00000000000E+00 0.  1.
         21   -1    0    0  501  503 -0.00000000000E+00 -0.00000000000E+00 -0.11624479164E+03  0.11624479164E+03  0.00000000000E+00 0. -1.
          6    2    1    2  501    0  0.51028295378E+02 -0.12484248006E+03  0.10673590775E+03  0.24515739470E+03  0.17469992105E+03 0.  0.
         24    2    3    3    0    0  0.66030214606E+02 -0.83511728174E+02  0.43028505169E+01  0.13358719327E+03  0.80578072079E+02 0.  0.
         -6    2    1    2    0  502 -0.51028295378E+02  0.12484248006E+03  0.21859772205E+03  0.31266581838E+03  0.17828465480E+03 0.  0.
        -24    2    5    5    0    0 -0.34637371905E+02  0.95937829898E+02  0.33694031089E+02  0.12474134923E+03  0.63413734618E+02 0.  0.
          5    1    3    3  501    0 -0.15001919228E+02 -0.41330751888E+02  0.10243305723E+03  0.11157020143E+03  0.47000000000E+01 0. -1.
        -13    1    4    4    0    0 -0.18186464962E+02 -0.12569529824E+02  0.77279161608E+01  0.23419250116E+02  0.00000000000E+00 0.  1.
         14    1    4    4    0    0  0.84216679568E+02 -0.70942198350E+02 -0.34250656439E+01  0.11016794315E+03  0.00000000000E+00 0. -1.
         -5    1    5    5    0  502 -0.16390923473E+02  0.28904650164E+02  0.18490369096E+03  0.18792446915E+03  0.47000000000E+01 0.  1.
         13    1    6    6    0    0  0.16943176566E+02  0.28507475471E+02 -0.63077656963E+00  0.33168437843E+02  0.00000000000E+00 0. -1.
        -14    1    6    6    0    0 -0.51580548471E+02  0.67430354427E+02  0.34324807658E+02  0.91572911385E+02  0.00000000000E+00 0.  1.
</event>
<event>
12    1  0.1061634E+000  0.1987985E+03  0.7818608E-02  0.1150853E+00
         21   -1    0    0  503  502  0.00000000000E+00  0.00000000000E+00  0.19152928174E+02  0.19152928174E+02  0.00000000000E+00 0.  1.
         21   -1    0    0  501  503 -0.00000000000E+00 -0.00000000000E+00 -0.20710354308E+04  0.20710354308E+04  0.00000000000E+00 0.  1.
          6    2    1    2  501    0 -0.69290026213E+02  0.65722339397E+02 -0.94423452673E+03  0.96484180407E+03  0.17383996027E+03 0.  0.
         24    2    3    3    0    0 -0.19050989505E+02 -0.47517249169E+00 -0.25063699676E+03  0.26626776006E+03  0.87843325937E+02 0.  0.
         -6    2    1    2    0  502  0.69290026213E+02 -0.65722339397E+02 -0.11076479759E+04  0.11253465549E+04  0.17435680800E+03 0.  0.
        -24    2    5    5    0    0  0.78586758794E+02 -0.10217683142E+03 -0.75254846977E+03  0.76822877534E+03  0.85030984808E+02 0.  0.
          5    1    3    3  501    0 -0.50239036708E+02  0.66197511888E+02 -0.69359752997E+03  0.69857404401E+03  0.47000000000E+01 0. -1.
        -11    1    4    4    0    0  0.85863433154E+01 -0.24587467878E+02 -0.20966976488E+03  0.21128104310E+03  0.00000000000E+00 0.  1.
         12    1    4    4    0    0 -0.27637332820E+02  0.24112295386E+02 -0.40967231885E+02  0.54986716965E+02  0.00000000000E+00 0. -1.
         -5    1    5    5    0  502 -0.92967325809E+01  0.36454492024E+02 -0.35509950613E+03  0.35711777956E+03  0.47000000000E+01 0.  1.
         13    1    6    6    0    0  0.94248094647E+02 -0.88994463786E+02 -0.69865830451E+03  0.71058155365E+03  0.00000000000E+00 0. -1.
        -14    1    6    6    0    0 -0.15661335853E+02 -0.13182367635E+02 -0.53890165259E+02  0.57647221692E+02  0.00000000000E+00 0.  1.
</event>
<event>
12    1  0.1061634E+000  0.2082409E+03  0.7818608E-02  0.1143426E+00
         21   -1    0    0  501  502  0.00000000000E+00  0.00000000000E+00  0.44069093741E+03  0.44069093741E+03  0.00000000000E+00 0.  1.
         21   -1    0    0  502  503 -0.00000000000E+00 -0.00000000000E+00 -0.99544771149E+02  0.99544771149E+02  0.00000000000E+00 0.  1.
         -6    2    1    2    0  503  0.70013128293E+02  0.89452177928E+02  0.20998703990E+03  0.29413212040E+03  0.17180109736E+03 0.  0.
        -24    2    3    3    0    0  0.10344781609E+03  0.53093053781E+02  0.97861216959E+02  0.17151827768E+03  0.79507098916E+02 0.  0.
          6    2    1    2  501    0 -0.70013128293E+02 -0.89452177928E+02  0.13115912636E+03  0.24610358816E+03  0.17453002438E+03 0.  0.
         24    2    5    5    0    0 -0.97983554127E+02 -0.22586273306E+02  0.52640485496E+02  0.13914256308E+03  0.80490468549E+02 0.  0.
          5    1    5    5  501    0  0.27970425833E+02 -0.66865904622E+02  0.78518640863E+02  0.10696102508E+03  0.47000000000E+01 0. -1.
        -11    1    6    6    0    0 -0.25024677253E+02 -0.16242179226E+02 -0.20059896621E+02  0.35950553683E+02  0.00000000000E+00 0.  1.
         12    1    6    6    0    0 -0.72958876873E+02 -0.63440940798E+01  0.72700382117E+02  0.10319200940E+03  0.00000000000E+00 0. -1.
         -5    1    3    3    0  503 -0.33434687799E+02  0.36359124148E+02  0.11212582294E+03  0.12261384272E+03  0.47000000000E+01 0.  1.
         13    1    4    4    0    0  0.39102774470E+02 -0.17895037058E+02  0.17347643919E+02  0.46370249861E+02  0.00000000000E+00 0. -1.
        -14    1    4    4    0    0  0.64345041622E+02  0.70988090839E+02  0.80513573040E+02  0.12514802781E+03  0.00000000000E+00 0.  1.
</event>
<event>
12    1  0.1061634E+000  0.3007076E+03  0.7818608E-02  0.1085157E+00
         21   -1    0    0  501  502  0.00000000000E+00  0.00000000000E+00  0.64827008223E+02  0.64827008223E+02  0.00000000000E+00 0. -1.
         21   -1    0    0  502  503 -0.00000000000E+00 -0.00000000000E+00 -0.24357875569E+04  0.24357875569E+04  0.00000000000E+00 0. -1.
         -6    2    1    2    0  503  0.18233325584E+03 -0.16483366554E+03 -0.36181382547E+03  0.46908912133E+03  0.16946918883E+03 0.  0.
        -24    2    3    3    0    0  0.12123566702E+03 -0.18164748404E+03 -0.31359015524E+03  0.38931925093E+03  0.74409665123E+02 0.  0.
          6    2    1    2  501    0 -0.18233325584E+03  0.16483366554E+03 -0.20091467232E+04  0.20315254438E+04  0.17323256031E+03 0.  0.
         24    2    5    5    0    0 -0.88417676597E+02  0.16706731328E+03 -0.12856060246E+04  0.13018965260E+04  0.80140758168E+02 0.  0.
          5    1    5    5  501    0 -0.93915579246E+02 -0.22336477403E+01 -0.72354069856E+03  0.72962891780E+03  0.47000000000E+01 0. -1.
        -11    1    6    6    0    0 -0.56745629575E+02  0.11064998805E+03 -0.57186653051E+03  0.58523056572E+03  0.00000000000E+00 0.  1.
         12    1    6    6    0    0 -0.31672047022E+02  0.56417325230E+02 -0.71373949413E+03  0.71666596029E+03  0.00000000000E+00 0. -1.
         -5    1    3    3    0  503  0.61097588827E+02  0.16813818499E+02 -0.48223670229E+02  0.79769870399E+02  0.47000000000E+01 0.  1.
         13    1    4    4    0    0  0.12697288294E+02  0.44909341979E-01 -0.48347337540E+02  0.49986880220E+02  0.00000000000E+00 0. -1.
        -14    1    4    4    0    0  0.10853837872E+03 -0.18169239338E+03 -0.26524281770E+03  0.33933237071E+03  0.00000000000E+00 0.  1.
</event>
<event>
12    1  0.1061634E+000  0.6897778E+03  0.7818608E-02  0.9736300E-01
         21   -1    0    0  501  502  0.00000000000E+00  0.00000000000E+00  0.56434572075E+03  0.56434572075E+03  0.00000000000E+00 0.  1.
         21   -1    0    0  502  503 -0.00000000000E+00 -0.00000000000E+00 -0.95071574749E+03  0.95071574749E+03  0.00000000000E+00 0.  1.
         -6    2    1    2    0  503  0.62097746496E+03 -0.23740747595E+03  0.65964889310E+02  0.69292482634E+03  0.18389705465E+03 0.  0.
        -24    2    3    3    0    0  0.17519855332E+03 -0.67625752920E+02 -0.30195822387E+02  0.20628980498E+03  0.79849360713E+02 0.  0.
          6    2    1    2  501    0 -0.62097746496E+03  0.23740747595E+03 -0.45233491605E+03  0.82213664190E+03  0.17124970084E+03 0.  0.
         24    2    5    5    0    0 -0.24432836908E+03  0.14839855677E+03 -0.16498774100E+03  0.34008102463E+03  0.81949161358E+02 0.  0.
          5    1    5    5  501    0 -0.37664909588E+03  0.89008919186E+02 -0.28734717505E+03  0.48205561726E+03  0.47000000000E+01 0. -1.
        -13    1    6    6    0    0 -0.14058612071E+03  0.49851775009E+02 -0.11558696426E+03  0.18870612898E+03  0.00000000000E+00 0.  1.
         14    1    6    6    0    0 -0.10374224837E+03  0.98546781757E+02 -0.49400776742E+02  0.15137489566E+03  0.00000000000E+00 0. -1.
         -5    1    3    3    0  503  0.44577891164E+03 -0.16978172303E+03  0.96160711697E+02  0.48663502136E+03  0.47000000000E+01 0.  1.
         13    1    4    4    0    0  0.33364676295E+02 -0.10580325038E+02 -0.39936028237E+02  0.53103966458E+02  0.00000000000E+00 0. -1.
        -14    1    4    4    0    0  0.14183387703E+03 -0.57045427882E+02  0.97402058503E+01  0.15318583853E+03  0.00000000000E+00 0.  1.
</event>
<event>
12    1  0.1061634E+000  0.3029673E+03  0.7818608E-02  0.1084053E+00
         21   -1    0    0  503  502  0.00000000000E+00  0.00000000000E+00  0.73507414557E+03  0.73507414557E+03  0.00000000000E+00 0. -1.
         21   -1    0    0  501  503 -0.00000000000E+00 -0.00000000000E+00 -0.19395259641E+03  0.19395259641E+03  0.00000000000E+00 0. -1.
          6    2    1    2  501    0  0.18362695184E+03 -0.16361335835E+03  0.55034424372E+03  0.62822604939E+03  0.17692086951E+03 0.  0.
         24    2    3    3    0    0  0.17109401513E+03 -0.63314600073E+02  0.40568949430E+03  0.45169276091E+03  0.78488750001E+02 0.  0.
         -6    2    1    2    0  502 -0.18362695184E+03  0.16361335835E+03 -0.92226945590E+01  0.30080069258E+03  0.17293874663E+03 0.  0.
        -24    2    5    5    0    0 -0.65862602609E+02  0.64143227255E+02  0.57169569467E+02  0.13289365981E+03  0.77072233131E+02 0.  0.
          5    1    3    3  501    0  0.12532936718E+02 -0.10029875827E+03  0.14465474942E+03  0.17653328849E+03  0.47000000000E+01 0. -1.
        -13    1    4    4    0    0  0.14465996655E+03 -0.81902778512E+02  0.34330810541E+03  0.38143810283E+03  0.00000000000E+00 0.  1.
         14    1    4    4    0    0  0.26434048579E+02  0.18588178439E+02  0.62381388891E+02  0.70254658080E+02  0.00000000000E+00 0. -1.
         -5    1    5    5    0  502 -0.11776434924E+03  0.99470131093E+02 -0.66392264026E+02  0.16790703277E+03  0.47000000000E+01 0.  1.
         13    1    6    6    0    0 -0.38485963131E+02  0.74666862492E+02  0.60290394936E+02  0.10339845953E+03  0.00000000000E+00 0. -1.
        -14    1    6    6    0    0 -0.27376639478E+02 -0.10523635238E+02 -0.31208254686E+01  0.29495200277E+02  0.00000000000E+00 0.  1.
</event>
<event>
12    1  0.1061634E+000  0.2745378E+03  0.7818608E-02  0.1098834E+00
         21   -1    0    0  501  502  0.00000000000E+00  0.00000000000E+00  0.33463401976E+03  0.33463401976E+03  0.00000000000E+00 0. -1.
         21   -1    0    0  502  503 -0.00000000000E+00 -0.00000000000E+00 -0.22451391653E+03  0.22451391653E+03  0.00000000000E+00 0. -1.
         -6    2    1    2    0  503  0.21295971187E+03  0.18890693237E+02  0.56228759909E+02  0.28023679393E+03  0.17222743700E+03 0.  0.
        -24    2    3    3    0    0  0.26094794475E+02  0.96689117619E+01  0.39620119161E+02  0.92349924891E+02  0.78640502489E+02 0.  0.
          6    2    1    2  501    0 -0.21295971187E+03 -0.18890693237E+02  0.53891343324E+02  0.27891114237E+03  0.17081701110E+03 0.  0.
         24    2    5    5    0    0 -0.13198230543E+03  0.53183518021E+02  0.15033447629E+02  0.16365465301E+03  0.79429373450E+02 0.  0.
          5    1    5    5  501    0 -0.80977406440E+02 -0.72074211258E+02  0.38857895695E+02  0.11525648936E+03  0.47000000000E+01 0. -1.
        -11    1    6    6    0    0 -0.14197750534E+03  0.46944969500E+02  0.76145647967E+01  0.14973117171E+03  0.00000000000E+00 0.  1.
         12    1    6    6    0    0  0.99951999108E+01  0.62385485209E+01  0.74188828325E+01  0.13923481296E+02  0.00000000000E+00 0. -1.
         -5    1    3    3    0  503  0.18686491740E+03  0.92217814756E+01  0.16608640748E+02  0.18788686903E+03  0.47000000000E+01 0.  1.
         11    1    4    4    0    0 -0.50061890133E+00 -0.27245955790E+02 -0.60180822118E+01  0.27907168250E+02  0.00000000000E+00 0. -1.
        -12    1    4    4    0    0  0.26595413376E+02  0.36914867552E+02  0.45638201373E+02  0.64442756642E+02  0.00000000000E+00 0.  1.
</event>
<event>
12    1  0.1061634E+000  0.2671075E+03  0.7818608E-02  0.1102957E+00
         21   -1    0    0  501  502  0.00000000000E+00  0.00000000000E+00  0.10040901799E+03  0.10040901799E+03  0.00000000000E+00 0. -1.
         21   -1    0    0  502  503 -0.00000000000E+00 -0.00000000000E+00 -0.13320207590E+04  0.13320207590E+04  0.00000000000E+00 0. -1.
         -6    2    1    2    0  503 -0.18930659878E+03 -0.76466087552E+02 -0.12647630465E+03  0.29547298881E+03  0.17211618340E+03 0.  0.
        -24    2    3    3    0    0 -0.10180385174E+03 -0.88304317215E+02 -0.13458258684E+03  0.20667728941E+03  0.80258037647E+02 0.  0.
          6    2    1    2  501    0  0.18930659878E+03  0.76466087552E+02 -0.11051354363E+04  0.11369567882E+04  0.17222762439E+03 0.  0.
         24    2    5    5    0    0  0.17027989383E+03  0.17763965523E+02 -0.97092943788E+03  0.98916878237E+03  0.80250270825E+02 0.  0.
          5    1    5    5  501    0  0.19026704950E+02  0.58702122029E+02 -0.13420599847E+03  0.14778800579E+03  0.47000000000E+01 0. -1.
        -11    1    6    6    0    0  0.13509636462E+03  0.24483225637E+02 -0.55619198053E+03  0.57288740192E+03  0.00000000000E+00 0.  1.
         12    1    6    6    0    0  0.35183529206E+02 -0.67192601145E+01 -0.41473745735E+03  0.41628138046E+03  0.00000000000E+00 0. -1.
         -5    1    3    3    0  503 -0.87502747038E+02  0.11838229663E+02  0.81062821889E+01  0.88795699399E+02  0.47000000000E+01 0.  1.
         13    1    4    4    0    0 -0.13345008986E+02  0.15388801179E+02 -0.21004907085E+02  0.29259367529E+02  0.00000000000E+00 0. -1.
        -14    1    4    4    0    0 -0.88458842755E+02 -0.10369311839E+03 -0.11357767976E+03  0.17741792188E+03  0.00000000000E+00 0.  1.
</event>
<event>
12    1  0.1061634E+000  0.3057825E+03  0.7818608E-02  0.1082414E+00
         21   -1    0    0  503  502  0.00000000000E+00  0.00000000000E+00  0.13407826736E+04  0.13407826736E+04  0.00000000000E+00 0. -1.
         21   -1    0    0  501  503 -0.00000000000E+00 -0.00000000000E+00 -0.98858772638E+02  0.98858772638E+02  0.00000000000E+00 0. -1.
          6    2    1    2  501    0 -0.24472064481E+03 -0.61159159517E+02  0.23008955681E+03  0.38268024392E+03  0.17284191663E+03 0.  0.
         24    2    3    3    0    0 -0.26118523366E+03 -0.63949668416E+02  0.19148242605E+03  0.34035448142E+03  0.82875612597E+02 0.  0.
         -6    2    1    2    0  502  0.24472064481E+03  0.61159159517E+02  0.10118343441E+04  0.10569612023E+04  0.17242275488E+03 0.  0.
        -24    2    5    5    0    0  0.87764995612E+02 -0.94279806811E+01  0.28471707968E+03  0.30974019988E+03  0.84164093825E+02 0.  0.
          5    1    3    3  501    0  0.16464588848E+02  0.27905088989E+01  0.38607130759E+02  0.42325762501E+02  0.47000000000E+01 0. -1.
        -13    1    4    4    0    0 -0.11767781974E+03  0.28485022019E+01  0.11496217304E+03  0.16453718259E+03  0.00000000000E+00 0.  1.
         14    1    4    4    0    0 -0.14350741392E+03 -0.66798170617E+02  0.76520253012E+02  0.17581729884E+03  0.00000000000E+00 0. -1.
         -5    1    5    5    0  502  0.15695564920E+03  0.70587140198E+02  0.72711726445E+03  0.74722100241E+03  0.47000000000E+01 0.  1.
         13    1    6    6    0    0  0.98379753043E+02  0.30214403675E+01  0.19378858533E+03  0.21735160619E+03  0.00000000000E+00 0. -1.
        -14    1    6    6    0    0 -0.10614757431E+02 -0.12449421049E+02  0.90928494345E+02  0.92388593688E+02  0.00000000000E+00 0.  1.
</event>
<event>
12    1  0.1061634E+000  0.2235038E+03  0.7818608E-02  0.1131314E+00
         21   -1    0    0  503  502  0.00000000000E+00  0.00000000000E+00  0.37860019444E+03  0.37860019444E+03  0.00000000000E+00 0.  1.
         21   -1    0    0  501  503 -0.00000000000E+00 -0.00000000000E+00 -0.16221590762E+03  0.16221590762E+03  0.00000000000E+00 0.  1.
          6    2    1    2  501    0  0.69413273301E+02 -0.12429265225E+03 -0.87055180348E+01  0.22367325980E+03  0.17229937664E+03 0.  0.
         24    2    3    3    0    0  0.91621388558E+02 -0.57330503514E+02 -0.49053488532E+02  0.14226577568E+03  0.78434945779E+02 0.  0.
         -6    2    1    2    0  502 -0.69413273301E+02  0.12429265225E+03  0.22508980485E+03  0.31714284227E+03  0.17218390238E+03 0.  0.
        -24    2    5    5    0    0 -0.11486635152E+03  0.89669419834E+02  0.17436497913E+03  0.24059319506E+03  0.79038319801E+02 0.  0.
          5    1    3    3  501    0 -0.22208115257E+02 -0.66962148739E+02  0.40347970497E+02  0.81407484116E+02  0.47000000000E+01 0. -1.
        -11    1    4    4    0    0  0.23769720008E+02  0.10130570081E+02  0.12286414551E+02  0.28610907395E+02  0.00000000000E+00 0.  1.
         12    1    4    4    0    0  0.67851668550E+02 -0.67461073596E+02 -0.61339903082E+02  0.11365486829E+03  0.00000000000E+00 0. -1.
         -5    1    5    5    0  502  0.45453078221E+02  0.34623232419E+02  0.50724825724E+02  0.76549647207E+02  0.47000000000E+01 0.  1.
         13    1    6    6    0    0  0.36637274998E+01 -0.97317030394E+01  0.62322435142E+01  0.12123110263E+02  0.00000000000E+00 0. -1.
        -14    1    6    6    0    0 -0.11853007902E+03  0.99401122873E+02  0.16813273562E+03  0.22847008480E+03  0.00000000000E+00 0.  1.
</event>
<event>
12    1  0.1061634E+000  0.1918909E+03  0.7818608E-02  0.1156923E+00
         21   -1    0    0  501  502  0.00000000000E+00  0.00000000000E+00  0.14091555500E+04  0.14091555500E+04  0.00000000000E+00 0.  1.
         21   -1    0    0  502  503 -0.00000000000E+00 -0.00000000000E+00 -0.34005218683E+02  0.34005218683E+02  0.00000000000E+00 0.  1.
         -6    2    1    2    0  503 -0.66067550771E+02  0.52251325586E+02  0.10359467472E+04  0.10534413752E+04  0.17163317195E+03 0.  0.
        -24    2    3    3    0    0 -0.18303275172E+02  0.95056427009E+02  0.64189808706E+03  0.65417938193E+03  0.80912146030E+02 0.  0.
          6    2    1    2  501    0  0.66067550771E+02 -0.52251325586E+02  0.33920358412E+03  0.38971939346E+03  0.17241523096E+03 0.  0.
         24    2    5    5    0    0  0.65587733262E+02 -0.69268191940E+02  0.13095274599E+03  0.18072105484E+03  0.80072746985E+02 0.  0.
          5    1    5    5  501    0  0.47981750820E+00  0.17016866354E+02  0.20825083813E+03  0.20899833863E+03  0.47000000000E+01 0. -1.
        -13    1    6    6    0    0  0.33414509544E+02 -0.76840706220E+02  0.11906974857E+03  0.14559748832E+03  0.00000000000E+00 0.  1.
         14    1    6    6    0    0  0.32173223718E+02  0.75725142809E+01  0.11882997415E+02  0.35123566512E+02  0.00000000000E+00 0. -1.
         -5    1    3    3    0  503 -0.47764275598E+02 -0.42805101423E+02  0.39404866012E+03  0.39926199327E+03  0.47000000000E+01 0.  1.
         11    1    4    4    0    0 -0.48887692388E+02  0.40162159456E+02  0.33178037864E+03  0.33775912300E+03  0.00000000000E+00 0. -1.
        -12    1    4    4    0    0  0.30584417216E+02  0.54894267554E+02  0.31011770842E+03  0.31642025894E+03  0.00000000000E+00 0.  1.
</event>
<event>
12    1  0.1061634E+000  0.1783388E+03  0.7818608E-02  0.1170372E+00
         21   -1    0    0  501  502  0.00000000000E+00  0.00000000000E+00  0.10386449796E+03  0.10386449796E+03  0.00000000000E+00 0.  1.
         21   -1    0    0  502  503 -0.00000000000E+00 -0.00000000000E+00 -0.46586953701E+03  0.46586953701E+03  0.00000000000E+00 0.  1.
         -6    2    1    2    0  503 -0.43905892138E+02  0.82376128915E+00 -0.12122365876E+02  0.17875028381E+03  0.17284763887E+03 0.  0.
        -24    2    3    3    0    0 -0.49613671010E+02 -0.34067739687E+02 -0.62466392914E+02  0.11705258014E+03  0.78594713791E+02 0.  0.
          6    2    1    2  501    0  0.43905892138E+02 -0.82376128915E+00 -0.34988267317E+03  0.39098375116E+03  0.16888458408E+03 0.  0.
         24    2    5    5    0    0  0.29148988433E+01 -0.14444685931E+02 -0.85255893732E+02  0.12281363069E+03  0.87163495107E+02 0.  0.
          5    1    5    5  501    0  0.40990993295E+02  0.13620924642E+02 -0.26462677944E+03  0.26817012047E+03  0.47000000000E+01 0. -1.
        -13    1    6    6    0    0 -0.14582799379E+02  0.33581719500E+02 -0.28219641937E+02  0.46224864665E+02  0.00000000000E+00 0.  1.
         14    1    6    6    0    0  0.17497698222E+02 -0.48026405431E+02 -0.57036251795E+02  0.76588766020E+02  0.00000000000E+00 0. -1.
         -5    1    3    3    0  503  0.57077788717E+01  0.34891500976E+02  0.50344027038E+02  0.61697703673E+02  0.47000000000E+01 0.  1.
         13    1    4    4    0    0 -0.59152093155E+02 -0.16289891536E+02 -0.11747944773E+02  0.62468751367E+02  0.00000000000E+00 0. -1.
        -14    1    4    4    0    0  0.95384221459E+01 -0.17777848151E+02 -0.50718448141E+02  0.54583828776E+02  0.00000000000E+00 0.  1.
</event>
<event>
12    1  0.1061634E+000  0.1989464E+03  0.7818608E-02  0.1151113E+00
         21   -1    0    0  501  502  0.00000000000E+00  0.00000000000E+00  0.59841789303E+03  0.59841789303E+03  0.00000000000E+00 0.  1.
         21   -1    0    0  502  503 -0.00000000000E+00 -0.00000000000E+00 -0.15464043195E+03  0.15464043195E+03  0.00000000000E+00 0.  1.
         -6    2    1    2    0  503 -0.90141031548E+02  0.38941547571E+02  0.50739723062E+03  0.54418723273E+03  0.17042870924E+03 0.  0.
        -24    2    3    3    0    0 -0.57640310904E+02  0.91581670996E+02  0.32804328038E+03  0.35440522910E+03  0.79253168437E+02 0.  0.
          6    2    1    2  501    0  0.90141031548E+02 -0.38941547571E+02 -0.63619769534E+02  0.20887109224E+03  0.17302545594E+03 0.  0.
         24    2    5    5    0    0  0.43327779013E+02 -0.51059558564E+02 -0.10307625233E+03  0.14628330719E+03  0.79307737411E+02 0.  0.
          5    1    5    5  501    0  0.46813252536E+02  0.12118010994E+02  0.39456482794E+02  0.62587785054E+02  0.47000000000E+01 0. -1.
        -13    1    6    6    0    0  0.28627537919E+01 -0.42480630904E+02 -0.90041824354E+01  0.43518670276E+02  0.00000000000E+00 0.  1.
         14    1    6    6    0    0  0.40465025221E+02 -0.85789276601E+01 -0.94072069893E+02  0.10276463691E+03  0.00000000000E+00 0. -1.
         -5    1    3    3    0  503 -0.32500720644E+02 -0.52640123425E+02  0.17935395024E+03  0.18978200363E+03  0.47000000000E+01 0.  1.
         13    1    4    4    0    0  0.13998215283E+02  0.44026283180E+02  0.14478823635E+03  0.15197992311E+03  0.00000000000E+00 0. -1.
        -14    1    4    4    0    0 -0.71638526187E+02  0.47555387816E+02  0.18325504403E+03  0.20242530600E+03  0.00000000000E+00 0.  1.
</event>
<event>
12    1  0.1061634E+000  0.1863442E+03  0.7818608E-02  0.1162745E+00
         21   -1    0    0  503  502  0.00000000000E+00  0.00000000000E+00  0.38879116678E+03  0.38879116678E+03  0.00000000000E+00 0. -1.
         21   -1    0    0  501  503 -0.00000000000E+00 -0.00000000000E+00 -0.96476573869E+02  0.96476573869E+02  0.00000000000E+00 0. -1.
          6    2    1    2  501    0  0.13738393091E+02  0.58231426038E+02  0.22206681516E+03  0.28989277858E+03  0.17647807302E+03 0.  0.
         24    2    3    3    0    0  0.66840537202E+02  0.76000062946E+02  0.14157526716E+03  0.19172689109E+03  0.80448601705E+02 0.  0.
         -6    2    1    2    0  502 -0.13738393091E+02 -0.58231426038E+02  0.70247777759E+02  0.19537496207E+03  0.17221202949E+03 0.  0.
        -24    2    5    5    0    0 -0.78324191928E+02 -0.89707535691E+01  0.52782019394E+02  0.11215788463E+03  0.59818860337E+02 0.  0.
          5    1    3    3  501    0 -0.53102144110E+02 -0.17768636909E+02  0.80491548000E+02  0.98165887487E+02  0.47000000000E+01 0. -1.
        -13    1    4    4    0    0  0.71263559663E+02  0.63418666721E+02  0.14865221378E+03  0.17662928094E+03  0.00000000000E+00 0.  1.
         14    1    4    4    0    0 -0.44230224614E+01  0.12581396225E+02 -0.70769466249E+01  0.15097610149E+02  0.00000000000E+00 0. -1.
         -5    1    5    5    0  502  0.64585798837E+02 -0.49260672468E+02  0.17465758365E+02  0.83217077446E+02  0.47000000000E+01 0.  1.
         13    1    6    6    0    0 -0.13586652158E+02 -0.61080451843E+01  0.44381588617E+02  0.46814855986E+02  0.00000000000E+00 0. -1.
        -14    1    6    6    0    0 -0.64737539770E+02 -0.28627083848E+01  0.84004307773E+01  0.65343028641E+02  0.00000000000E+00 0.  1.
</event>
<event>
12    1  0.1061634E+000  0.1823317E+03  0.7818608E-02  0.1165873E+00
         21   -1    0    0  501  502  0.00000000000E+00  0.00000000000E+00  0.15225745076E+03  0.15225745076E+03  0.00000000000E+00 0. -1.
         21   -1    0    0  502  503 -0.00000000000E+00 -0.00000000000E+00 -0.21681479233E+03  0.21681479233E+03  0.00000000000E+00 0. -1.
         -6    2    1    2    0  503  0.54278759664E+02  0.23443323691E+02 -0.33179150870E+02  0.18406028062E+03  0.17111854859E+03 0.  0.
        -24    2    3    3    0    0  0.59444700126E+02 -0.28298358806E+02 -0.64924555257E+02  0.12295586713E+03  0.81046146740E+02 0.  0.
          6    2    1    2  501    0 -0.54278759664E+02 -0.23443323691E+02 -0.31378190703E+02  0.18501196248E+03  0.17247916463E+03 0.  0.
         24    2    5    5    0    0 -0.58005377978E+02 -0.32832836155E+02  0.39431916288E+02  0.11333064078E+03  0.82742607604E+02 0.  0.
          5    1    5    5  501    0  0.37266183133E+01  0.93895124641E+01 -0.70810106991E+02  0.71681321698E+02  0.47000000000E+01 0. -1.
        -13    1    6    6    0    0 -0.33148192622E+02  0.25035265585E+02  0.25772593909E+02  0.48885517220E+02  0.00000000000E+00 0.  1.
         14    1    6    6    0    0 -0.24857185355E+02 -0.57868101740E+02  0.13659322379E+02  0.64445123560E+02  0.00000000000E+00 0. -1.
         -5    1    3    3    0  503 -0.51659404616E+01  0.51741682497E+02  0.31745404387E+02  0.61104413492E+02  0.47000000000E+01 0.  1.
         11    1    4    4    0    0  0.13426481373E+02  0.27374520738E+02 -0.29816411659E+02  0.42645670260E+02  0.00000000000E+00 0. -1.
        -12    1    4    4    0    0  0.46018218753E+02 -0.55672879544E+02 -0.35108143598E+02  0.80310196867E+02  0.00000000000E+00 0.  1.
</event>
<event>
12    1  0.1061634E+000  0.2125901E+03  0.7818608E-02  0.1139854E+00
         21   -1    0    0  503  502  0.00000000000E+00  0.00000000000E+00  0.10699890731E+04  0.10699890731E+04  0.00000000000E+00 0. -1.
         21   -1    0    0  501  503 -0.00000000000E+00 -0.00000000000E+00 -0.54575438604E+02  0.54575438604E+02  0.00000000000E+00 0. -1.
          6    2    1    2  501    0 -0.10090517222E+03 -0.66998452116E+02  0.77704628595E+03  0.80516890272E+03  0.17270027511E+03 0.  0.
         24    2    3    3    0    0 -0.12884127829E+03 -0.37993350782E+02  0.70729796963E+03  0.72449276278E+03  0.81091157233E+02 0.  0.
         -6    2    1    2    0  502  0.10090517222E+03  0.66998452116E+02  0.23836734858E+03  0.31939560903E+03  0.17471094936E+03 0.  0.
        -24    2    5    5    0    0  0.11706251089E+03  0.96376620173E+02  0.22557136478E+03  0.28320219039E+03  0.79554733732E+02 0.  0.
          5    1    3    3  501    0  0.27936106068E+02 -0.29005101334E+02  0.69748316321E+02  0.80676139938E+02  0.47000000000E+01 0. -1.
        -13    1    4    4    0    0 -0.35606664412E+02  0.24919904042E+02  0.23515937671E+03  0.23914173334E+03  0.00000000000E+00 0.  1.
         14    1    4    4    0    0 -0.93234613880E+02 -0.62913254823E+02  0.47213859292E+03  0.48535102944E+03  0.00000000000E+00 0. -1.
         -5    1    5    5    0  502 -0.16157338669E+02 -0.29378168057E+02  0.12795983802E+02  0.36193418638E+02  0.47000000000E+01 0.  1.
         13    1    6    6    0    0  0.36880289130E+02 -0.52372625652E+01  0.80983082411E+02  0.89139465347E+02  0.00000000000E+00 0. -1.
        -14    1    6    6    0    0  0.80182221762E+02  0.10161388274E+03  0.14458828237E+03  0.19406272504E+03  0.00000000000E+00 0.  1.
</event>
<event>
12    1  0.1061634E+000  0.1871620E+03  0.7818608E-02  0.1162270E+00
         21   -1    0    0  501  502  0.00000000000E+00  0.00000000000E+00  0.67038002772E+03  0.67038002772E+03  0.00000000000E+00 0. -1.
         21   -1    0    0  502  503 -0.00000000000E+00 -0.00000000000E+00 -0.75157213335E+02  0.75157213335E+02  0.00000000000E+00 0. -1.
         -6    2    1    2    0  503  0.73399276312E+02  0.59842811082E+01  0.51266077936E+03  0.54575698180E+03  0.17206493865E+03 0.  0.
        -24    2    3    3    0    0  0.23203464197E+02  0.49776381629E+02  0.17046440091E+03  0.19710555265E+03  0.82318879926E+02 0.  0.
          6    2    1    2  501    0 -0.73399276312E+02 -0.59842811082E+01  0.82562035027E+02  0.19978025925E+03  0.16635022385E+03 0.  0.
         24    2    5    5    0    0 -0.45768898346E+01  0.39024580782E+02  0.92388989876E+01  0.89504737000E+02  0.79886637588E+02 0.  0.
          5    1    5    5  501    0 -0.68822386478E+02 -0.45008861890E+02  0.73323136039E+02  0.11027552225E+03  0.47000000000E+01 0. -1.
        -11    1    6    6    0    0  0.70894680294E+01 -0.22231057577E+02 -0.82373036499E+01  0.24745376323E+02  0.00000000000E+00 0.  1.
         12    1    6    6    0    0 -0.11666357864E+02  0.61255638360E+02  0.17476202637E+02  0.64759360677E+02  0.00000000000E+00 0. -1.
         -5    1    3    3    0  503  0.50195812115E+02 -0.43792100521E+02  0.34219637845E+03  0.34865142915E+03  0.47000000000E+01 0.  1.
         13    1    4    4    0    0 -0.73880283076E+01 -0.18636171506E+02  0.62838849879E+02  0.65959160886E+02  0.00000000000E+00 0. -1.
        -14    1    4    4    0    0  0.30591492504E+02  0.68412553135E+02  0.10762555103E+03  0.13114639177E+03  0.00000000000E+00 0.  1.
</event>
<event>
12    1  0.1061634E+000  0.2379835E+03  0.7818608E-02  0.1121329E+00
         21   -1    0    0  501  502  0.00000000000E+00  0.00000000000E+00  0.16837796066E+03  0.16837796066E+03  0.00000000000E+00 0.  1.
         21   -1    0    0  502  503 -0.00000000000E+00 -0.00000000000E+00 -0.40781791660E+03  0.40781791660E+03  0.00000000000E+00 0.  1.
         -6    2    1    2    0  503 -0.16410811688E+03  0.10132241239E+02 -0.24184263008E+03  0.33929930227E+03  0.17205238289E+03 0.  0.
        -24    2    3    3    0    0 -0.14516610506E+03  0.44492058979E+02 -0.24502405074E+03  0.29965578673E+03  0.81878347013E+02 0.  0.
          6    2    1    2  501    0  0.16410811688E+03 -0.10132241239E+02  0.24026741346E+01  0.23689657499E+03  0.17052881885E+03 0.  0.
         24    2    5    5    0    0  0.44715442978E+02  0.43207759564E+02  0.22430474314E+02  0.10452222307E+03  0.80965348201E+02 0.  0.
          5    1    5    5  501    0  0.11939267390E+03 -0.53340000803E+02 -0.20027800180E+02  0.13237435192E+03  0.47000000000E+01 0. -1.
        -11    1    6    6    0    0  0.63312668955E+02  0.49632512135E+02  0.25959142398E+02  0.84532581796E+02  0.00000000000E+00 0.  1.
         12    1    6    6    0    0 -0.18597225977E+02 -0.64247525710E+01 -0.35286680835E+01  0.19989641269E+02  0.00000000000E+00 0. -1.
         -5    1    3    3    0  503 -0.18942011822E+02 -0.34359817739E+02  0.31814206582E+01  0.39643515540E+02  0.47000000000E+01 0.  1.
         13    1    4    4    0    0 -0.64944100522E+02 -0.21490157863E+02 -0.89903092360E+02  0.11296959367E+03  0.00000000000E+00 0. -1.
        -14    1    4    4    0    0 -0.80222004536E+02  0.65982216842E+02 -0.15512095838E+03  0.18668619306E+03  0.00000000000E+00 0.  1.
</event>
<event>
12    1  0.1061634E+000  0.1808394E+03  0.7818608E-02  0.1167385E+00
         21   -1    0    0  501  502  0.00000000000E+00  0.00000000000E+00  0.71365667074E+02  0.71365667074E+02  0.00000000000E+00 0.  1.
         21   -1    0    0  502  503 -0.00000000000E+00 -0.00000000000E+00 -0.45614148903E+03  0.45614148903E+03  0.00000000000E+00 0.  1.
         -6    2    1    2    0  503 -0.52735100065E+02  0.25177342503E+01 -0.17577700291E+03  0.25219125186E+03  0.17296110256E+03 0.  0.
        -24    2    3    3    0    0 -0.10075888121E+03 -0.76672601223E+01 -0.14638650966E+03  0.19478124612E+03  0.79369922564E+02 0.  0.
          6    2    1    2  501    0  0.52735100065E+02 -0.25177342503E+01 -0.20899881904E+03  0.27531590424E+03  0.17126298783E+03 0.  0.
         24    2    5    5    0    0 -0.22613094866E+02 -0.43214623872E+02 -0.13373427216E+03  0.16120880840E+03  0.75660878788E+02 0.  0.
          5    1    5    5  501    0  0.75348194931E+02  0.40696889621E+02 -0.75264546883E+02  0.11410709584E+03  0.47000000000E+01 0. -1.
        -13    1    6    6    0    0 -0.31600887011E+02 -0.46244814345E+02 -0.44673513982E+02  0.71644411960E+02  0.00000000000E+00 0.  1.
         14    1    6    6    0    0  0.89877921448E+01  0.30301904730E+01 -0.89060758176E+02  0.89564396435E+02  0.00000000000E+00 0. -1.
         -5    1    3    3    0  503  0.48023781147E+02  0.10184994373E+02 -0.29390493252E+02  0.57410005745E+02  0.47000000000E+01 0.  1.
         11    1    4    4    0    0 -0.17347304128E+02 -0.30115313355E+02 -0.15719823186E+02  0.38144120123E+02  0.00000000000E+00 0. -1.
        -12    1    4    4    0    0 -0.83411577084E+02  0.22448053233E+02 -0.13066668647E+03  0.15663712599E+03  0.00000000000E+00 0.  1.
</event>
<event>
12    1  0.1061634E+000  0.1983297E+03  0.7818608E-02  0.1151766E+00
         21   -1    0    0  501  502  0.00000000000E+00  0.00000000000E+00  0.87096762605E+03  0.87096762605E+03  0.00000000000E+00 0.  1.
         21   -1    0    0  502  503 -0.00000000000E+00 -0.00000000000E+00 -0.44527922970E+02  0.44527922970E+02  0.00000000000E+00 0.  1.
         -6    2    1    2    0  503  0.10909524994E+01  0.91416764237E+02  0.42291727992E+03  0.46711206276E+03  0.17600124590E+03 0.  0.
        -24    2    3    3    0    0  0.68436206898E+01  0.87746883276E+02  0.13868078939E+03  0.18275483361E+03  0.80128753855E+02 0.  0.
          6    2    1    2  501    0 -0.10909524994E+01 -0.91416764237E+02  0.40352242315E+03  0.44838348626E+03  0.17279811862E+03 0.  0.
         24    2    5    5    0    0  0.12889994872E+02 -0.11622231662E+03  0.21673256672E+03  0.25937734143E+03  0.81423712266E+02 0.  0.
          5    1    5    5  501    0 -0.13980947371E+02  0.24805552383E+02  0.18678985643E+03  0.18900614483E+03  0.47000000000E+01 0. -1.
        -11    1    6    6    0    0  0.24292324579E+02 -0.10961337277E+02  0.91925991806E+02  0.95711315516E+02  0.00000000000E+00 0.  1.
         12    1    6    6    0    0 -0.11402329707E+02 -0.10526097934E+03  0.12480657492E+03  0.16366602591E+03  0.00000000000E+00 0. -1.
         -5    1    3    3    0  503 -0.57526681904E+01  0.36698809602E+01  0.28423649053E+03  0.28435722915E+03  0.47000000000E+01 0.  1.
         13    1    4    4    0    0  0.17715557933E+02  0.96189121554E+02  0.92696980670E+02  0.13475503079E+03  0.00000000000E+00 0. -1.
        -14    1    4    4    0    0 -0.10871937243E+02 -0.84422382777E+01  0.45983808720E+02  0.47999802822E+02  0.00000000000E+00 0.  1.
</event>
<event>
12    1  0.1061634E+000  0.1966761E+03  0.7818608E-02  0.1152748E+00
         21   -1    0    0  501  502  0.00000000000E+00  0.00000000000E+00  0.23199672636E+02  0.23199672636E+02  0.00000000000E+00 0. -1.
         21   -1    0    0  502  503 -0.00000000000E+00 -0.00000000000E+00 -0.18380344311E+04  0.18380344311E+04  0.00000000000E+00 0. -1.
         -6    2    1    2    0  503 -0.22253839070E+02 -0.91766500640E+02 -0.61989154322E+03  0.65034375682E+03  0.17252580293E+03 0.  0.
        -24    2    3    3    0    0 -0.43069960683E+02 -0.20409534864E+02 -0.15684587663E+03  0.18134641478E+03  0.77552063232E+02 0.  0.
          6    2    1    2  501    0  0.22253839070E+02  0.91766500640E+02 -0.11949432152E+04  0.12108903469E+04  0.17160950039E+03 0.  0.
         24    2    5    5    0    0  0.25792209243E+02 -0.16665965802E+02 -0.45661537531E+03  0.46461947849E+03  0.80191435676E+02 0.  0.
          5    1    5    5  501    0 -0.35383701732E+01  0.10843246644E+03 -0.73832783991E+03  0.74627086840E+03  0.47000000000E+01 0. -1.
        -13    1    6    6    0    0 -0.17287171179E+02  0.91328175470E+01 -0.35558916088E+02  0.40579442542E+02  0.00000000000E+00 0.  1.
         14    1    6    6    0    0  0.43079380422E+02 -0.25798783349E+02 -0.42105645922E+03  0.42404003595E+03  0.00000000000E+00 0. -1.
         -5    1    3    3    0  503  0.20816121613E+02 -0.71356965776E+02 -0.46304566659E+03  0.46899734203E+03  0.47000000000E+01 0.  1.
         11    1    4    4    0    0 -0.56818916612E+02 -0.31964479985E+02 -0.14713123499E+03  0.16092767809E+03  0.00000000000E+00 0. -1.
        -12    1    4    4    0    0  0.13748955929E+02  0.11554945121E+02 -0.97146416408E+01  0.20418736692E+02  0.00000000000E+00 0.  1.
</event>
<event>
12    1  0.1061634E+000  0.2798062E+03  0.7818608E-02  0.1095957E+00
         21   -1    0    0  501  502  0.00000000000E+00  0.00000000000E+00  0.16159811073E+03  0.16159811073E+03  0.00000000000E+00 0.  1.
         21   -1    0    0  502  503 -0.00000000000E+00 -0.00000000000E+00 -0.54554556260E+03  0.54554556260E+03  0.00000000000E+00 0.  1.
         -6    2    1    2    0  503 -0.84416548836E+02 -0.20251421780E+03 -0.72079640364E+02  0.28894110268E+03  0.17364712533E+03 0.  0.
        -24    2    3    3    0    0  0.81504888548E+01 -0.67532955481E+02  0.87678129533E+01  0.10632949749E+03  0.81252427331E+02 0.  0.
          6    2    1    2  501    0  0.84416548836E+02  0.20251421780E+03 -0.31186781150E+03  0.41820257065E+03  0.17173728809E+03 0.  0.
         24    2    5    5    0    0 -0.20967804708E+02  0.73237241844E+02 -0.10918815896E+03  0.15567727656E+03  0.80684682265E+02 0.  0.
          5    1    5    5  501    0  0.10538435354E+03  0.12927697596E+03 -0.20267965254E+03  0.26252529410E+03  0.47000000000E+01 0. -1.
        -11    1    6    6    0    0 -0.37421684526E+02  0.87018047706E+01 -0.65785709809E+02  0.76183091917E+02  0.00000000000E+00 0.  1.
         12    1    6    6    0    0  0.16453879819E+02  0.64535437073E+02 -0.43402449151E+02  0.79494184640E+02  0.00000000000E+00 0. -1.
         -5    1    3    3    0  503 -0.92567037691E+02 -0.13498126232E+03 -0.80847453317E+02  0.18261160520E+03  0.47000000000E+01 0.  1.
         11    1    4    4    0    0 -0.31663773487E+02 -0.39425159030E+02 -0.14099588414E+02  0.52495105576E+02  0.00000000000E+00 0. -1.
        -12    1    4    4    0    0  0.39814262341E+02 -0.28107796451E+02  0.22867401368E+02  0.53834391911E+02  0.00000000000E+00 0.  1.
</event>
<event>
12    1  0.1061634E+000  0.2515695E+03  0.7818608E-02  0.1112479E+00
         21   -1    0    0  503  502  0.00000000000E+00  0.00000000000E+00  0.42538025076E+03  0.42538025076E+03  0.00000000000E+00 0. -1.
         21   -1    0    0  501  503 -0.00000000000E+00 -0.00000000000E+00 -0.22651889047E+03  0.22651889047E+03  0.00000000000E+00 0. -1.
          6    2    1    2  501    0 -0.12300246171E+03  0.13606460327E+03  0.29099410870E+03  0.38398932229E+03  0.17066647733E+03 0.  0.
         24    2    3    3    0    0 -0.58042634801E+02  0.15354693108E+03  0.20085292300E+03  0.27141519446E+03  0.79866786638E+02 0.  0.
         -6    2    1    2    0  502  0.12300246171E+03 -0.13606460327E+03 -0.92132748415E+02  0.26790981894E+03  0.17217446357E+03 0.  0.
        -24    2    5    5    0    0  0.73071743988E+02 -0.18507084997E+02 -0.88490256991E+02  0.14004972189E+03  0.78111503977E+02 0.  0.
          5    1    3    3  501    0 -0.64959826907E+02 -0.17482327807E+02  0.90141185702E+02  0.11257412783E+03  0.47000000000E+01 0. -1.
        -13    1    4    4    0    0 -0.68029073962E+02  0.13101929547E+03  0.19745360841E+03  0.24653993219E+03  0.00000000000E+00 0.  1.
         14    1    4    4    0    0  0.99864391613E+01  0.22527635607E+02  0.33993145843E+01  0.24875262266E+02  0.00000000000E+00 0. -1.
         -5    1    5    5    0  502  0.49930717720E+02 -0.11755751827E+03 -0.36424914236E+01  0.12786009705E+03  0.47000000000E+01 0.  1.
         11    1    6    6    0    0 -0.14207428304E+02 -0.10521196499E+02 -0.36153036635E+01  0.18044861190E+02  0.00000000000E+00 0. -1.
        -12    1    6    6    0    0  0.87279172292E+02 -0.79858884977E+01 -0.84874953328E+02  0.12200486070E+03  0.00000000000E+00 0.  1.
</event>
<event>
12    1  0.1061634E+000  0.1939111E+03  0.7818608E-02  0.1156456E+00
         21   -1    0    0  503  502  0.00000000000E+00  0.00000000000E+00  0.44468814140E+02  0.44468814140E+02  0.00000000000E+00 0. -1.
         21   -1    0    0  501  503 -0.00000000000E+00 -0.00000000000E+00 -0.10227491930E+04  0.10227491930E+04  0.00000000000E+00 0. -1.
          6    2    1    2  501    0 -0.32864339850E+02  0.69960627884E+02 -0.72165597813E+03  0.74556973419E+03  0.17062333805E+03 0.  0.
         24    2    3    3    0    0 -0.67178421094E+02  0.56983831172E+02 -0.30624521203E+03  0.32851572328E+03  0.79852071212E+02 0.  0.
         -6    2    1    2    0  502  0.32864339850E+02 -0.69960627884E+02 -0.25662440076E+03  0.32164827298E+03  0.17783974291E+03 0.  0.
        -24    2    5    5    0    0  0.72143072754E+02 -0.96065640854E+01 -0.98967594652E+02  0.14826087324E+03  0.83004775301E+02 0.  0.
          5    1    3    3  501    0  0.34314081244E+02  0.12976796712E+02 -0.41541076610E+03  0.41705401091E+03  0.47000000000E+01 0. -1.
        -13    1    4    4    0    0 -0.60376326604E+02  0.80817981459E+00 -0.18738562313E+03  0.19687388279E+03  0.00000000000E+00 0.  1.
         14    1    4    4    0    0 -0.68020944906E+01  0.56175651357E+02 -0.11885958890E+03  0.13164184049E+03  0.00000000000E+00 0. -1.
         -5    1    5    5    0  502 -0.39278732904E+02 -0.60354063798E+02 -0.15765680611E+03  0.17338739974E+03  0.47000000000E+01 0.  1.
         13    1    6    6    0    0 -0.17047804421E+02  0.85404686616E+01 -0.13127127090E+02  0.23149270101E+02  0.00000000000E+00 0. -1.
        -14    1    6    6    0    0  0.89190877176E+02 -0.18147032747E+02 -0.85840467562E+02  0.12511160314E+03  0.00000000000E+00 0.  1.
</event>
<event>
12    1  0.1061634E+000  0.1815376E+03  0.7818608E-02  0.1167899E+00
         21   -1    0    0  501  502  0.00000000000E+00  0.00000000000E+00  0.53144818649E+03  0.53144818649E+03  0.00000000000E+00 0.  1.
         21   -1    0    0  502  503 -0.00000000000E+00 -0.00000000000E+00 -0.65228760601E+02  0.65228760601E+02  0.00000000000E+00 0.  1.
         -6    2    1    2    0  503  0.37201553928E+02  0.49387916668E+02  0.14338034565E+03  0.22629746141E+03  0.16379711718E+03 0.  0.
        -24    2    3    3    0    0  0.35783199543E+02  0.75761139512E+02  0.41045855730E+02  0.12050522900E+03  0.76266377343E+02 0.  0.
          6    2    1    2  501    0 -0.37201553928E+02 -0.49387916668E+02  0.32283908023E+03  0.37037948567E+03  0.17068324392E+03 0.  0.
         24    2    5    5    0    0  0.32171745801E+02 -0.53992262289E+02  0.12724458504E+03  0.16274241947E+03  0.79647505023E+02 0.  0.
          5    1    5    5  501    0 -0.69373299729E+02  0.46043456210E+01  0.19559449519E+03  0.20763706621E+03  0.47000000000E+01 0. -1.
        -13    1    6    6    0    0  0.56910216620E+02 -0.22232771899E+02  0.73096335998E+02  0.95268794673E+02  0.00000000000E+00 0.  1.
         14    1    6    6    0    0 -0.24738470820E+02 -0.31759490390E+02  0.54148249043E+02  0.67473624793E+02  0.00000000000E+00 0. -1.
         -5    1    3    3    0  503  0.14183543857E+01 -0.26373222845E+02  0.10233448992E+03  0.10579223242E+03  0.47000000000E+01 0.  1.
         11    1    4    4    0    0  0.30388736358E+02  0.90949723193E+02  0.28373209041E+02  0.10000183217E+03  0.00000000000E+00 0. -1.
        -12    1    4    4    0    0  0.53944631842E+01 -0.15188583680E+02  0.12672646689E+02  0.20503396825E+02  0.00000000000E+00 0.  1.
</event>
<event>
12    1  0.1061634E+000  0.1955693E+03  0.7818608E-02  0.1153580E+00
         21   -1    0    0  503  502  0.00000000000E+00  0.00000000000E+00  0.14170883685E+03  0.14170883685E+03  0.00000000000E+00 0. -1.
         21   -1    0    0  501  503 -0.00000000000E+00 -0.00000000000E+00 -0.27155117166E+03  0.27155117166E+03  0.00000000000E+00 0. -1.
          6    2    1    2  501    0  0.66233108316E+02 -0.65641104673E+02 -0.82423391184E+02  0.21202406256E+03  0.17165374575E+03 0.  0.
         24    2    3    3    0    0  0.96783161194E+02 -0.96732171603E+01 -0.32752242307E+02  0.13106096483E+03  0.81508991556E+02 0.  0.
         -6    2    1    2    0  502 -0.66233108316E+02  0.65641104673E+02 -0.47418943620E+02  0.20123594595E+03  0.17190628397E+03 0.  0.
        -24    2    5    5    0    0 -0.15757384404E+02  0.10386777035E+03 -0.29780140377E+02  0.13533986069E+03  0.79957565305E+02 0.  0.
          5    1    3    3  501    0 -0.30550052879E+02 -0.55967887513E+02 -0.49671148877E+02  0.80963097732E+02  0.47000000000E+01 0. -1.
        -13    1    4    4    0    0  0.44933542001E+02  0.77571193999E+01 -0.55490744812E+02  0.71822133482E+02  0.00000000000E+00 0.  1.
         14    1    4    4    0    0  0.51849619193E+02 -0.17430336560E+02  0.22738502505E+02  0.59238831346E+02  0.00000000000E+00 0. -1.
         -5    1    5    5    0  502 -0.50475723911E+02 -0.38226665674E+02 -0.17638803243E+02  0.65896085261E+02  0.47000000000E+01 0.  1.
         11    1    6    6    0    0  0.15230534304E+02  0.98117928183E+02 -0.30317792136E+02  0.10381842575E+03  0.00000000000E+00 0. -1.
        -12    1    6    6    0    0 -0.30987918708E+02  0.57498421649E+01  0.53765175858E+00  0.31521434932E+02  0.00000000000E+00 0.  1.
</event>
<event>
12    1  0.1061634E+000  0.2010822E+03  0.7818608E-02  0.1149049E+00
         21   -1    0    0  501  502  0.00000000000E+00  0.00000000000E+00  0.37727950972E+02  0.37727950972E+02  0.00000000000E+00 0. -1.
         21   -1    0    0  502  503 -0.00000000000E+00 -0.00000000000E+00 -0.11388795157E+04  0.11388795157E+04  0.00000000000E+00 0. -1.
         -6    2    1    2    0  503 -0.59544985217E+02 -0.83811905634E+02 -0.40326634236E+03  0.45061936383E+03  0.17281211586E+03 0.  0.
        -24    2    3    3    0    0 -0.49096886438E+02  0.88364417101E+01 -0.15754243223E+03  0.18775968826E+03  0.89137509622E+02 0.  0.
          6    2    1    2  501    0  0.59544985217E+02  0.83811905634E+02 -0.69788522235E+03  0.72598810282E+03  0.17159516623E+03 0.  0.
         24    2    5    5    0    0  0.10008908982E+03  0.47255139941E+02 -0.58063224662E+03  0.59656410252E+03  0.80647681022E+02 0.  0.
          5    1    5    5  501    0 -0.40544104599E+02  0.36556765693E+02 -0.11725297573E+03  0.12942400030E+03  0.47000000000E+01 0. -1.
        -13    1    6    6    0    0  0.32203826324E+02  0.28946281167E+02 -0.79535997843E+02  0.90559088866E+02  0.00000000000E+00 0.  1.
         14    1    6    6    0    0  0.67885263492E+02  0.18308858774E+02 -0.50109624877E+03  0.50600501365E+03  0.00000000000E+00 0. -1.
         -5    1    3    3    0  503 -0.10448098779E+02 -0.92648347345E+02 -0.24572391013E+03  0.26285967557E+03  0.47000000000E+01 0.  1.
         11    1    4    4    0    0  0.11756270468E+02 -0.27867219129E+02 -0.58542487151E+02  0.65893964815E+02  0.00000000000E+00 0. -1.
        -12    1    4    4    0    0 -0.60853156906E+02  0.36703660839E+02 -0.98999945082E+02  0.12186572344E+03  0.00000000000E+00 0.  1.
</event>
<event>
12    1  0.1061634E+000  0.1766540E+03  0.7818608E-02  0.1171658E+00
         21   -1    0    0  503  502  0.00000000000E+00  0.00000000000E+00  0.13051910884E+03  0.13051910884E+03  0.00000000000E+00 0.  1.
         21   -1    0    0  501  503 -0.00000000000E+00 -0.00000000000E+00 -0.39805551121E+03  0.39805551121E+03  0.00000000000E+00 0.  1.
          6    2    1    2  501    0 -0.90325497295E+01 -0.29737100059E+02  0.35392533321E+02  0.17790017316E+03  0.17155161941E+03 0.  0.
         24    2    3    3    0    0 -0.37512423481E+02 -0.75008487659E+02 -0.11238047471E+01  0.11296840367E+03  0.75677884180E+02 0.  0.
         -6    2    1    2    0  502  0.90325497295E+01  0.29737100059E+02 -0.30292893569E+03  0.35067444689E+03  0.17389866459E+03 0.  0.
        -24    2    5    5    0    0  0.44089511465E+01  0.70573384002E+02 -0.28774698729E+03  0.30661129553E+03  0.78816980860E+02 0.  0.
          5    1    3    3  501    0  0.28479873751E+02  0.45271387600E+02  0.36516338068E+02  0.64931769497E+02  0.47000000000E+01 0. -1.
        -13    1    4    4    0    0 -0.29477323895E+02 -0.28029241728E+02 -0.35672311402E+02  0.54102355001E+02  0.00000000000E+00 0.  1.
         14    1    4    4    0    0 -0.80350995862E+01 -0.46979245931E+02  0.34548506655E+02  0.58866048667E+02  0.00000000000E+00 0. -1.
         -5    1    5    5    0  502  0.46235985830E+01 -0.40836283943E+02 -0.15181948396E+02  0.44063151354E+02  0.47000000000E+01 0.  1.
         13    1    6    6    0    0 -0.21732689267E+02  0.61813459155E+02 -0.12101154285E+03  0.13761179825E+03  0.00000000000E+00 0. -1.
        -14    1    6    6    0    0  0.26141640413E+02  0.87599248465E+01 -0.16673544445E+03  0.16899949728E+03  0.00000000000E+00 0.  1.
</event>
<event>
12    1  0.1061634E+000  0.1730690E+03  0.7818608E-02  0.1176130E+00
         21   -1    0    0  501  502  0.00000000000E+00  0.00000000000E+00  0.10742752438E+03  0.10742752438E+03  0.00000000000E+00 0. -1.
         21   -1    0    0  502  503 -0.00000000000E+00 -0.00000000000E+00 -0.37659206323E+03  0.37659206323E+03  0.00000000000E+00 0. -1.
         -6    2    1    2    0  503 -0.10652653116E+02  0.12730078728E+02 -0.42084136997E+01  0.16754744744E+03  0.16667004072E+03 0.  0.
        -24    2    3    3    0    0  0.36035894104E+02 -0.37386099321E+02  0.12820758726E+02  0.96811781348E+02  0.80695991643E+02 0.  0.
          6    2    1    2  501    0  0.10652653116E+02 -0.12730078728E+02 -0.26495612515E+03  0.31647214017E+03  0.17227110414E+03 0.  0.
         24    2    5    5    0    0  0.53005442299E+02  0.39321849444E+02 -0.17688258345E+03  0.20564704948E+03  0.81532054275E+02 0.  0.
          5    1    5    5  501    0 -0.42352789183E+02 -0.52051928172E+02 -0.88073541705E+02  0.11082509069E+03  0.47000000000E+01 0. -1.
        -11    1    6    6    0    0  0.13214929053E+02 -0.20538800227E+02 -0.88060112982E+02  0.91384135182E+02  0.00000000000E+00 0.  1.
         12    1    6    6    0    0  0.39790513246E+02  0.59860649671E+02 -0.88822470467E+02  0.11426291430E+03  0.00000000000E+00 0. -1.
         -5    1    3    3    0  503 -0.46688547221E+02  0.50116178049E+02 -0.17029172425E+02  0.70735666090E+02  0.47000000000E+01 0.  1.
         13    1    4    4    0    0  0.43978972564E+02 -0.12185220102E+02  0.38693104433E+02  0.59831312433E+02  0.00000000000E+00 0. -1.
        -14    1    4    4    0    0 -0.79430784601E+01 -0.25200879219E+02 -0.25872345707E+02  0.36980468916E+02  0.00000000000E+00 0.  1.
</event>
<event>
12    1  0.1061634E+000  0.2408677E+03  0.7818608E-02  0.1119408E+00
         21   -1    0    0  501  502  0.00000000000E+00  0.00000000000E+00  0.91776864096E+02  0.91776864096E+02  0.00000000000E+00 0.  1.
         21   -1    0    0  502  503 -0.00000000000E+00 -0.00000000000E+00 -0.65454587160E+03  0.65454587160E+03  0.00000000000E+00 0.  1.
         -6    2    1    2    0  503 -0.84425661974E+02 -0.14512574522E+03 -0.20850783579E+03  0.31857932864E+03  0.17270812582E+03 0.  0.
        -24    2    3    3    0    0 -0.17327781153E+02 -0.69849029634E+01 -0.10260913015E+03  0.13197374521E+03  0.80866525625E+02 0.  0.
          6    2    1    2  501    0  0.84425661974E+02  0.14512574522E+03 -0.35426117171E+03  0.42774340706E+03  0.17109725355E+03 0.  0.
         24    2    5    5    0    0  0.10195871433E+03  0.16711256386E+03 -0.30767685081E+03  0.37312640354E+03  0.78968855068E+02 0.  0.
          5    1    5    5  501    0 -0.17533052359E+02 -0.21986818637E+02 -0.46584320904E+02  0.54617003514E+02  0.47000000000E+01 0. -1.
        -13    1    6    6    0    0  0.34961292378E+02  0.66813586854E+01 -0.36338465118E+02  0.50866654753E+02  0.00000000000E+00 0.  1.
         14    1    6    6    0    0  0.66997421954E+02  0.16043120517E+03 -0.27133838569E+03  0.32225974879E+03  0.00000000000E+00 0. -1.
         -5    1    3    3    0  503 -0.67097880821E+02 -0.13814084226E+03 -0.10589870565E+03  0.18660558343E+03  0.47000000000E+01 0.  1.
         11    1    4    4    0    0 -0.40488039843E+02 -0.75615723431E+01 -0.10061687084E+03  0.10872080502E+03  0.00000000000E+00 0. -1.
        -12    1    4    4    0    0  0.23160258691E+02  0.57666937969E+00 -0.19922593013E+01  0.23252940187E+02  0.00000000000E+00 0.  1.
</event>
