<event>
12    1  0.8417180E-002  0.2272174E+03  0.7818608E-02  0.1128634E+00
         21   -1    0    0  503  502  0.00000000000E+00  0.00000000000E+00  0.16701177983E+04  0.16701177983E+04  0.00000000000E+00 0.  1.
         21   -1    0    0  501  503 -0.00000000000E+00 -0.00000000000E+00 -0.42093635593E+02  0.42093635593E+02  0.00000000000E+00 0. -1.
          6    2    1    2  501    0 -0.76481315114E+02 -0.12849899242E+03  0.12556898907E+04  0.12760818400E+04  0.17107418879E+03 0.  0.
         24    2    3    3    0    0 -0.45978071252E+02 -0.27739470740E+02  0.89991210326E+03  0.90502543842E+03  0.79660462678E+02 0.  0.
         -6    2    1    2    0  502  0.76481315114E+02  0.12849899242E+03  0.37233427197E+03  0.43612959389E+03  0.17092346231E+03 0.  0.
        -24    2    5    5    0    0  0.11762774301E+03  0.90681011397E+02  0.23451943809E+03  0.28734032461E+03  0.74200832540E+02 0.  0.
          5    1    3    3  501    0 -0.30503243862E+02 -0.10075952168E+03  0.35577778743E+03  0.37105640154E+03  0.47000000000E+01 0. -1.
        -13    1    4    4    0    0 -0.27803331472E+02  0.15123163069E+01  0.77365383021E+03  0.77415473992E+03  0.00000000000E+00 0.  1.
         14    1    4    4    0    0 -0.18174739780E+02 -0.29251787047E+02  0.12625827306E+03  0.13087069850E+03  0.00000000000E+00 0. -1.
         -5    1    5    5    0  502 -0.41146427892E+02  0.37817981023E+02  0.13781483387E+03  0.14878926928E+03  0.47000000000E+01 0.  1.
         13    1    6    6    0    0  0.29009103468E+02  0.46895379027E+02  0.36814073524E+02  0.66302192027E+02  0.00000000000E+00 0. -1.
        -14    1    6    6    0    0  0.88618639538E+02  0.43785632370E+02  0.19770536457E+03  0.22103813258E+03  0.00000000000E+00 0.  1.
</event>
<event>
12    1  0.8417180E-002  0.2703269E+03  0.7818608E-02  0.1103281E+00
         21   -1    0    0  501  502  0.00000000000E+00  0.00000000000E+00  0.52968036580E+02  0.52968036580E+02  0.00000000000E+00 0.  1.
         21   -1    0    0  502  503 -0.00000000000E+00 -0.00000000000E+00 -0.15966070113E+04  0.15966070113E+04  0.00000000000E+00 0. -1.
         -6    2    1    2    0  503  0.14718974704E+03  0.11725821741E+03 -0.11064653885E+04  0.11355737107E+04  0.17276482641E+03 0.  0.
        -24    2    3    3    0    0  0.10829011029E+03  0.28388596510E+02 -0.40089191100E+03  0.42334691154E+03  0.77302152651E+02 0.  0.
          6    2    1    2  501    0 -0.14718974704E+03 -0.11725821741E+03 -0.43717358623E+03  0.51400133722E+03  0.19406782056E+03 0.  0.
         24    2    5    5    0    0  0.69608676244E+01 -0.15450104648E+02 -0.11137504981E+03  0.13944282355E+03  0.82175056482E+02 0.  0.
          5    1    5    5  501    0 -0.15415061467E+03 -0.10180811276E+03 -0.32579853642E+03  0.37455851367E+03  0.47000000000E+01 0. -1.
        -11    1    6    6    0    0  0.15654471203E+02 -0.35370076038E+02 -0.11117078312E+03  0.11770746691E+03  0.00000000000E+00 0.  1.
         12    1    6    6    0    0 -0.86936035783E+01  0.19919971390E+02 -0.20426669194E+00  0.21735356640E+02  0.00000000000E+00 0. -1.
         -5    1    3    3    0  503  0.38899636751E+02  0.88869620899E+02 -0.70557347752E+03  0.71222679916E+03  0.47000000000E+01 0.  1.
         13    1    4    4    0    0 -0.10052317218E+02  0.13407201054E+02 -0.48830948338E+02  0.51626191387E+02  0.00000000000E+00 0. -1.
        -14    1    4    4    0    0  0.11834242751E+03  0.14981395456E+02 -0.35206096266E+03  0.37172072015E+03  0.00000000000E+00 0.  1.
</event>
<event>
12    1  0.8417180E-002  0.2020716E+03  0.7818608E-02  0.1148713E+00
         21   -1    0    0  501  502  0.00000000000E+00  0.00000000000E+00  0.29871352891E+03  0.29871352891E+03  0.00000000000E+00 0. -1.
         21   -1    0    0  502  503 -0.00000000000E+00 -0.00000000000E+00 -0.18488453912E+03  0.18488453912E+03  0.00000000000E+00 0.  1.
         -6    2    1    2    0  503 -0.96154240654E+02  0.26083606508E+02 -0.69761565463E+02  0.21058084054E+03  0.17190585174E+03 0.  0.
        -24    2    3    3    0    0 -0.80965156828E+02  0.65595027230E+02 -0.29832375615E+01  0.13137670105E+03  0.79955447937E+02 0.  0.
          6    2    1    2  501    0  0.96154240654E+02 -0.26083606508E+02  0.18359055526E+03  0.27301722749E+03  0.17580364615E+03 0.  0.
         24    2    5    5    0    0  0.46930270948E+02 -0.38608696693E+02  0.19672971804E+02  0.10134620127E+03  0.78682557791E+02 0.  0.
          5    1    5    5  501    0  0.49223969706E+02  0.12525090185E+02  0.16391758345E+03  0.17167102622E+03  0.47000000000E+01 0. -1.
        -11    1    6    6    0    0 -0.88767658936E+01  0.14817548852E+02 -0.83211449466E+01  0.19172850073E+02  0.00000000000E+00 0.  1.
         12    1    6    6    0    0  0.55807036842E+02 -0.53426245545E+02  0.27994116751E+02  0.82173351196E+02  0.00000000000E+00 0. -1.
         -5    1    3    3    0  503 -0.15189083827E+02 -0.39511420721E+02 -0.66778327902E+02  0.79204139489E+02  0.47000000000E+01 0.  1.
         11    1    4    4    0    0 -0.93427295526E+02  0.49756767124E+02  0.11622933582E+02  0.10648703212E+03  0.00000000000E+00 0. -1.
        -12    1    4    4    0    0  0.12462138698E+02  0.15838260105E+02 -0.14606171143E+02  0.24889668932E+02  0.00000000000E+00 0.  1.
</event>
<event>
12    1  0.8417180E-002  0.2636353E+03  0.7818608E-02  0.1105639E+00
         21   -1    0    0  503  502  0.00000000000E+00  0.00000000000E+00  0.15934125654E+04  0.15934125654E+04  0.00000000000E+00 0. -1.
         21   -1    0    0  501  503 -0.00000000000E+00 -0.00000000000E+00 -0.50672998376E+02  0.50672998376E+02  0.00000000000E+00 0. -1.
          6    2    1    2  501    0  0.19319406111E+03  0.24866150156E+02  0.44363308918E+03  0.51380302679E+03  0.17099988845E+03 0.  0.
         24    2    3    3    0    0  0.85215005975E+01  0.65096808575E+01  0.16600499546E+03  0.17982643630E+03  0.68300049464E+02 0.  0.
         -6    2    1    2    0  502 -0.19319406111E+03 -0.24866150156E+02  0.10991064778E+04  0.11302825370E+04  0.17765498333E+03 0.  0.
        -24    2    5    5    0    0 -0.14085808585E+03  0.92054749031E+01  0.99996426556E+03  0.10130170340E+04  0.79682103384E+02 0.  0.
          5    1    3    3  501    0  0.18467256052E+03  0.18356469298E+02  0.27762809372E+03  0.33397659049E+03  0.47000000000E+01 0. -1.
        -11    1    4    4    0    0  0.25240505344E+02  0.27542793300E+02  0.12759422780E+03  0.13295102685E+03  0.00000000000E+00 0.  1.
         12    1    4    4    0    0 -0.16719004746E+02 -0.21033112442E+02  0.38410767664E+02  0.46875409452E+02  0.00000000000E+00 0. -1.
         -5    1    5    5    0  502 -0.52335975263E+02 -0.34071625059E+02  0.99142212283E+02  0.11726550301E+03  0.47000000000E+01 0.  1.
         13    1    6    6    0    0 -0.22693457406E+02 -0.29841785146E+02  0.21325678011E+03  0.21652708702E+03  0.00000000000E+00 0. -1.
        -14    1    6    6    0    0 -0.11816462845E+03  0.39047260049E+02  0.78670748546E+03  0.79648994696E+03  0.00000000000E+00 0.  1.
</event>
<event>
12    1  0.8417180E-002  0.1770420E+03  0.7818608E-02  0.1170963E+00
         21   -1    0    0  503  502  0.00000000000E+00  0.00000000000E+00  0.38506993284E+02  0.38506993284E+02  0.00000000000E+00 0.  1.
         21   -1    0    0  501  503 -0.00000000000E+00 -0.00000000000E+00 -0.81437817512E+03  0.81437817512E+03  0.00000000000E+00 0.  1.
          6    2    1    2  501    0 -0.72458615940E+01 -0.36015733553E+02 -0.42122833598E+03  0.45650729522E+03  0.17209289347E+03 0.  0.
         24    2    3    3    0    0  0.21667389890E+02 -0.13294607316E+02 -0.93365503551E+02  0.12655524934E+03  0.81565259240E+02 0.  0.
         -6    2    1    2    0  502  0.72458615940E+01  0.36015733553E+02 -0.35464284586E+03  0.39637787319E+03  0.17318843686E+03 0.  0.
        -24    2    5    5    0    0 -0.52606762465E+02 -0.14116773325E+02 -0.22780144636E+03  0.24735963444E+03  0.79539518734E+02 0.  0.
          5    1    3    3  501    0 -0.28913251484E+02 -0.22721126237E+02 -0.32786283243E+03  0.32995204588E+03  0.47000000000E+01 0. -1.
        -11    1    4    4    0    0 -0.29908109527E+02  0.37157954662E+01 -0.24422615172E+02  0.38791317111E+02  0.00000000000E+00 0.  1.
         12    1    4    4    0    0  0.51575499416E+02 -0.17010402782E+02 -0.68942888379E+02  0.87763932232E+02  0.00000000000E+00 0. -1.
         -5    1    5    5    0  502  0.59852624059E+02  0.50132506878E+02 -0.12684139950E+03  0.14901823875E+03  0.47000000000E+01 0.  1.
         11    1    6    6    0    0 -0.21473488782E+02  0.32030179388E+02 -0.11984083675E+03  0.12589229232E+03  0.00000000000E+00 0. -1.
        -12    1    6    6    0    0 -0.31133273683E+02 -0.46146952713E+02 -0.10796060961E+03  0.12146734213E+03  0.00000000000E+00 0.  1.
</event>
<event>
12    1  0.8417180E-002  0.2181727E+03  0.7818608E-02  0.1135381E+00
         21   -1    0    0  501  502  0.00000000000E+00  0.00000000000E+00  0.76499145325E+03  0.76499145325E+03  0.00000000000E+00 0.  1.
         21   -1    0    0  502  503 -0.00000000000E+00 -0.00000000000E+00 -0.71026541888E+02  0.71026541888E+02  0.00000000000E+00 0. -1.
         -6    2    1    2    0  503 -0.47500752073E+02 -0.12507285728E+03  0.19772571509E+03  0.29393619630E+03  0.17147445295E+03 0.  0.
        -24    2    3    3    0    0  0.16790483016E+01 -0.11743459275E+03  0.20080101908E+03  0.24385083572E+03  0.73133289558E+02 0.  0.
          6    2    1    2  501    0  0.47500752073E+02  0.12507285728E+03  0.49623919627E+03  0.54208179884E+03  0.17233628648E+03 0.  0.
         24    2    5    5    0    0  0.13913288843E+02  0.14273800690E+03  0.46538685981E+03  0.49294798297E+03  0.76453033965E+02 0.  0.
          5    1    5    5  501    0  0.33587463230E+02 -0.17665149617E+02  0.30852336457E+02  0.49133815871E+02  0.47000000000E+01 0. -1.
        -13    1    6    6    0    0 -0.27033254639E+02  0.22902429530E+02  0.11766478796E+03  0.12288336120E+03  0.00000000000E+00 0.  1.
         14    1    6    6    0    0  0.40946543482E+02  0.11983557737E+03  0.34772207186E+03  0.37006462177E+03  0.00000000000E+00 0. -1.
         -5    1    3    3    0  503 -0.49179800375E+02 -0.76382645273E+01 -0.30753039877E+01  0.50085360581E+02  0.47000000000E+01 0.  1.
         11    1    4    4    0    0  0.28900540514E+02 -0.22564543434E+02  0.33820044608E+02  0.49881813115E+02  0.00000000000E+00 0. -1.
        -12    1    4    4    0    0 -0.27221492213E+02 -0.94870049317E+02  0.16698097447E+03  0.19396902261E+03  0.00000000000E+00 0.  1.
</event>
<event>
12    1  0.8417180E-002  0.1854282E+03  0.7818608E-02  0.1162992E+00
         21   -1    0    0  503  502  0.00000000000E+00  0.00000000000E+00  0.17390025580E+03  0.17390025580E+03  0.00000000000E+00 0. -1.
         21   -1    0    0  501  503 -0.00000000000E+00 -0.00000000000E+00 -0.29856295368E+03  0.29856295368E+03  0.00000000000E+00 0. -1.
          6    2    1    2  501    0 -0.33482206543E+02  0.58110440987E+02 -0.20051299804E+03  0.27212125525E+03  0.17130859193E+03 0.  0.
         24    2    3    3    0    0 -0.34688192886E+02 -0.22734712243E+02 -0.15476775248E+03  0.17910453259E+03  0.80032734045E+02 0.  0.
         -6    2    1    2    0  502  0.33482206543E+02 -0.58110440987E+02  0.75850300163E+02  0.20034195423E+03  0.17287495215E+03 0.  0.
        -24    2    5    5    0    0 -0.27011065725E+02  0.18628011324E+02  0.52639199262E+02  0.99798076951E+02  0.78180370853E+02 0.  0.
          5    1    3    3  501    0  0.12059863435E+01  0.80845153230E+02 -0.45745245559E+02  0.93016722664E+02  0.47000000000E+01 0. -1.
        -13    1    4    4    0    0 -0.12824492648E+02 -0.33481961353E+02 -0.17878585341E+02  0.40064362737E+02  0.00000000000E+00 0.  1.
         14    1    4    4    0    0 -0.21863700238E+02  0.10747249110E+02 -0.13688916714E+03  0.13904016985E+03  0.00000000000E+00 0. -1.
         -5    1    5    5    0  502  0.60493272268E+02 -0.76738452311E+02  0.23211100901E+02  0.10054387728E+03  0.47000000000E+01 0.  1.
         11    1    6    6    0    0  0.58347692918E+01 -0.17636286384E+02  0.47010113567E+02  0.50547343231E+02  0.00000000000E+00 0. -1.
        -12    1    6    6    0    0 -0.32845835017E+02  0.36264297708E+02  0.56290856949E+01  0.49250733720E+02  0.00000000000E+00 0.  1.
</event>
<event>
12    1  0.8417180E-002  0.3512513E+03  0.7818608E-02  0.1062163E+00
         21   -1    0    0  503  502  0.00000000000E+00  0.00000000000E+00  0.16306649048E+03  0.16306649048E+03  0.00000000000E+00 0.  1.
         21   -1    0    0  501  503 -0.00000000000E+00 -0.00000000000E+00 -0.12572349377E+04  0.12572349377E+04  0.00000000000E+00 0. -1.
          6    2    1    2  501    0  0.28221581442E+03 -0.11801702516E+03 -0.99605604374E+03  0.10561747436E+04  0.17263737311E+03 0.  0.
         24    2    3    3    0    0  0.24300924698E+03 -0.40330776412E+02 -0.66017125076E+03  0.70916899100E+03  0.80090647557E+02 0.  0.
         -6    2    1    2    0  502 -0.28221581442E+03  0.11801702516E+03 -0.98112403532E+02  0.36412668463E+03  0.17143049495E+03 0.  0.
        -24    2    5    5    0    0 -0.12292059789E+03  0.11913944113E+03 -0.29801730314E+02  0.19073503575E+03  0.78664038253E+02 0.  0.
          5    1    3    3  501    0  0.39206567442E+02 -0.77686248753E+02 -0.33588479298E+03  0.34700575259E+03  0.47000000000E+01 0. -1.
        -11    1    4    4    0    0  0.37835278588E+02 -0.74625253847E+01 -0.42047654620E+02  0.57054385019E+02  0.00000000000E+00 0.  1.
         12    1    4    4    0    0  0.20517396839E+03 -0.32868251027E+02 -0.61812359614E+03  0.65211460598E+03  0.00000000000E+00 0. -1.
         -5    1    5    5    0  502 -0.15929521653E+03 -0.11224159682E+01 -0.68310673217E+02  0.17339164888E+03  0.47000000000E+01 0.  1.
         13    1    6    6    0    0 -0.12822925658E+02  0.23796775873E+02 -0.35930755076E+02  0.44963686734E+02  0.00000000000E+00 0. -1.
        -14    1    6    6    0    0 -0.11009767223E+03  0.95342665260E+02  0.61290247618E+01  0.14577134902E+03  0.00000000000E+00 0.  1.
</event>
<event>
12    1  0.8417180E-002  0.1751887E+03  0.7818608E-02  0.1172572E+00
         21   -1    0    0  501  502  0.00000000000E+00  0.00000000000E+00  0.80103952275E+02  0.80103952275E+02  0.00000000000E+00 0. -1.
         21   -1    0    0  502  503 -0.00000000000E+00 -0.00000000000E+00 -0.51957146736E+03  0.51957146736E+03  0.00000000000E+00 0. -1.
         -6    2    1    2    0  503  0.13884029429E+02  0.27216032130E+02 -0.37347075627E+03  0.41246790028E+03  0.17238295825E+03 0.  0.
        -24    2    3    3    0    0 -0.49284371124E+02  0.69268809213E+01 -0.29502507334E+03  0.30961989760E+03  0.79672806986E+02 0.  0.
          6    2    1    2  501    0 -0.13884029429E+02 -0.27216032130E+02 -0.65996758814E+02  0.18720751935E+03  0.17250392590E+03 0.  0.
         24    2    5    5    0    0  0.51245430965E+02  0.62622054611E+01 -0.63536020143E+02  0.11378555916E+03  0.79025427595E+02 0.  0.
          5    1    5    5  501    0 -0.65129460394E+02 -0.33478237591E+02 -0.24607386709E+01  0.73421960191E+02  0.47000000000E+01 0. -1.
        -11    1    6    6    0    0 -0.44647759435E+01  0.29371093252E+02 -0.38136941371E+02  0.48342751682E+02  0.00000000000E+00 0.  1.
         12    1    6    6    0    0  0.55710206908E+02 -0.23108887791E+02 -0.25399078772E+02  0.65442807482E+02  0.00000000000E+00 0. -1.
         -5    1    3    3    0  503  0.63168400553E+02  0.20289151208E+02 -0.78445682935E+02  0.10284800269E+03  0.47000000000E+01 0.  1.
         11    1    4    4    0    0  0.19065945898E+02 -0.60870681782E+01 -0.11282852411E+03  0.11458987104E+03  0.00000000000E+00 0. -1.
        -12    1    4    4    0    0 -0.68350317022E+02  0.13013949100E+02 -0.18219654923E+03  0.19503002656E+03  0.00000000000E+00 0.  1.
</event>
<event>
12    1  0.8417180E-002  0.1936549E+03  0.7818608E-02  0.1159140E+00
         21   -1    0    0  503  502  0.00000000000E+00  0.00000000000E+00  0.22900775910E+04  0.22900775910E+04  0.00000000000E+00 0. -1.
         21   -1    0    0  501  503 -0.00000000000E+00 -0.00000000000E+00 -0.39313696244E+02  0.39313696244E+02  0.00000000000E+00 0.  1.
          6    2    1    2  501    0  0.84827153747E+02  0.14088358387E+02  0.22890764919E+03  0.29983482717E+03  0.17351681149E+03 0.  0.
         24    2    3    3    0    0 -0.24025532612E+02  0.35623142099E+00  0.10948841397E+03  0.13759881890E+03  0.79802061688E+02 0.  0.
         -6    2    1    2    0  502 -0.84827153747E+02 -0.14088358387E+02  0.20218562456E+04  0.20295564601E+04  0.15428097438E+03 0.  0.
        -24    2    5    5    0    0 -0.48143902386E+02  0.23788822444E+02  0.88169535222E+03  0.88816726507E+03  0.92577822462E+02 0.  0.
          5    1    3    3  501    0  0.10885268636E+03  0.13732126966E+02  0.11941923522E+03  0.16223600827E+03  0.47000000000E+01 0. -1.
        -13    1    4    4    0    0  0.11959988860E+02  0.32490182608E+02  0.38612158272E+02  0.51860891488E+02  0.00000000000E+00 0.  1.
         14    1    4    4    0    0 -0.35985521472E+02 -0.32133951187E+02  0.70876255701E+02  0.85737927410E+02  0.00000000000E+00 0. -1.
         -5    1    5    5    0  502 -0.36683251361E+02 -0.37877180831E+02  0.11401608934E+04  0.11413891950E+04  0.47000000000E+01 0.  1.
         13    1    6    6    0    0  0.13919609129E+02 -0.54071854432E+01  0.50864475128E+03  0.50886390733E+03  0.00000000000E+00 0. -1.
        -14    1    6    6    0    0 -0.62063511515E+02  0.29196007887E+02  0.37305060094E+03  0.37930335775E+03  0.00000000000E+00 0.  1.
</event>
<event>
12    1  0.8417180E-002  0.1799094E+03  0.7818608E-02  0.1169181E+00
         21   -1    0    0  501  502  0.00000000000E+00  0.00000000000E+00  0.55267232405E+03  0.55267232405E+03  0.00000000000E+00 0. -1.
         21   -1    0    0  502  503 -0.00000000000E+00 -0.00000000000E+00 -0.14719303046E+03  0.14719303046E+03  0.00000000000E+00 0. -1.
         -6    2    1    2    0  503  0.23022791549E+02  0.24901346644E+02 -0.72526382344E+02  0.18912392653E+03  0.17134076414E+03 0.  0.
        -24    2    3    3    0    0  0.59333313417E+02  0.47797189416E+02 -0.89790656576E+02  0.14261781103E+03  0.80451629050E+02 0.  0.
          6    2    1    2  501    0 -0.23022791549E+02 -0.24901346644E+02  0.47800567594E+03  0.51074142798E+03  0.17668405143E+03 0.  0.
         24    2    5    5    0    0 -0.16427911354E+01  0.51228233891E+02  0.19184250798E+03  0.21381674705E+03  0.79290748131E+02 0.  0.
          5    1    5    5  501    0 -0.21380000414E+02 -0.76129580536E+02  0.28616316796E+03  0.29692468093E+03  0.47000000000E+01 0. -1.
        -13    1    6    6    0    0  0.21800338073E+02  0.45264663899E+02  0.53565417544E+02  0.73439760992E+02  0.00000000000E+00 0.  1.
         14    1    6    6    0    0 -0.23443129208E+02  0.59635699923E+01  0.13827709044E+03  0.14037698606E+03  0.00000000000E+00 0. -1.
         -5    1    3    3    0  503 -0.36310521868E+02 -0.22895842772E+02  0.17264274232E+02  0.46506115504E+02  0.47000000000E+01 0.  1.
         13    1    4    4    0    0  0.47449075502E+02 -0.77460605328E+01 -0.64486683995E+02  0.80435990902E+02  0.00000000000E+00 0. -1.
        -14    1    4    4    0    0  0.11884237916E+02  0.55543249949E+02 -0.25303972581E+02  0.62181820125E+02  0.00000000000E+00 0.  1.
</event>
<event>
12    1  0.8417180E-002  0.2040341E+03  0.7818608E-02  0.1146729E+00
         21   -1    0    0  501  502  0.00000000000E+00  0.00000000000E+00  0.21855839562E+03  0.21855839562E+03  0.00000000000E+00 0. -1.
         21   -1    0    0  502  503 -0.00000000000E+00 -0.00000000000E+00 -0.29150392054E+03  0.29150392054E+03  0.00000000000E+00 0.  1.
         -6    2    1    2    0  503  0.46711342529E+02 -0.98439348144E+02 -0.18787597168E+03  0.27735769730E+03  0.17250407744E+03 0.  0.
        -24    2    3    3    0    0  0.35452487094E+02 -0.73283765582E+02 -0.20990240882E+03  0.24176529513E+03  0.88113832977E+02 0.  0.
          6    2    1    2  501    0 -0.46711342529E+02  0.98439348144E+02  0.11493044677E+03  0.23270461885E+03  0.17049978668E+03 0.  0.
         24    2    5    5    0    0  0.20082308469E+02 -0.10129900753E+00  0.52870090114E+02  0.98372088084E+02  0.80489203689E+02 0.  0.
          5    1    5    5  501    0 -0.66793650999E+02  0.98540647151E+02  0.62060356651E+02  0.13433253077E+03  0.47000000000E+01 0. -1.
        -11    1    6    6    0    0 -0.19406951622E+02  0.20996234138E+02 -0.64453130968E+00  0.28598724445E+02  0.00000000000E+00 0.  1.
         12    1    6    6    0    0  0.39489260092E+02 -0.21097533146E+02  0.53514621424E+02  0.69773363639E+02  0.00000000000E+00 0. -1.
         -5    1    3    3    0  503  0.11258855436E+02 -0.25155582562E+02  0.22026437134E+02  0.35592402175E+02  0.47000000000E+01 0.  1.
         11    1    4    4    0    0 -0.20078290793E+02 -0.32508372344E+02 -0.28341074690E+02  0.47572560876E+02  0.00000000000E+00 0. -1.
        -12    1    4    4    0    0  0.55530777887E+02 -0.40775393238E+02 -0.18156133413E+03  0.19419273425E+03  0.00000000000E+00 0.  1.
</event>
<event>
12    1  0.8417180E-002  0.1857707E+03  0.7818608E-02  0.1162767E+00
         21   -1    0    0  503  502  0.00000000000E+00  0.00000000000E+00  0.84235678205E+02  0.84235678205E+02  0.00000000000E+00 0. -1.
         21   -1    0    0  501  503 -0.00000000000E+00 -0.00000000000E+00 -0.79618519134E+03  0.79618519134E+03  0.00000000000E+00 0.  1.
          6    2    1    2  501    0 -0.66373602052E+02  0.52676057023E+01 -0.66338823946E+03  0.68840799599E+03  0.17143048146E+03 0.  0.
         24    2    3    3    0    0  0.13206007192E+02  0.28754639528E+02 -0.19841522710E+03  0.21606643823E+03  0.79466190697E+02 0.  0.
         -6    2    1    2    0  502  0.66373602052E+02 -0.52676057023E+01 -0.48561273677E+02  0.19201287356E+03  0.17342878536E+03 0.  0.
        -24    2    5    5    0    0  0.74993143482E+02 -0.56996306007E+02 -0.61395558708E+02  0.13781911190E+03  0.79700329417E+02 0.  0.
          5    1    3    3  501    0 -0.79579609244E+02 -0.23487033825E+02 -0.46497301236E+03  0.47234155776E+03  0.47000000000E+01 0. -1.
        -13    1    4    4    0    0  0.19758853517E+01  0.21889480147E+02 -0.20137881483E+03  0.20257462953E+03  0.00000000000E+00 0.  1.
         14    1    4    4    0    0  0.11230121840E+02  0.68651593805E+01  0.29635877329E+01  0.13491808704E+02  0.00000000000E+00 0. -1.
         -5    1    5    5    0  502 -0.86195414299E+01  0.51728700305E+02  0.12834285031E+02  0.54193761651E+02  0.47000000000E+01 0.  1.
         11    1    6    6    0    0  0.74589575894E+02 -0.49027353723E+02 -0.14718566635E+02  0.90465034399E+02  0.00000000000E+00 0. -1.
        -12    1    6    6    0    0  0.40356758786E+00 -0.79689522844E+01 -0.46676992074E+02  0.47354077505E+02  0.00000000000E+00 0.  1.
</event>
<event>
12    1  0.8417180E-002  0.1921265E+03  0.7818608E-02  0.1157353E+00
         21   -1    0    0  501  502  0.00000000000E+00  0.00000000000E+00  0.22993148282E+03  0.22993148282E+03  0.00000000000E+00 0. -1.
         21   -1    0    0  502  503 -0.00000000000E+00 -0.00000000000E+00 -0.18539413982E+03  0.18539413982E+03  0.00000000000E+00 0. -1.
         -6    2    1    2    0  503  0.38413643706E+02  0.74169158690E+02 -0.58326541449E+02  0.19739542827E+03  0.16907482823E+03 0.  0.
        -24    2    3    3    0    0 -0.12186717486E+02  0.79233234688E+02 -0.83391763780E+02  0.14050609017E+03  0.79758093924E+02 0.  0.
          6    2    1    2  501    0 -0.38413643706E+02 -0.74169158690E+02  0.10286388445E+03  0.21793019438E+03  0.17301999530E+03 0.  0.
         24    2    5    5    0    0 -0.81834421236E+02 -0.77014247031E+02  0.46200272362E+02  0.14633191658E+03  0.81550584916E+02 0.  0.
          5    1    5    5  501    0  0.43420777529E+02  0.28450883411E+01  0.56663612083E+02  0.71598277795E+02  0.47000000000E+01 0. -1.
        -13    1    6    6    0    0 -0.52845322036E+02 -0.28928164208E+02 -0.16203721095E+02  0.62386114824E+02  0.00000000000E+00 0.  1.
         14    1    6    6    0    0 -0.28989099200E+02 -0.48086082823E+02  0.62403993457E+02  0.83945801760E+02  0.00000000000E+00 0. -1.
         -5    1    3    3    0  503  0.50600361192E+02 -0.50640759976E+01  0.25065222331E+02  0.56889338096E+02  0.47000000000E+01 0.  1.
         11    1    4    4    0    0 -0.43102583285E+02  0.58349943608E+02 -0.70160917761E+02  0.10092127123E+03  0.00000000000E+00 0. -1.
        -12    1    4    4    0    0  0.30915865799E+02  0.20883291080E+02 -0.13230846019E+02  0.39584818944E+02  0.00000000000E+00 0.  1.
</event>
<event>
12    1  0.8417180E-002  0.3161164E+03  0.7818608E-02  0.1077509E+00
         21   -1    0    0  501  502  0.00000000000E+00  0.00000000000E+00  0.13410254565E+03  0.13410254565E+03  0.00000000000E+00 0.  1.
         21   -1    0    0  502  503 -0.00000000000E+00 -0.00000000000E+00 -0.85414881031E+03  0.85414881031E+03  0.00000000000E+00 0.  1.
         -6    2    1    2    0  503  0.25349892886E+03  0.78703158398E+02 -0.53771818537E+03  0.62375508356E+03  0.17167895418E+03 0.  0.
        -24    2    3    3    0    0  0.82023804450E+02 -0.22155684450E+02 -0.22367063258E+03  0.25196995760E+03  0.79003346778E+02 0.  0.
          6    2    1    2  501    0 -0.25349892886E+03 -0.78703158398E+02 -0.18232807929E+03  0.36449627240E+03  0.17075745963E+03 0.  0.
         24    2    5    5    0    0 -0.24069464359E+03 -0.17037564132E+02 -0.12864541310E+03  0.28160770934E+03  0.67298362559E+02 0.  0.
          5    1    5    5  501    0 -0.12804285272E+02 -0.61665594266E+02 -0.53682666182E+02  0.82888563059E+02  0.47000000000E+01 0. -1.
        -13    1    6    6    0    0 -0.10961836166E+03 -0.40323831265E+02 -0.50604362396E+02  0.12729099761E+03  0.00000000000E+00 0.  1.
         14    1    6    6    0    0 -0.13107628193E+03  0.23286267133E+02 -0.78041050708E+02  0.15431671173E+03  0.00000000000E+00 0. -1.
         -5    1    3    3    0  503  0.17147512441E+03  0.10085884285E+03 -0.31404755279E+03  0.37178512596E+03  0.47000000000E+01 0.  1.
         11    1    4    4    0    0  0.47662987920E+02 -0.70079761005E+00 -0.19880095437E+03  0.20443598263E+03  0.00000000000E+00 0. -1.
        -12    1    4    4    0    0  0.34360816530E+02 -0.21454886840E+02 -0.24869678211E+02  0.47533974968E+02  0.00000000000E+00 0.  1.
</event>
<event>
12    1  0.8417180E-002  0.1928937E+03  0.7818608E-02  0.1156347E+00
         21   -1    0    0  501  502  0.00000000000E+00  0.00000000000E+00  0.45316964207E+02  0.45316964207E+02  0.00000000000E+00 0. -1.
         21   -1    0    0  502  503 -0.00000000000E+00 -0.00000000000E+00 -0.95835446699E+03  0.95835446699E+03  0.00000000000E+00 0.  1.
         -6    2    1    2    0  503 -0.82120970565E+02  0.34698891375E+02 -0.65043719543E+03  0.67783879271E+03  0.16866836346E+03 0.  0.
        -24    2    3    3    0    0  0.48437825522E+01  0.48782610317E+02 -0.43992393884E+03  0.44958643100E+03  0.78687239613E+02 0.  0.
          6    2    1    2  501    0  0.82120970565E+02 -0.34698891375E+02 -0.26260030735E+03  0.32583263849E+03  0.17105589734E+03 0.  0.
         24    2    5    5    0    0  0.25666193407E+02 -0.63289513220E+02 -0.23236547954E+03  0.25554181167E+03  0.81508192615E+02 0.  0.
          5    1    5    5  501    0  0.56454777159E+02  0.28590621844E+02 -0.30234827810E+02  0.70290826814E+02  0.47000000000E+01 0. -1.
        -13    1    6    6    0    0  0.34890049973E+02  0.61726428316E+01 -0.93740639411E+02  0.10021339523E+03  0.00000000000E+00 0.  1.
         14    1    6    6    0    0 -0.92238565663E+01 -0.69462156051E+02 -0.13862484013E+03  0.15532841644E+03  0.00000000000E+00 0. -1.
         -5    1    3    3    0  503 -0.86964753118E+02 -0.14083718942E+02 -0.21051325659E+03  0.22825236170E+03  0.47000000000E+01 0.  1.
         11    1    4    4    0    0  0.16925777502E+02 -0.17902077979E+02 -0.10191898404E+03  0.10485440214E+03  0.00000000000E+00 0. -1.
        -12    1    4    4    0    0 -0.12081994950E+02  0.66684688297E+02 -0.33800495480E+03  0.34473202887E+03  0.00000000000E+00 0.  1.
</event>
<event>
12    1  0.8417180E-002  0.1945978E+03  0.7818608E-02  0.1154559E+00
         21   -1    0    0  501  502  0.00000000000E+00  0.00000000000E+00  0.12531399639E+03  0.12531399639E+03  0.00000000000E+00 0.  1.
         21   -1    0    0  502  503 -0.00000000000E+00 -0.00000000000E+00 -0.23323481315E+04  0.23323481315E+04  0.00000000000E+00 0.  1.
         -6    2    1    2    0  503 -0.66897435550E+02 -0.63188669258E+02 -0.22500404114E+04  0.22583687828E+04  0.17052750904E+03 0.  0.
        -24    2    3    3    0    0 -0.65021185102E+01 -0.13931260880E+02 -0.50603401898E+03  0.51261557188E+03  0.80423495284E+02 0.  0.
          6    2    1    2  501    0  0.66897435550E+02  0.63188669258E+02  0.43006276333E+02  0.19929334506E+03  0.17146493162E+03 0.  0.
         24    2    5    5    0    0  0.97875581168E+02  0.18397300552E+02  0.30724618900E+01  0.13159761586E+03  0.85967449773E+02 0.  0.
          5    1    5    5  501    0 -0.30978145617E+02  0.44791368706E+02  0.39933814443E+02  0.67695729204E+02  0.47000000000E+01 0. -1.
        -13    1    6    6    0    0 -0.11058865824E+02 -0.67934594953E+01  0.14198073117E+02  0.19236290845E+02  0.00000000000E+00 0.  1.
         14    1    6    6    0    0  0.10893444699E+03  0.25190760047E+02 -0.11125611227E+02  0.11236132501E+03  0.00000000000E+00 0. -1.
         -5    1    3    3    0  503 -0.60395317040E+02 -0.49257408377E+02 -0.17440063925E+04  0.17457532110E+04  0.47000000000E+01 0.  1.
         11    1    4    4    0    0 -0.11176246843E+02  0.31783399376E+02 -0.15734746105E+03  0.16091400333E+03  0.00000000000E+00 0. -1.
        -12    1    4    4    0    0  0.46741283329E+01 -0.45714660256E+02 -0.34868655793E+03  0.35170156854E+03  0.00000000000E+00 0.  1.
</event>
<event>
12    1  0.8417180E-002  0.1885913E+03  0.7818608E-02  0.1160825E+00
         21   -1    0    0  503  502  0.00000000000E+00  0.00000000000E+00  0.45322640555E+03  0.45322640555E+03  0.00000000000E+00 0. -1.
         21   -1    0    0  501  503 -0.00000000000E+00 -0.00000000000E+00 -0.25355539900E+03  0.25355539900E+03  0.00000000000E+00 0. -1.
          6    2    1    2  501    0  0.67142674923E+02 -0.35986606301E+02 -0.19582337506E+03  0.26862376398E+03  0.16735817197E+03 0.  0.
         24    2    3    3    0    0  0.65791739772E+02 -0.70988699893E+02 -0.82083675275E+02  0.14951968811E+03  0.79059843483E+02 0.  0.
         -6    2    1    2    0  502 -0.67142674923E+02  0.35986606301E+02  0.39549438161E+03  0.43815804057E+03  0.17252097846E+03 0.  0.
        -24    2    5    5    0    0 -0.17568384793E+02 -0.42238944356E+02  0.14907170394E+03  0.17486528890E+03  0.79137347569E+02 0.  0.
          5    1    3    3  501    0  0.13509351517E+01  0.35002093592E+02 -0.11373969978E+03  0.11910407587E+03  0.47000000000E+01 0. -1.
        -13    1    4    4    0    0  0.60483200464E+02 -0.20069252903E+02 -0.15597906584E+02  0.65607066238E+02  0.00000000000E+00 0.  1.
         14    1    4    4    0    0  0.53085393074E+01 -0.50919446990E+02 -0.66485768690E+02  0.83912621874E+02  0.00000000000E+00 0. -1.
         -5    1    5    5    0  502 -0.49574290131E+02  0.78225550657E+02  0.24642267766E+03  0.26329275168E+03  0.47000000000E+01 0.  1.
         11    1    6    6    0    0  0.84944252081E+01 -0.21515294638E+02  0.13777520912E+03  0.13970351252E+03  0.00000000000E+00 0. -1.
        -12    1    6    6    0    0 -0.26062810001E+02 -0.20723649719E+02  0.11296494828E+02  0.35161776380E+02  0.00000000000E+00 0.  1.
</event>
<event>
12    1  0.8417180E-002  0.1745153E+03  0.7818608E-02  0.1173722E+00
         21   -1    0    0  501  502  0.00000000000E+00  0.00000000000E+00  0.19962144007E+04  0.19962144007E+04  0.00000000000E+00 0. -1.
         21   -1    0    0  502  503 -0.00000000000E+00 -0.00000000000E+00 -0.15165220780E+02  0.15165220780E+02  0.00000000000E+00 0. -1.
         -6    2    1    2    0  503 -0.21632337906E+02  0.40409331880E+01  0.91112004070E+03  0.92731138237E+03  0.17112096340E+03 0.  0.
        -24    2    3    3    0    0 -0.72761654699E+02 -0.15508463956E+02  0.46194982135E+03  0.47479357950E+03  0.80601084579E+02 0.  0.
          6    2    1    2  501    0  0.21632337906E+02 -0.40409331880E+01  0.10699291392E+04  0.10840682391E+04  0.17312220227E+03 0.  0.
         24    2    5    5    0    0  0.43221597778E+01  0.10824375260E+02  0.23017400015E+03  0.24399002653E+03  0.80095034406E+02 0.  0.
          5    1    5    5  501    0  0.17310178128E+02 -0.14865308448E+02  0.83975513906E+03  0.84007821257E+03  0.47000000000E+01 0. -1.
        -11    1    6    6    0    0 -0.19177569374E+02 -0.26525069071E+02  0.61838122218E+02  0.69966504956E+02  0.00000000000E+00 0.  1.
         12    1    6    6    0    0  0.23499729152E+02  0.37349444331E+02  0.16833587793E+03  0.17402352158E+03  0.00000000000E+00 0. -1.
         -5    1    3    3    0  503  0.51129316794E+02  0.19549397144E+02  0.44917021935E+03  0.45251780287E+03  0.47000000000E+01 0.  1.
         13    1    4    4    0    0 -0.42209974539E+02 -0.11599053583E+01  0.72625751574E+02  0.84009089524E+02  0.00000000000E+00 0. -1.
        -14    1    4    4    0    0 -0.30551680161E+02 -0.14348558598E+02  0.38932406978E+03  0.39078448997E+03  0.00000000000E+00 0.  1.
</event>
<event>
12    1  0.8417180E-002  0.1806729E+03  0.7818608E-02  0.1167819E+00
         21   -1    0    0  503  502  0.00000000000E+00  0.00000000000E+00  0.20869888125E+02  0.20869888125E+02  0.00000000000E+00 0.  1.
         21   -1    0    0  501  503 -0.00000000000E+00 -0.00000000000E+00 -0.25355013035E+04  0.25355013035E+04  0.00000000000E+00 0.  1.
          6    2    1    2  501    0  0.20220956796E+02  0.55610910438E+02 -0.20521822198E+04  0.20598815446E+04  0.16780540562E+03 0.  0.
         24    2    3    3    0    0 -0.45276803374E+01  0.19559849960E+02 -0.18913301028E+04  0.18931252328E+04  0.79940612573E+02 0.  0.
         -6    2    1    2    0  502 -0.20220956796E+02 -0.55610910438E+02 -0.46244919555E+03  0.49648964698E+03  0.17070808604E+03 0.  0.
        -24    2    5    5    0    0  0.25803975235E+00  0.18744598871E+02 -0.12643911933E+03  0.15171001825E+03  0.81716902593E+02 0.  0.
          5    1    3    3  501    0  0.24748637133E+02  0.36051060478E+02 -0.16085211697E+03  0.16675631183E+03  0.47000000000E+01 0. -1.
        -11    1    4    4    0    0  0.35695138551E+02  0.21146365763E+02 -0.83834940453E+03  0.83937538430E+03  0.00000000000E+00 0.  1.
         12    1    4    4    0    0 -0.40222818888E+02 -0.15865158036E+01 -0.10529806983E+04  0.10537498485E+04  0.00000000000E+00 0. -1.
         -5    1    5    5    0  502 -0.20478996548E+02 -0.74355509308E+02 -0.33601007622E+03  0.34477962873E+03  0.47000000000E+01 0.  1.
         13    1    6    6    0    0  0.15617418920E+02 -0.25909149364E+02 -0.79789016781E+02  0.85331559187E+02  0.00000000000E+00 0. -1.
        -14    1    6    6    0    0 -0.15359379167E+02  0.44653748235E+02 -0.46650102549E+02  0.66378459064E+02  0.00000000000E+00 0.  1.
</event>
<event>
12    1  0.8417180E-002  0.1920425E+03  0.7818608E-02  0.1156710E+00
         21   -1    0    0  501  502  0.00000000000E+00  0.00000000000E+00  0.95330027541E+03  0.95330027541E+03  0.00000000000E+00 0.  1.
         21   -1    0    0  502  503 -0.00000000000E+00 -0.00000000000E+00 -0.65655501034E+02  0.65655501034E+02  0.00000000000E+00 0. -1.
         -6    2    1    2    0  503 -0.37205324311E+01  0.84318651705E+02  0.11710706511E+03  0.22493193085E+03  0.17250168530E+03 0.  0.
        -24    2    3    3    0    0  0.62661379607E+02  0.58471426279E+02  0.85928448754E+02  0.14702921315E+03  0.82997198919E+02 0.  0.
          6    2    1    2  501    0  0.37205324311E+01 -0.84318651705E+02  0.77053770926E+03  0.79402384559E+03  0.17211051269E+03 0.  0.
         24    2    5    5    0    0 -0.30640872738E+02  0.62814498856E+01  0.24726405621E+03  0.26183356895E+03  0.80243284071E+02 0.  0.
          5    1    5    5  501    0  0.34361405169E+02 -0.90600101590E+02  0.52327365305E+03  0.53219027664E+03  0.47000000000E+01 0. -1.
        -13    1    6    6    0    0  0.77124193671E+01 -0.25600043759E+02  0.15169865279E+03  0.15403676480E+03  0.00000000000E+00 0.  1.
         14    1    6    6    0    0 -0.38353292105E+02  0.31881493645E+02  0.95565403421E+02  0.10779680414E+03  0.00000000000E+00 0. -1.
         -5    1    3    3    0  503 -0.66381912038E+02  0.25847225425E+02  0.31178616355E+02  0.77902717705E+02  0.47000000000E+01 0.  1.
         11    1    4    4    0    0  0.59353162301E+01 -0.19135814152E+02  0.33743992833E+01  0.20317330842E+02  0.00000000000E+00 0. -1.
        -12    1    4    4    0    0  0.56726063376E+02  0.77607240431E+02  0.82554049470E+02  0.12671188231E+03  0.00000000000E+00 0.  1.
</event>
<event>
12    1  0.8417180E-002  0.1861993E+03  0.7818608E-02  0.1163432E+00
         21   -1    0    0  501  502  0.00000000000E+00  0.00000000000E+00  0.28874453048E+03  0.28874453048E+03  0.00000000000E+00 0.  1.
         21   -1    0    0  502  503 -0.00000000000E+00 -0.00000000000E+00 -0.12610536110E+03  0.12610536110E+03  0.00000000000E+00 0.  1.
         -6    2    1    2    0  503  0.48930208459E+02 -0.17747292988E+02  0.21345750133E+02  0.18111067033E+03  0.17215197399E+03 0.  0.
        -24    2    3    3    0    0  0.49043900915E+02  0.34932674872E+02  0.59790244788E+02  0.11572518945E+03  0.78688309880E+02 0.  0.
          6    2    1    2  501    0 -0.48930208459E+02  0.17747292988E+02  0.14129341924E+03  0.23373922125E+03  0.17877656872E+03 0.  0.
         24    2    5    5    0    0 -0.91983250810E+02  0.11150843168E+02  0.14875440070E+03  0.18930011854E+03  0.71563981280E+02 0.  0.
          5    1    5    5  501    0  0.43053042351E+02  0.65964498207E+01 -0.74609814615E+01  0.44439102717E+02  0.47000000000E+01 0. -1.
        -13    1    6    6    0    0 -0.73763453734E+02 -0.33877414208E+01  0.53370698605E+02  0.91109578905E+02  0.00000000000E+00 0.  1.
         14    1    6    6    0    0 -0.18219797077E+02  0.14538584588E+02  0.95383702098E+02  0.98190539633E+02  0.00000000000E+00 0. -1.
         -5    1    3    3    0  503 -0.11369245532E+00 -0.52679967860E+02 -0.38444494655E+02  0.65385480873E+02  0.47000000000E+01 0.  1.
         13    1    4    4    0    0  0.30104208322E+02  0.54388508465E+02  0.15983283271E+02  0.64185968528E+02  0.00000000000E+00 0. -1.
        -14    1    4    4    0    0  0.18939692593E+02 -0.19455833593E+02  0.43806961517E+02  0.51539220926E+02  0.00000000000E+00 0.  1.
</event>
<event>
12    1  0.8417180E-002  0.3663166E+03  0.7818608E-02  0.1056134E+00
         21   -1    0    0  501  502  0.00000000000E+00  0.00000000000E+00  0.23473643386E+03  0.23473643386E+03  0.00000000000E+00 0. -1.
         21   -1    0    0  502  503 -0.00000000000E+00 -0.00000000000E+00 -0.71720304787E+03  0.71720304787E+03  0.00000000000E+00 0.  1.
         -6    2    1    2    0  503  0.32414056628E+03 -0.15231025612E+02 -0.45600087164E+03  0.58491422207E+03  0.16996694208E+03 0.  0.
        -24    2    3    3    0    0  0.14024400361E+03 -0.67825103335E+02 -0.24098803913E+03  0.29710058286E+03  0.76973346954E+02 0.  0.
          6    2    1    2  501    0 -0.32414056628E+03  0.15231025612E+02 -0.26465742370E+02  0.36702525966E+03  0.16943439693E+03 0.  0.
         24    2    5    5    0    0 -0.15154103521E+03  0.24789951266E+02 -0.73025584603E+02  0.18793902319E+03  0.80056938463E+02 0.  0.
          5    1    5    5  501    0 -0.17259953107E+03 -0.95589256540E+01  0.46559842233E+02  0.17908623647E+03  0.47000000000E+01 0. -1.
        -11    1    6    6    0    0 -0.15104304948E+03  0.77391114500E+01 -0.50017709176E+02  0.15929741954E+03  0.00000000000E+00 0.  1.
         12    1    6    6    0    0 -0.49798573552E+00  0.17050839816E+02 -0.23007875427E+02  0.28641603654E+02  0.00000000000E+00 0. -1.
         -5    1    3    3    0  503  0.18389656267E+03  0.52594077723E+02 -0.21501283251E+03  0.28781363921E+03  0.47000000000E+01 0.  1.
         13    1    4    4    0    0  0.99344894219E+02 -0.12748127750E+02 -0.10695140385E+03  0.14652824149E+03  0.00000000000E+00 0. -1.
        -14    1    4    4    0    0  0.40899109387E+02 -0.55076975585E+02 -0.13403663528E+03  0.15057234137E+03  0.00000000000E+00 0.  1.
</event>
<event>
12    1  0.8417180E-002  0.2113176E+03  0.7818608E-02  0.1140648E+00
         21   -1    0    0  503  502  0.00000000000E+00  0.00000000000E+00  0.76301411945E+02  0.76301411945E+02  0.00000000000E+00 0. -1.
         21   -1    0    0  501  503 -0.00000000000E+00 -0.00000000000E+00 -0.69021067675E+03  0.69021067675E+03  0.00000000000E+00 0.  1.
          6    2    1    2  501    0  0.11629515489E+03 -0.40435618230E+02 -0.45799650935E+03  0.50439658549E+03  0.17174257076E+03 0.  0.
         24    2    3    3    0    0  0.62413190411E+02 -0.59104666958E+02 -0.40368576688E+03  0.42550712978E+03  0.10346666668E+03 0.  0.
         -6    2    1    2    0  502 -0.11629515489E+03  0.40435618230E+02 -0.15591275546E+03  0.26211550320E+03  0.17098581062E+03 0.  0.
        -24    2    5    5    0    0 -0.12343106743E+03  0.66525056135E+02 -0.74445083054E+02  0.17614660380E+03  0.76320011389E+02 0.  0.
          5    1    3    3  501    0  0.53881964477E+02  0.18669048728E+02 -0.54310742464E+02  0.78889455717E+02  0.47000000000E+01 0. -1.
        -13    1    4    4    0    0  0.58597692347E+02 -0.86896216318E+02 -0.28828130989E+03  0.30674216468E+03  0.00000000000E+00 0.  1.
         14    1    4    4    0    0  0.38154980639E+01  0.27791549360E+02 -0.11540445699E+03  0.11876496510E+03  0.00000000000E+00 0. -1.
         -5    1    5    5    0  502  0.71359125394E+01 -0.26089437905E+02 -0.81467672405E+02  0.85968899406E+02  0.47000000000E+01 0.  1.
         11    1    6    6    0    0 -0.19837126366E+02 -0.17181664303E+02 -0.15692980349E+02  0.30577619315E+02  0.00000000000E+00 0. -1.
        -12    1    6    6    0    0 -0.10359394106E+03  0.83706720438E+02 -0.58752102705E+02  0.14556898448E+03  0.00000000000E+00 0.  1.
</event>
<event>
12    1  0.8417180E-002  0.1923791E+03  0.7818608E-02  0.1157637E+00
         21   -1    0    0  501  502  0.00000000000E+00  0.00000000000E+00  0.33760867096E+03  0.33760867096E+03  0.00000000000E+00 0.  1.
         21   -1    0    0  502  503 -0.00000000000E+00 -0.00000000000E+00 -0.16165575991E+03  0.16165575991E+03  0.00000000000E+00 0.  1.
         -6    2    1    2    0  503  0.72729992816E+02 -0.13846502436E+02 -0.57138606942E+02  0.20068521422E+03  0.17756226322E+03 0.  0.
        -24    2    3    3    0    0  0.81665471295E+02  0.99096584297E+01  0.22632734466E+02  0.11684158080E+03  0.79826460547E+02 0.  0.
          6    2    1    2  501    0 -0.72729992816E+02  0.13846502436E+02  0.23309151799E+03  0.29857921665E+03  0.17127905701E+03 0.  0.
         24    2    5    5    0    0 -0.11172682739E+03  0.32597134069E+02  0.19585615246E+03  0.24130006041E+03  0.79502387333E+02 0.  0.
          5    1    5    5  501    0  0.38996834569E+02 -0.18750631633E+02  0.37235365528E+02  0.57279156235E+02  0.47000000000E+01 0. -1.
        -13    1    6    6    0    0 -0.23255376554E+02 -0.16751206617E+02  0.91402372238E+02  0.95790443743E+02  0.00000000000E+00 0.  1.
         14    1    6    6    0    0 -0.88471450831E+02  0.49348340686E+02  0.10445378022E+03  0.14550961667E+03  0.00000000000E+00 0. -1.
         -5    1    3    3    0  503 -0.89354784789E+01 -0.23756160866E+02 -0.79771341409E+02  0.83843633419E+02  0.47000000000E+01 0.  1.
         13    1    4    4    0    0  0.65656016101E+02 -0.10640619804E+02 -0.17700052746E+02  0.68827517079E+02  0.00000000000E+00 0. -1.
        -14    1    4    4    0    0  0.16009455195E+02  0.20550278234E+02  0.40332787213E+02  0.48014063726E+02  0.00000000000E+00 0.  1.
</event>
<event>
12    1  0.8417180E-002  0.2461958E+03  0.7818608E-02  0.1115756E+00
         21   -1    0    0  501  502  0.00000000000E+00  0.00000000000E+00  0.21928132890E+04  0.21928132890E+04  0.00000000000E+00 0. -1.
         21   -1    0    0  502  503 -0.00000000000E+00 -0.00000000000E+00 -0.30204365335E+02  0.30204365335E+02  0.00000000000E+00 0.  1.
         -6    2    1    2    0  503  0.97505697607E+02 -0.14649191745E+03  0.14063643941E+04  0.14277511000E+04  0.17217767513E+03 0.  0.
        -24    2    3    3    0    0  0.10329513491E+03 -0.11702752739E+03  0.73484724615E+03  0.75554648995E+03  0.80527611706E+02 0.  0.
          6    2    1    2  501    0 -0.97505697607E+02  0.14649191745E+03  0.75624452959E+03  0.79526655429E+03  0.17197633818E+03 0.  0.
         24    2    5    5    0    0  0.20531453512E+01  0.19873154993E+02  0.31524326184E+03  0.32574713789E+03  0.79584709679E+02 0.  0.
          5    1    5    5  501    0 -0.99558842958E+02  0.12661876246E+03  0.44100126776E+03  0.46951941640E+03  0.47000000000E+01 0. -1.
        -13    1    6    6    0    0  0.20990726626E+02  0.43939325371E+02  0.23185456600E+03  0.23691309523E+03  0.00000000000E+00 0.  1.
         14    1    6    6    0    0 -0.18937581274E+02 -0.24066170378E+02  0.83388695838E+02  0.88834042657E+02  0.00000000000E+00 0. -1.
         -5    1    3    3    0  503 -0.57894373079E+01 -0.29464390059E+02  0.67151714792E+03  0.67220461008E+03  0.47000000000E+01 0.  1.
         13    1    4    4    0    0  0.96608351173E+02 -0.87483559846E+02  0.68443454962E+03  0.69673323408E+03  0.00000000000E+00 0. -1.
        -14    1    4    4    0    0  0.66867837417E+01 -0.29543967547E+02  0.50412696526E+02  0.58813255872E+02  0.00000000000E+00 0.  1.
</event>
<event>
12    1  0.8417180E-002  0.2364754E+03  0.7818608E-02  0.1122632E+00
         21   -1    0    0  501  502  0.00000000000E+00  0.00000000000E+00  0.16353811834E+04  0.16353811834E+04  0.00000000000E+00 0. -1.
         21   -1    0    0  502  503 -0.00000000000E+00 -0.00000000000E+00 -0.33854321189E+02  0.33854321189E+02  0.00000000000E+00 0. -1.
         -6    2    1    2    0  503 -0.11403228364E+03 -0.10898243299E+03  0.76234006638E+03  0.79736676072E+03  0.17248432361E+03 0.  0.
        -24    2    3    3    0    0 -0.30628570698E+02 -0.73611521283E+02  0.21933736496E+03  0.24683855575E+03  0.80396688535E+02 0.  0.
          6    2    1    2  501    0  0.11403228364E+03  0.10898243299E+03  0.83918679578E+03  0.87186874382E+03  0.17618199628E+03 0.  0.
         24    2    5    5    0    0  0.10766419627E+03  0.10183250280E+03  0.84351548418E+03  0.86035781069E+03  0.82071630771E+02 0.  0.
          5    1    5    5  501    0  0.63680873673E+01  0.71499301854E+01 -0.43286883914E+01  0.11510933132E+02  0.47000000000E+01 0. -1.
        -11    1    6    6    0    0  0.38695795291E+02  0.71749146389E+02  0.59915143253E+03  0.60467159987E+03  0.00000000000E+00 0.  1.
         12    1    6    6    0    0  0.68968400980E+02  0.30083356415E+02  0.24436405164E+03  0.25568621082E+03  0.00000000000E+00 0. -1.
         -5    1    3    3    0  503 -0.83403712940E+02 -0.35370911706E+02  0.54300270142E+03  0.55052820498E+03  0.47000000000E+01 0.  1.
         13    1    4    4    0    0 -0.50071878476E+02 -0.21235845330E+02  0.80193133193E+02  0.96897330986E+02  0.00000000000E+00 0. -1.
        -14    1    4    4    0    0  0.19443307778E+02 -0.52375675953E+02  0.13914423177E+03  0.14994122476E+03  0.00000000000E+00 0.  1.
</event>
<event>
12    1  0.8417180E-002  0.2459425E+03  0.7818608E-02  0.1116470E+00
         21   -1    0    0  501  502  0.00000000000E+00  0.00000000000E+00  0.15562507869E+04  0.15562507869E+04  0.00000000000E+00 0. -1.
         21   -1    0    0  502  503 -0.00000000000E+00 -0.00000000000E+00 -0.72635965641E+02  0.72635965641E+02  0.00000000000E+00 0. -1.
         -6    2    1    2    0  503  0.13902399729E+03  0.10709449545E+03  0.18477531734E+03  0.30761928169E+03  0.17231019063E+03 0.  0.
        -24    2    3    3    0    0  0.57674660111E+02  0.35619254454E+02  0.11204398353E+02  0.10298453721E+03  0.76714918069E+02 0.  0.
          6    2    1    2  501    0 -0.13902399729E+03 -0.10709449545E+03  0.12988395039E+04  0.13212674708E+04  0.16723268160E+03 0.  0.
         24    2    5    5    0    0 -0.18663792031E+02 -0.50485767091E+01  0.52774423951E+03  0.53417792998E+03  0.80363258303E+02 0.  0.
          5    1    5    5  501    0 -0.12036020526E+03 -0.10204591874E+03  0.77109526438E+03  0.78708954083E+03  0.47000000000E+01 0. -1.
        -11    1    6    6    0    0 -0.15058655967E+02  0.16919355781E+02  0.40326488921E+02  0.46252064044E+02  0.00000000000E+00 0.  1.
         12    1    6    6    0    0 -0.36051360649E+01 -0.21967932490E+02  0.48741775058E+03  0.48792586593E+03  0.00000000000E+00 0. -1.
         -5    1    3    3    0  503  0.81349337176E+02  0.71475240995E+02  0.17357091898E+03  0.20463474449E+03  0.47000000000E+01 0.  1.
         13    1    4    4    0    0  0.19075606768E+02  0.22553890615E+02 -0.32030588838E+02  0.43571956311E+02  0.00000000000E+00 0. -1.
        -14    1    4    4    0    0  0.38599053343E+02  0.13065363838E+02  0.43234987191E+02  0.59412580895E+02  0.00000000000E+00 0.  1.
</event>
<event>
12    1  0.8417180E-002  0.2314247E+03  0.7818608E-02  0.1125642E+00
         21   -1    0    0  503  502  0.00000000000E+00  0.00000000000E+00  0.24420876561E+03  0.24420876561E+03  0.00000000000E+00 0. -1.
         21   -1    0    0  501  503 -0.00000000000E+00 -0.00000000000E+00 -0.24204423424E+03  0.24204423424E+03  0.00000000000E+00 0. -1.
          6    2    1    2  501    0  0.15500844663E+03 -0.94394388623E+00  0.75603139046E+02  0.24345554981E+03  0.17183207077E+03 0.  0.
         24    2    3    3    0    0  0.11512803464E+03  0.20786937899E+02 -0.13760442563E+02  0.14310307998E+03  0.81256264816E+02 0.  0.
         -6    2    1    2    0  502 -0.15500844663E+03  0.94394388623E+00 -0.73438607677E+02  0.24279745004E+03  0.17183964354E+03 0.  0.
        -24    2    5    5    0    0 -0.51785676212E+02 -0.34323706228E+02 -0.85918661215E+02  0.13290391423E+03  0.80134642962E+02 0.  0.
          5    1    3    3  501    0  0.39880411984E+02 -0.21730881786E+02  0.89363581609E+02  0.10035246983E+03  0.47000000000E+01 0. -1.
        -13    1    4    4    0    0  0.16634224263E+02  0.23071158681E+02  0.24376315950E+02  0.37459051763E+02  0.00000000000E+00 0.  1.
         14    1    4    4    0    0  0.98493810380E+02 -0.22842207812E+01 -0.38136758512E+02  0.10564402822E+03  0.00000000000E+00 0. -1.
         -5    1    5    5    0  502 -0.10322277042E+03  0.35267650114E+02  0.12480053538E+02  0.10989353581E+03  0.47000000000E+01 0.  1.
         13    1    6    6    0    0 -0.23394518215E+02  0.89700422076E+01  0.74522233577E+01  0.26140022431E+02  0.00000000000E+00 0. -1.
        -14    1    6    6    0    0 -0.28391157996E+02 -0.43293748436E+02 -0.93370884573E+02  0.10676389180E+03  0.00000000000E+00 0.  1.
</event>
<event>
12    1  0.8417180E-002  0.1804716E+03  0.7818608E-02  0.1167571E+00
         21   -1    0    0  503  502  0.00000000000E+00  0.00000000000E+00  0.23793283444E+03  0.23793283444E+03  0.00000000000E+00 0.  1.
         21   -1    0    0  501  503 -0.00000000000E+00 -0.00000000000E+00 -0.28891484712E+03  0.28891484712E+03  0.00000000000E+00 0.  1.
          6    2    1    2  501    0 -0.57983068987E+02  0.21050700863E+02 -0.21698628741E+03  0.28163876586E+03  0.16861843676E+03 0.  0.
         24    2    3    3    0    0 -0.10083001842E+03  0.36546980704E+02 -0.16866889389E+03  0.21506056912E+03  0.79369252311E+02 0.  0.
         -6    2    1    2    0  502  0.57983068987E+02 -0.21050700863E+02  0.16600427473E+03  0.24520891571E+03  0.16960195995E+03 0.  0.
        -24    2    5    5    0    0 -0.31430688655E+02 -0.47580729792E+01  0.56605578312E+02  0.10290489413E+03  0.79841707727E+02 0.  0.
          5    1    3    3  501    0  0.42846949428E+02 -0.15496279841E+02 -0.48317393518E+02  0.66578196736E+02  0.47000000000E+01 0. -1.
        -11    1    4    4    0    0 -0.11011168085E+03  0.22327859646E+02 -0.16124674094E+03  0.19652894707E+03  0.00000000000E+00 0.  1.
         12    1    4    4    0    0  0.92816624339E+01  0.14219121058E+02 -0.74221529546E+01  0.18531622047E+02  0.00000000000E+00 0. -1.
         -5    1    5    5    0  502  0.89413757642E+02 -0.16292627884E+02  0.10939869642E+03  0.14230402158E+03  0.47000000000E+01 0.  1.
         13    1    6    6    0    0  0.10847973388E+02  0.48904540619E+01  0.58304103937E+02  0.59505996365E+02  0.00000000000E+00 0. -1.
        -14    1    6    6    0    0 -0.42278662043E+02 -0.96485270411E+01 -0.16985256251E+01  0.43398897768E+02  0.00000000000E+00 0.  1.
</event>
<event>
12    1  0.8417180E-002  0.2376205E+03  0.7818608E-02  0.1121553E+00
         21   -1    0    0  503  502  0.00000000000E+00  0.00000000000E+00  0.84530242573E+03  0.84530242573E+03  0.00000000000E+00 0. -1.
         21   -1    0    0  501  503 -0.00000000000E+00 -0.00000000000E+00 -0.96857863950E+02  0.96857863950E+02  0.00000000000E+00 0. -1.
          6    2    1    2  501    0 -0.13660812337E+03 -0.90414585098E+02  0.11006748574E+03  0.26099304466E+03  0.17078038931E+03 0.  0.
         24    2    3    3    0    0 -0.71286935872E+02 -0.50090383372E+02  0.13567809176E+03  0.17993200641E+03  0.79850539214E+02 0.  0.
         -6    2    1    2    0  502  0.13660812337E+03  0.90414585098E+02  0.63837707605E+03  0.68116724503E+03  0.17212480329E+03 0.  0.
        -24    2    5    5    0    0  0.28025089770E+02  0.17573944996E+02  0.40095352499E+03  0.41008042013E+03  0.79422745939E+02 0.  0.
          5    1    3    3  501    0 -0.65321187498E+02 -0.40324201726E+02 -0.25610606027E+02  0.81061038249E+02  0.47000000000E+01 0. -1.
        -13    1    4    4    0    0 -0.27655387316E+02  0.18776203453E+02  0.60065731222E+02  0.68740514480E+02  0.00000000000E+00 0.  1.
         14    1    4    4    0    0 -0.43631548556E+02 -0.68866586825E+02  0.75612360541E+02  0.11119149193E+03  0.00000000000E+00 0. -1.
         -5    1    5    5    0  502  0.10858303360E+03  0.72840640102E+02  0.23742355105E+03  0.27108682490E+03  0.47000000000E+01 0.  1.
         13    1    6    6    0    0  0.29843202287E+02  0.28703400268E+02  0.39530539466E+03  0.39746805778E+03  0.00000000000E+00 0. -1.
        -14    1    6    6    0    0 -0.18181125174E+01 -0.11129455272E+02  0.56481303315E+01  0.12612362349E+02  0.00000000000E+00 0.  1.
</event>
<event>
12    1  0.8417180E-002  0.2000171E+03  0.7818608E-02  0.1149993E+00
         21   -1    0    0  501  502  0.00000000000E+00  0.00000000000E+00  0.15218968403E+02  0.15218968403E+02  0.00000000000E+00 0. -1.
         21   -1    0    0  502  503 -0.00000000000E+00 -0.00000000000E+00 -0.26358259097E+04  0.26358259097E+04  0.00000000000E+00 0.  1.
         -6    2    1    2    0  503 -0.10077119271E+03  0.14266549527E+02 -0.14318531190E+04  0.14455812759E+04  0.17071468352E+03 0.  0.
        -24    2    3    3    0    0 -0.11738682422E+03  0.98766719483E+01 -0.74383188009E+03  0.75732938494E+03  0.79904419831E+02 0.  0.
          6    2    1    2  501    0  0.10077119271E+03 -0.14266549527E+02 -0.11887538223E+04  0.12054636022E+04  0.17218733537E+03 0.  0.
         24    2    5    5    0    0  0.59152964005E+01 -0.46560955794E+02 -0.72634300814E+03  0.73229722469E+03  0.80511778560E+02 0.  0.
          5    1    5    5  501    0  0.94855896308E+02  0.32294406267E+02 -0.46241081414E+03  0.47316637748E+03  0.47000000000E+01 0. -1.
        -11    1    6    6    0    0 -0.33804238192E+02 -0.40009187850E+02 -0.37041078417E+03  0.37409572392E+03  0.00000000000E+00 0.  1.
         12    1    6    6    0    0  0.39719534593E+02 -0.65517679435E+01 -0.35593222397E+03  0.35820150077E+03  0.00000000000E+00 0. -1.
         -5    1    3    3    0  503  0.16615631512E+02  0.43898775783E+01 -0.68802123894E+03  0.68825189100E+03  0.47000000000E+01 0.  1.
         13    1    4    4    0    0 -0.10534201053E+03 -0.22496678881E+02 -0.57425410817E+03  0.58426947592E+03  0.00000000000E+00 0. -1.
        -14    1    4    4    0    0 -0.12044813689E+02  0.32373350829E+02 -0.16957777192E+03  0.17305990902E+03  0.00000000000E+00 0.  1.
</event>
<event>
12    1  0.8417180E-002  0.2158559E+03  0.7818608E-02  0.1137065E+00
         21   -1    0    0  503  502  0.00000000000E+00  0.00000000000E+00  0.79884877311E+02  0.79884877311E+02  0.00000000000E+00 0. -1.
         21   -1    0    0  501  503 -0.00000000000E+00 -0.00000000000E+00 -0.74838018024E+03  0.74838018024E+03  0.00000000000E+00 0.  1.
          6    2    1    2  501    0 -0.12988835312E+03 -0.33530555582E+01 -0.52905213703E+03  0.57128616032E+03  0.17201594701E+03 0.  0.
         24    2    3    3    0    0 -0.95290178961E+01 -0.20731851406E+02 -0.31243684365E+03  0.32282556496E+03  0.77967636103E+02 0.  0.
         -6    2    1    2    0  502  0.12988835312E+03  0.33530555582E+01 -0.13944316590E+03  0.25697889723E+03  0.17237032762E+03 0.  0.
        -24    2    5    5    0    0  0.14657782613E+03 -0.34275844265E+02 -0.87810220688E+02  0.19077826549E+03  0.77626149661E+02 0.  0.
          5    1    3    3  501    0 -0.12035933523E+03  0.17378795847E+02 -0.21661529338E+03  0.24846059536E+03  0.47000000000E+01 0. -1.
        -13    1    4    4    0    0  0.60592888363E+01 -0.15684517060E+02 -0.92391000747E+01  0.19185411822E+02  0.00000000000E+00 0.  1.
         14    1    4    4    0    0 -0.15588306732E+02 -0.50473343460E+01 -0.30319774357E+03  0.30364015314E+03  0.00000000000E+00 0. -1.
         -5    1    5    5    0  502 -0.16689473009E+02  0.37628899823E+02 -0.51632945213E+02  0.66200631738E+02  0.47000000000E+01 0.  1.
         13    1    6    6    0    0  0.11457768988E+03 -0.23149506654E+02 -0.25183396972E+02  0.11957487261E+03  0.00000000000E+00 0. -1.
        -14    1    6    6    0    0  0.32000136257E+02 -0.11126337612E+02 -0.62626823716E+02  0.71203392882E+02  0.00000000000E+00 0.  1.
</event>
<event>
12    1  0.8417180E-002  0.2256346E+03  0.7818608E-02  0.1130255E+00
         21   -1    0    0  503  502  0.00000000000E+00  0.00000000000E+00  0.54070886875E+03  0.54070886875E+03  0.00000000000E+00 0.  1.
         21   -1    0    0  501  503 -0.00000000000E+00 -0.00000000000E+00 -0.12684360289E+03  0.12684360289E+03  0.00000000000E+00 0. -1.
          6    2    1    2  501    0  0.59016055243E+02 -0.12936923441E+03  0.33589865882E+02  0.22537565488E+03  0.17160015482E+03 0.  0.
         24    2    3    3    0    0 -0.21928739828E+02 -0.81652610478E+02  0.54314822692E+02  0.12904004421E+03  0.80951927812E+02 0.  0.
         -6    2    1    2    0  502 -0.59016055243E+02  0.12936923441E+03  0.38027539997E+03  0.44217681676E+03  0.17519036467E+03 0.  0.
        -24    2    5    5    0    0  0.10640270352E+02  0.87648439806E+02  0.11304308006E+03  0.16284219449E+03  0.77093307120E+02 0.  0.
          5    1    3    3  501    0  0.80944795071E+02 -0.47716623932E+02 -0.20724956810E+02  0.96335610671E+02  0.47000000000E+01 0. -1.
        -13    1    4    4    0    0 -0.20529011484E+02  0.33515140363E+01  0.36750714789E+02  0.42228994735E+02  0.00000000000E+00 0.  1.
         14    1    4    4    0    0 -0.13997283445E+01 -0.85004124514E+02  0.17564107902E+02  0.86811049471E+02  0.00000000000E+00 0. -1.
         -5    1    5    5    0  502 -0.69656325595E+02  0.41720794604E+02  0.26723231991E+03  0.27933462227E+03  0.47000000000E+01 0.  1.
         11    1    6    6    0    0  0.18509121084E+02  0.70677284234E+00 -0.17738088627E+01  0.18607350403E+02  0.00000000000E+00 0. -1.
        -12    1    6    6    0    0 -0.78688507317E+01  0.86941666964E+02  0.11481688893E+03  0.14423484409E+03  0.00000000000E+00 0.  1.
</event>
<event>
12    1  0.8417180E-002  0.3413387E+03  0.7818608E-02  0.1066324E+00
         21   -1    0    0  501  502  0.00000000000E+00  0.00000000000E+00  0.17335426235E+04  0.17335426235E+04  0.00000000000E+00 0. -1.
         21   -1    0    0  502  503 -0.00000000000E+00 -0.00000000000E+00 -0.88475884374E+02  0.88475884374E+02  0.00000000000E+00 0.  1.
         -6    2    1    2    0  503 -0.29033646123E+03 -0.46917137545E+02  0.37318331133E+03  0.50512839983E+03  0.17144222916E+03 0.  0.
        -24    2    3    3    0    0 -0.19298621147E+03  0.26833714594E+02  0.28447593986E+03  0.35410738449E+03  0.80633450465E+02 0.  0.
          6    2    1    2  501    0  0.29033646123E+03  0.46917137545E+02  0.12718834277E+04  0.13168901080E+04  0.17325017822E+03 0.  0.
         24    2    5    5    0    0  0.25464697738E+03 -0.11716965521E+02  0.89662465292E+03  0.93537610383E+03  0.77526234305E+02 0.  0.
          5    1    5    5  501    0  0.35689483854E+02  0.58634103066E+02  0.37525877482E+03  0.38151400417E+03  0.47000000000E+01 0. -1.
        -11    1    6    6    0    0  0.50440952750E+02 -0.33292335899E+02  0.17740368644E+03  0.18741594731E+03  0.00000000000E+00 0.  1.
         12    1    6    6    0    0  0.20420602463E+03  0.21575370378E+02  0.71922096648E+03  0.74796015651E+03  0.00000000000E+00 0. -1.
         -5    1    3    3    0  503 -0.97350249762E+02 -0.73750852139E+02  0.88707371468E+02  0.15102101534E+03  0.47000000000E+01 0.  1.
         13    1    4    4    0    0 -0.10163795513E+03 -0.21531237144E+02  0.10995585349E+03  0.15127510639E+03  0.00000000000E+00 0. -1.
        -14    1    4    4    0    0 -0.91348256340E+02  0.48364951739E+02  0.17452008637E+03  0.20283227810E+03  0.00000000000E+00 0.  1.
</event>
<event>
12    1  0.8417180E-002  0.1836230E+03  0.7818608E-02  0.1169488E+00
         21   -1    0    0  501  502  0.00000000000E+00  0.00000000000E+00  0.29905263959E+03  0.29905263959E+03  0.00000000000E+00 0. -1.
         21   -1    0    0  502  503 -0.00000000000E+00 -0.00000000000E+00 -0.22640388412E+03  0.22640388412E+03  0.00000000000E+00 0. -1.
         -6    2    1    2    0  503 -0.18019239750E+02 -0.36729097993E+01 -0.15848079247E+03  0.24255630291E+03  0.18269979539E+03 0.  0.
        -24    2    3    3    0    0 -0.54264373860E+02  0.31646609140E+02 -0.24225662550E+02  0.99002452131E+02  0.72584245271E+02 0.  0.
          6    2    1    2  501    0  0.18019239750E+02  0.36729097993E+01  0.23112954794E+03  0.28290022079E+03  0.16209097361E+03 0.  0.
         24    2    5    5    0    0  0.64517274406E+02 -0.69820808614E+01  0.20278228721E+03  0.22721132384E+03  0.79329071122E+02 0.  0.
          5    1    5    5  501    0 -0.46498034656E+02  0.10654990661E+02  0.28347260728E+02  0.55688896951E+02  0.47000000000E+01 0. -1.
        -13    1    6    6    0    0 -0.18315197453E+02 -0.61812162591E+01  0.45851216188E+02  0.49759299815E+02  0.00000000000E+00 0.  1.
         14    1    6    6    0    0  0.82832471859E+02 -0.80086460225E+00  0.15693107102E+03  0.17745202403E+03  0.00000000000E+00 0. -1.
         -5    1    3    3    0  503  0.36245134110E+02 -0.35319518939E+02 -0.13425512992E+03  0.14355385078E+03  0.47000000000E+01 0.  1.
         11    1    4    4    0    0 -0.49927549667E+02  0.43600334946E+02 -0.41009338277E+02  0.77945591595E+02  0.00000000000E+00 0. -1.
        -12    1    4    4    0    0 -0.43368241930E+01 -0.11953725805E+02  0.16783675728E+02  0.21056860536E+02  0.00000000000E+00 0.  1.
</event>
<event>
12    1  0.8417180E-002  0.3263545E+03  0.7818608E-02  0.1072873E+00
         21   -1    0    0  503  502  0.00000000000E+00  0.00000000000E+00  0.10994174390E+03  0.10994174390E+03  0.00000000000E+00 0. -1.
         21   -1    0    0  501  503 -0.00000000000E+00 -0.00000000000E+00 -0.10017662677E+04  0.10017662677E+04  0.00000000000E+00 0.  1.
          6    2    1    2  501    0  0.24287785595E+03  0.13196664323E+03 -0.55188979283E+03  0.64116269139E+03  0.17350044832E+03 0.  0.
         24    2    3    3    0    0  0.52675111388E+02  0.58961953382E+02 -0.25484549546E+03  0.28093474498E+03  0.87902929834E+02 0.  0.
         -6    2    1    2    0  502 -0.24287785595E+03 -0.13196664323E+03 -0.33993473094E+03  0.47054532017E+03  0.17161710054E+03 0.  0.
        -24    2    5    5    0    0 -0.25841142894E+03 -0.12155285170E+03 -0.27776533762E+03  0.40545413483E+03  0.75418235862E+02 0.  0.
          5    1    3    3  501    0  0.19020274456E+03  0.73004689851E+02 -0.29704429737E+03  0.36022794641E+03  0.47000000000E+01 0. -1.
        -13    1    4    4    0    0  0.17168715231E+02  0.68270292392E+02 -0.21733909203E+03  0.22845541913E+03  0.00000000000E+00 0.  1.
         14    1    4    4    0    0  0.35506396157E+02 -0.93083390107E+01 -0.37506403435E+02  0.52479325852E+02  0.00000000000E+00 0. -1.
         -5    1    5    5    0  502  0.15533572992E+02 -0.10413791535E+02 -0.62169393318E+02  0.65091185344E+02  0.47000000000E+01 0.  1.
         11    1    6    6    0    0 -0.38067190992E+02  0.69433399124E+01 -0.52004294949E+02  0.64821043591E+02  0.00000000000E+00 0. -1.
        -12    1    6    6    0    0 -0.22034423795E+03 -0.12849619161E+03 -0.22576104267E+03  0.34063309123E+03  0.00000000000E+00 0.  1.
</event>
<event>
12    1  0.8417180E-002  0.2303705E+03  0.7818608E-02  0.1126500E+00
         21   -1    0    0  501  502  0.00000000000E+00  0.00000000000E+00  0.46384420955E+03  0.46384420955E+03  0.00000000000E+00 0.  1.
         21   -1    0    0  502  503 -0.00000000000E+00 -0.00000000000E+00 -0.14443782725E+03  0.14443782725E+03  0.00000000000E+00 0. -1.
         -6    2    1    2    0  503  0.91018636820E+02 -0.12192302725E+03  0.20445128299E+02  0.23127596995E+03  0.17297674464E+03 0.  0.
        -24    2    3    3    0    0  0.91217700010E+02 -0.13358639604E+03 -0.27643916510E+02  0.18156963205E+03  0.77700393563E+02 0.  0.
          6    2    1    2  501    0 -0.91018636820E+02  0.12192302725E+03  0.29896125401E+03  0.37700606685E+03  0.17206430839E+03 0.  0.
         24    2    5    5    0    0 -0.12856494011E+03  0.95853988802E+02  0.26292587627E+03  0.31861122029E+03  0.81646569354E+02 0.  0.
          5    1    5    5  501    0  0.37546303287E+02  0.26069038449E+02  0.36035377739E+02  0.58394846562E+02  0.47000000000E+01 0. -1.
        -11    1    6    6    0    0 -0.68198839946E+01 -0.12972865010E+02  0.37442752052E+02  0.40209025423E+02  0.00000000000E+00 0.  1.
         12    1    6    6    0    0 -0.12174505611E+03  0.10882685381E+03  0.22548312422E+03  0.27840219486E+03  0.00000000000E+00 0. -1.
         -5    1    3    3    0  503 -0.19906319014E+00  0.11663368787E+02  0.48089044810E+02  0.49706337909E+02  0.47000000000E+01 0.  1.
         13    1    4    4    0    0  0.20252092079E+02 -0.53464240075E+02 -0.45489761825E+02  0.73060869358E+02  0.00000000000E+00 0. -1.
        -14    1    4    4    0    0  0.70965607931E+02 -0.80122155962E+02  0.17845845315E+02  0.10850876269E+03  0.00000000000E+00 0.  1.
</event>
<event>
12    1  0.8417180E-002  0.1784037E+03  0.7818608E-02  0.1170211E+00
         21   -1    0    0  503  502  0.00000000000E+00  0.00000000000E+00  0.20034552995E+03  0.20034552995E+03  0.00000000000E+00 0.  1.
         21   -1    0    0  501  503 -0.00000000000E+00 -0.00000000000E+00 -0.24198642984E+03  0.24198642984E+03  0.00000000000E+00 0.  1.
          6    2    1    2  501    0  0.34837652768E+02  0.40334753074E+01 -0.15267228850E+03  0.23219902325E+03  0.17139903077E+03 0.  0.
         24    2    3    3    0    0  0.44871789247E+02 -0.35012865633E+02 -0.28312583487E+02  0.10138340161E+03  0.78978563596E+02 0.  0.
         -6    2    1    2    0  502 -0.34837652768E+02 -0.40334753074E+01  0.11103138862E+03  0.21013293654E+03  0.17492269946E+03 0.  0.
        -24    2    5    5    0    0 -0.75128952875E+01 -0.67471855181E+02  0.42772117952E+02  0.11290902773E+03  0.79436135550E+02 0.  0.
          5    1    3    3  501    0 -0.10034136480E+02  0.39046340940E+02 -0.12435970501E+03  0.13081562165E+03  0.47000000000E+01 0. -1.
        -11    1    4    4    0    0  0.32806609713E+02  0.80742065786E+01 -0.42638655017E+02  0.54401483017E+02  0.00000000000E+00 0.  1.
         12    1    4    4    0    0  0.12065179534E+02 -0.43087072211E+02  0.14326071530E+02  0.46981918590E+02  0.00000000000E+00 0. -1.
         -5    1    5    5    0  502 -0.27324757480E+02  0.63438379873E+02  0.68259270667E+02  0.97223908810E+02  0.47000000000E+01 0.  1.
         13    1    6    6    0    0  0.11926288107E+02  0.99357254305E+01 -0.88402420405E+01  0.17863506575E+02  0.00000000000E+00 0. -1.
        -14    1    6    6    0    0 -0.19439183394E+02 -0.77407580611E+02  0.51612359992E+02  0.95045521152E+02  0.00000000000E+00 0.  1.
</event>
<event>
12    1  0.8417180E-002  0.2042341E+03  0.7818608E-02  0.1146532E+00
         21   -1    0    0  503  502  0.00000000000E+00  0.00000000000E+00  0.12852056511E+03  0.12852056511E+03  0.00000000000E+00 0. -1.
         21   -1    0    0  501  503 -0.00000000000E+00 -0.00000000000E+00 -0.33521178626E+03  0.33521178626E+03  0.00000000000E+00 0. -1.
          6    2    1    2  501    0  0.43128768169E+02 -0.97673066490E+02 -0.57882332838E+02  0.21227799571E+03  0.17410187950E+03 0.  0.
         24    2    3    3    0    0 -0.24493265853E+02 -0.66595567260E+02  0.15032854429E+02  0.10798386846E+03  0.79997746747E+02 0.  0.
         -6    2    1    2    0  502 -0.43128768169E+02  0.97673066490E+02 -0.14880888831E+03  0.25145435567E+03  0.17229361330E+03 0.  0.
        -24    2    5    5    0    0  0.31742507492E+02  0.44760481728E+02 -0.12250649223E+03  0.15595903859E+03  0.79399581686E+02 0.  0.
          5    1    3    3  501    0  0.67622034021E+02 -0.31077499231E+02 -0.72915187268E+02  0.10429412725E+03  0.47000000000E+01 0. -1.
        -11    1    4    4    0    0 -0.38646762503E+02 -0.68896527885E+02  0.32469600728E+02  0.85408306259E+02  0.00000000000E+00 0.  1.
         12    1    4    4    0    0  0.14153496650E+02  0.23009606253E+01 -0.17436746299E+02  0.22575562201E+02  0.00000000000E+00 0. -1.
         -5    1    5    5    0  502 -0.74871275661E+02  0.52912584762E+02 -0.26302396079E+02  0.95495317083E+02  0.47000000000E+01 0.  1.
         11    1    6    6    0    0 -0.10410575540E+02  0.52255194427E+02 -0.60644424296E+02  0.80726275931E+02  0.00000000000E+00 0. -1.
        -12    1    6    6    0    0  0.42153083033E+02 -0.74947126981E+01 -0.61862067936E+02  0.75232762656E+02  0.00000000000E+00 0.  1.
</event>
<event>
12    1  0.8417180E-002  0.2229023E+03  0.7818608E-02  0.1131775E+00
         21   -1    0    0  503  502  0.00000000000E+00  0.00000000000E+00  0.33267258398E+03  0.33267258398E+03  0.00000000000E+00 0. -1.
         21   -1    0    0  501  503 -0.00000000000E+00 -0.00000000000E+00 -0.15157144591E+03  0.15157144591E+03  0.00000000000E+00 0. -1.
          6    2    1    2  501    0 -0.10455428549E+03 -0.94379361122E+02  0.60322662292E+02  0.23072308105E+03  0.17249711337E+03 0.  0.
         24    2    3    3    0    0 -0.12741617479E+03 -0.82856699532E+02  0.32626664913E+01  0.16800648967E+03  0.71522173651E+02 0.  0.
         -6    2    1    2    0  502  0.10455428549E+03  0.94379361122E+02  0.12077847578E+03  0.25352094884E+03  0.17276101664E+03 0.  0.
        -24    2    5    5    0    0  0.30760862962E+02  0.16867710286E+02  0.11856528799E+03  0.14637379104E+03  0.78337786836E+02 0.  0.
          5    1    3    3  501    0  0.22861889299E+02 -0.11522661590E+02  0.57059995800E+02  0.62716591371E+02  0.47000000000E+01 0. -1.
        -11    1    4    4    0    0 -0.19427614212E+02 -0.91393542650E+01 -0.26304600136E+02  0.33954263041E+02  0.00000000000E+00 0.  1.
         12    1    4    4    0    0 -0.10798856058E+03 -0.73717345267E+02  0.29567266627E+02  0.13405222663E+03  0.00000000000E+00 0. -1.
         -5    1    5    5    0  502  0.73793422533E+02  0.77511650836E+02  0.22131877843E+01  0.10714715780E+03  0.47000000000E+01 0.  1.
         13    1    6    6    0    0  0.53434739114E+02  0.23460920641E+02  0.62348513702E+02  0.85399199658E+02  0.00000000000E+00 0. -1.
        -14    1    6    6    0    0 -0.22673876152E+02 -0.65932103547E+01  0.56216774292E+02  0.60974591383E+02  0.00000000000E+00 0.  1.
</event>
<event>
12    1  0.8417180E-002  0.2394996E+03  0.7818608E-02  0.1120343E+00
         21   -1    0    0  503  502  0.00000000000E+00  0.00000000000E+00  0.17583866732E+04  0.17583866732E+04  0.00000000000E+00 0. -1.
         21   -1    0    0  501  503 -0.00000000000E+00 -0.00000000000E+00 -0.32556766625E+02  0.32556766625E+02  0.00000000000E+00 0. -1.
          6    2    1    2  501    0 -0.14564463238E+03 -0.81424443315E+02  0.91764242789E+03  0.94838161291E+03  0.17180733204E+03 0.  0.
         24    2    3    3    0    0 -0.57678759813E+02 -0.10660855635E+03  0.49141378506E+03  0.51241695810E+03  0.79946276793E+02 0.  0.
         -6    2    1    2    0  502  0.14564463238E+03  0.81424443315E+02  0.80818747866E+03  0.84256182688E+03  0.17000333099E+03 0.  0.
        -24    2    5    5    0    0  0.15458127041E+03  0.32865277524E+02  0.51378986619E+03  0.54401551505E+03  0.83650214516E+02 0.  0.
          5    1    3    3  501    0 -0.87965872570E+02  0.25184113038E+02  0.42622864282E+03  0.43596465482E+03  0.47000000000E+01 0. -1.
        -11    1    4    4    0    0 -0.27508021380E+02 -0.74565141667E+02  0.42743793585E+03  0.43476412064E+03  0.00000000000E+00 0.  1.
         12    1    4    4    0    0 -0.30170738433E+02 -0.32043414687E+02  0.63975849210E+02  0.77652837454E+02  0.00000000000E+00 0. -1.
         -5    1    5    5    0  502 -0.89366380248E+01  0.48559165791E+02  0.29439761246E+03  0.29854631183E+03  0.47000000000E+01 0.  1.
         13    1    6    6    0    0  0.27353326181E+02 -0.20435687110E+02  0.17354203464E+03  0.17686904633E+03  0.00000000000E+00 0. -1.
        -14    1    6    6    0    0  0.12722794423E+03  0.53300964634E+02  0.34024783155E+03  0.36714646872E+03  0.00000000000E+00 0.  1.
</event>
<event>
12    1  0.8417180E-002  0.1979920E+03  0.7818608E-02  0.1151586E+00
         21   -1    0    0  503  502  0.00000000000E+00  0.00000000000E+00  0.15298732232E+03  0.15298732232E+03  0.00000000000E+00 0. -1.
         21   -1    0    0  501  503 -0.00000000000E+00 -0.00000000000E+00 -0.26032267700E+03  0.26032267700E+03  0.00000000000E+00 0. -1.
          6    2    1    2  501    0 -0.80149764291E+02  0.54741020416E+02 -0.25100779955E+02  0.19891931759E+03  0.17180885229E+03 0.  0.
         24    2    3    3    0    0  0.12072263922E+02  0.19742953798E+02  0.26864604045E+02  0.87329630391E+02  0.79807478427E+02 0.  0.
         -6    2    1    2    0  502  0.80149764291E+02 -0.54741020416E+02 -0.82234574720E+02  0.21439068173E+03  0.17256962393E+03 0.  0.
        -24    2    5    5    0    0  0.56237101072E+02 -0.10013900952E+02  0.23130606032E+02  0.97359737140E+02  0.75372433498E+02 0.  0.
          5    1    3    3  501    0 -0.92222028213E+02  0.34998066618E+02 -0.51965384000E+02  0.11158968720E+03  0.47000000000E+01 0. -1.
        -13    1    4    4    0    0  0.57824017230E+01  0.19177485982E+02 -0.26708846156E+02  0.33385245263E+02  0.00000000000E+00 0.  1.
         14    1    4    4    0    0  0.62898621989E+01  0.56546781559E+00  0.53573450202E+02  0.53944385128E+02  0.00000000000E+00 0. -1.
         -5    1    5    5    0  502  0.23912663219E+02 -0.44727119464E+02 -0.10536518075E+03  0.11703094459E+03  0.47000000000E+01 0.  1.
         13    1    6    6    0    0  0.47602908657E+02  0.27736538304E+02  0.19588856880E+02  0.58472863651E+02  0.00000000000E+00 0. -1.
        -14    1    6    6    0    0  0.86341924151E+01 -0.37750439256E+02  0.35417491526E+01  0.38886873489E+02  0.00000000000E+00 0.  1.
</event>
<event>
12    1  0.8417180E-002  0.1889204E+03  0.7818608E-02  0.1160339E+00
         21   -1    0    0  503  502  0.00000000000E+00  0.00000000000E+00  0.49442550842E+02  0.49442550842E+02  0.00000000000E+00 0. -1.
         21   -1    0    0  501  503 -0.00000000000E+00 -0.00000000000E+00 -0.75100000454E+03  0.75100000454E+03  0.00000000000E+00 0. -1.
          6    2    1    2  501    0  0.16748442998E+01 -0.69024514286E+02 -0.44422146873E+03  0.48120483100E+03  0.17163387611E+03 0.  0.
         24    2    3    3    0    0  0.61722124815E+02 -0.23719340081E+02 -0.19160445191E+03  0.21758449436E+03  0.79110798305E+02 0.  0.
         -6    2    1    2    0  502 -0.16748442998E+01  0.69024514286E+02 -0.25733598498E+03  0.31923772438E+03  0.17585143397E+03 0.  0.
        -24    2    5    5    0    0  0.39260184170E+02  0.12457157241E+02 -0.66917651506E+02  0.11636640024E+03  0.85829040504E+02 0.  0.
          5    1    3    3  501    0 -0.60047280515E+02 -0.45305174205E+02 -0.25261701681E+03  0.26362033664E+03  0.47000000000E+01 0. -1.
        -11    1    4    4    0    0  0.94495194150E+01 -0.15263042754E+02  0.85663498247E+00  0.17971858969E+02  0.00000000000E+00 0.  1.
         12    1    4    4    0    0  0.52272605400E+02 -0.84562973266E+01 -0.19246108690E+03  0.19961263539E+03  0.00000000000E+00 0. -1.
         -5    1    5    5    0  502 -0.40935028469E+02  0.56567357045E+02 -0.19041833347E+03  0.20287132414E+03  0.47000000000E+01 0.  1.
         11    1    6    6    0    0  0.65240148997E+02  0.13694012439E+02 -0.35319613582E+02  0.75440560188E+02  0.00000000000E+00 0. -1.
        -12    1    6    6    0    0 -0.25979964828E+02 -0.12368551982E+01 -0.31598037924E+02  0.40925840051E+02  0.00000000000E+00 0.  1.
</event>
<event>
12    1  0.8417180E-002  0.1800982E+03  0.7818608E-02  0.1167752E+00
         21   -1    0    0  501  502  0.00000000000E+00  0.00000000000E+00  0.28899573320E+02  0.28899573320E+02  0.00000000000E+00 0. -1.
         21   -1    0    0  502  503 -0.00000000000E+00 -0.00000000000E+00 -0.11756756435E+04  0.11756756435E+04  0.00000000000E+00 0. -1.
         -6    2    1    2    0  503 -0.52638588661E+02  0.82159416661E+01 -0.70328183350E+03  0.72597569303E+03  0.17203792264E+03 0.  0.
        -24    2    3    3    0    0  0.24102404525E+02  0.37138053790E+02 -0.46370274249E+03  0.47270528526E+03  0.80435641193E+02 0.  0.
          6    2    1    2  501    0  0.52638588661E+02 -0.82159416661E+01 -0.44349423670E+03  0.47859952381E+03  0.17184889726E+03 0.  0.
         24    2    5    5    0    0 -0.99916601992E+01 -0.25407065165E+02 -0.36878884406E+03  0.37949821963E+03  0.85254530493E+02 0.  0.
          5    1    5    5  501    0  0.62630248861E+02  0.17191123499E+02 -0.74705392644E+02  0.99101304177E+02  0.47000000000E+01 0. -1.
        -11    1    6    6    0    0 -0.11747097300E+02 -0.23230995877E+02 -0.37329152703E+03  0.37419812615E+03  0.00000000000E+00 0.  1.
         12    1    6    6    0    0  0.17554371003E+01 -0.21760692880E+01  0.45026829716E+01  0.53000934805E+01  0.00000000000E+00 0. -1.
         -5    1    3    3    0  503 -0.76740993186E+02 -0.28922112124E+02 -0.23957909101E+03  0.25327040777E+03  0.47000000000E+01 0.  1.
         11    1    4    4    0    0  0.25400549698E+02 -0.14265915995E+02 -0.29250164769E+03  0.29394883600E+03  0.00000000000E+00 0. -1.
        -12    1    4    4    0    0 -0.12981451730E+01  0.51403969785E+02 -0.17120109481E+03  0.17875644926E+03  0.00000000000E+00 0.  1.
</event>
<event>
12    1  0.8417180E-002  0.1727056E+03  0.7818608E-02  0.1175085E+00
         21   -1    0    0  501  502  0.00000000000E+00  0.00000000000E+00  0.72452964125E+02  0.72452964125E+02  0.00000000000E+00 0. -1.
         21   -1    0    0  502  503 -0.00000000000E+00 -0.00000000000E+00 -0.41660061414E+03  0.41660061414E+03  0.00000000000E+00 0. -1.
         -6    2    1    2    0  503  0.73489494753E+01  0.17930927830E+02 -0.14470535645E+03  0.22522699508E+03  0.17149936995E+03 0.  0.
        -24    2    3    3    0    0  0.32319050531E+02  0.10046822094E+02 -0.97989039229E+01  0.87722427863E+02  0.80335211276E+02 0.  0.
          6    2    1    2  501    0 -0.73489494753E+01 -0.17930927830E+02 -0.19944229356E+03  0.26382658318E+03  0.17161501188E+03 0.  0.
         24    2    5    5    0    0  0.42717669090E+02  0.35155686971E+02 -0.93015625047E+02  0.13470036301E+03  0.80197005642E+02 0.  0.
          5    1    5    5  501    0 -0.50066618565E+02 -0.53086614801E+02 -0.10642666851E+03  0.12912622017E+03  0.47000000000E+01 0. -1.
        -13    1    6    6    0    0  0.41139505421E+02 -0.51581003029E+01 -0.83532246731E+02  0.93256105157E+02  0.00000000000E+00 0.  1.
         14    1    6    6    0    0  0.15781636690E+01  0.40313787274E+02 -0.94833783157E+01  0.41444257856E+02  0.00000000000E+00 0. -1.
         -5    1    3    3    0  503 -0.24970101055E+02  0.78841057364E+01 -0.13490645253E+03  0.13750456721E+03  0.47000000000E+01 0.  1.
         11    1    4    4    0    0  0.29626108683E+02  0.93686071175E+01 -0.43748126559E+02  0.53659814503E+02  0.00000000000E+00 0. -1.
        -12    1    4    4    0    0  0.26929418476E+01  0.67821497605E+00  0.33949222636E+02  0.34062613361E+02  0.00000000000E+00 0.  1.
</event>
<event>
12    1  0.8417180E-002  0.1777914E+03  0.7818608E-02  0.1170143E+00
         21   -1    0    0  501  502  0.00000000000E+00  0.00000000000E+00  0.63625253524E+02  0.63625253524E+02  0.00000000000E+00 0. -1.
         21   -1    0    0  502  503 -0.00000000000E+00 -0.00000000000E+00 -0.49471890368E+03  0.49471890368E+03  0.00000000000E+00 0. -1.
         -6    2    1    2    0  503  0.33192847470E+02 -0.30806521281E+02 -0.21508188634E+03  0.27857486436E+03  0.17115177577E+03 0.  0.
        -24    2    3    3    0    0  0.64178300625E+02  0.12661456842E+02 -0.19628704861E+03  0.22178666705E+03  0.79884625971E+02 0.  0.
          6    2    1    2  501    0 -0.33192847470E+02  0.30806521281E+02 -0.21601176381E+03  0.27976929284E+03  0.17192721783E+03 0.  0.
         24    2    5    5    0    0 -0.75010765638E+02 -0.15288080196E+02 -0.16156652453E+03  0.19694523446E+03  0.82603530013E+02 0.  0.
          5    1    5    5  501    0  0.41817918169E+02  0.46094601478E+02 -0.54445239287E+02  0.82824058379E+02  0.47000000000E+01 0. -1.
        -13    1    6    6    0    0  0.13371680729E+02 -0.17626604737E+02 -0.49357562972E+02  0.54089445020E+02  0.00000000000E+00 0.  1.
         14    1    6    6    0    0 -0.88382446367E+02  0.23385245410E+01 -0.11220896155E+03  0.14285578944E+03  0.00000000000E+00 0. -1.
         -5    1    3    3    0  503 -0.30985453155E+02 -0.43467978123E+02 -0.18794837727E+02  0.56788197317E+02  0.47000000000E+01 0.  1.
         11    1    4    4    0    0  0.22908461089E+02 -0.31046897940E+02 -0.11043483732E+03  0.11698102733E+03  0.00000000000E+00 0. -1.
        -12    1    4    4    0    0  0.41269839536E+02  0.43708354782E+02 -0.85852211297E+02  0.10480563972E+03  0.00000000000E+00 0.  1.
</event>
<event>
12    1  0.8417180E-002  0.2097261E+03  0.7818608E-02  0.1141988E+00
         21   -1    0    0  501  502  0.00000000000E+00  0.00000000000E+00  0.82731467978E+03  0.82731467978E+03  0.00000000000E+00 0. -1.
         21   -1    0    0  502  503 -0.00000000000E+00 -0.00000000000E+00 -0.16338514425E+03  0.16338514425E+03  0.00000000000E+00 0.  1.
         -6    2    1    2    0  503 -0.11587183433E+03  0.92685005249E+01 -0.75101635194E+02  0.22276736485E+03  0.17456476203E+03 0.  0.
        -24    2    3    3    0    0 -0.73753020146E+02 -0.60435257466E+02 -0.41745773932E+02  0.13463501060E+03  0.85392904342E+02 0.  0.
          6    2    1    2  501    0  0.11587183433E+03 -0.92685005249E+01  0.73903117072E+03  0.76793245917E+03  0.17332340710E+03 0.  0.
         24    2    5    5    0    0  0.58788892191E+01 -0.36559829835E+02  0.39824285838E+03  0.40876393541E+03  0.84376526027E+02 0.  0.
          5    1    5    5  501    0  0.10999294511E+03  0.27291329310E+02  0.34078831234E+03  0.35916852376E+03  0.47000000000E+01 0. -1.
        -13    1    6    6    0    0  0.18646472292E+02  0.23507864158E+02  0.10766322420E+03  0.11176618653E+03  0.00000000000E+00 0.  1.
         14    1    6    6    0    0 -0.12767583073E+02 -0.60067693993E+02  0.29057963418E+03  0.29699774888E+03  0.00000000000E+00 0. -1.
         -5    1    3    3    0  503 -0.42118814183E+02  0.69703757991E+02 -0.33355861262E+02  0.88132354256E+02  0.47000000000E+01 0.  1.
         11    1    4    4    0    0  0.48326481356E-01  0.39918610943E+01  0.18965817356E+02  0.19381421992E+02  0.00000000000E+00 0. -1.
        -12    1    4    4    0    0 -0.73801346627E+02 -0.64427118560E+02 -0.60711591288E+02  0.11525358861E+03  0.00000000000E+00 0.  1.
</event>
<event>
12    1  0.8417180E-002  0.2171099E+03  0.7818608E-02  0.1136176E+00
         21   -1    0    0  501  502  0.00000000000E+00  0.00000000000E+00  0.18458615019E+03  0.18458615019E+03  0.00000000000E+00 0. -1.
         21   -1    0    0  502  503 -0.00000000000E+00 -0.00000000000E+00 -0.34911918378E+03  0.34911918378E+03  0.00000000000E+00 0. -1.
         -6    2    1    2    0  503 -0.53702833656E+02  0.12053002056E+03 -0.22118489407E+03  0.30993464486E+03  0.17241011143E+03 0.  0.
        -24    2    3    3    0    0 -0.69045737478E+01  0.78180530891E+01 -0.14540039710E+03  0.16620070759E+03  0.79828595344E+02 0.  0.
          6    2    1    2  501    0  0.53702833656E+02 -0.12053002056E+03  0.56651860481E+02  0.22377068911E+03  0.17161703823E+03 0.  0.
         24    2    5    5    0    0  0.26221978510E+02 -0.30425850200E+01  0.56435377915E+02  0.10302040226E+03  0.82045121249E+02 0.  0.
          5    1    5    5  501    0  0.27480855146E+02 -0.11748743554E+03  0.21648256588E+00  0.12075028685E+03  0.47000000000E+01 0. -1.
        -13    1    6    6    0    0  0.28559856395E+02  0.12493648560E+01 -0.14405152782E+02  0.32011478200E+02  0.00000000000E+00 0.  1.
         14    1    6    6    0    0 -0.23378778851E+01 -0.42919498760E+01  0.70840530697E+02  0.71008924060E+02  0.00000000000E+00 0. -1.
         -5    1    3    3    0  503 -0.46798259908E+02  0.11271196747E+03 -0.75784496967E+02  0.14373393727E+03  0.47000000000E+01 0.  1.
         11    1    4    4    0    0 -0.25900515289E+02  0.24808263067E+02 -0.26482697520E+02  0.44582730699E+02  0.00000000000E+00 0. -1.
        -12    1    4    4    0    0  0.18995941541E+02 -0.16990209978E+02 -0.11891769958E+03  0.12161797690E+03  0.00000000000E+00 0.  1.
</event>
<event>
12    1  0.8417180E-002  0.2524948E+03  0.7818608E-02  0.1111909E+00
         21   -1    0    0  503  502  0.00000000000E+00  0.00000000000E+00  0.61374535988E+02  0.61374535988E+02  0.00000000000E+00 0. -1.
         21   -1    0    0  501  503 -0.00000000000E+00 -0.00000000000E+00 -0.10562176866E+04  0.10562176866E+04  0.00000000000E+00 0. -1.
          6    2    1    2  501    0  0.42908322362E+02 -0.17798425231E+03 -0.41795128818E+03  0.48830000482E+03  0.17387954802E+03 0.  0.
         24    2    3    3    0    0 -0.12775773828E+02 -0.78982021029E+02 -0.10064184009E+03  0.15123986743E+03  0.79645071928E+02 0.  0.
         -6    2    1    2    0  502 -0.42908322362E+02  0.17798425231E+03 -0.57689186241E+03  0.62929221774E+03  0.17229322737E+03 0.  0.
        -24    2    5    5    0    0 -0.24522553571E+02  0.94720509608E+02 -0.15485012789E+03  0.19869704473E+03  0.76997551287E+02 0.  0.
          5    1    3    3  501    0  0.55684096189E+02 -0.99002231285E+02 -0.31730944810E+03  0.33706013739E+03  0.47000000000E+01 0. -1.
        -11    1    4    4    0    0 -0.19884367659E+02  0.34025869393E+01  0.10143721071E+01  0.20198876846E+02  0.00000000000E+00 0.  1.
         12    1    4    4    0    0  0.71085938314E+01 -0.82384607968E+02 -0.10165621219E+03  0.13104099059E+03  0.00000000000E+00 0. -1.
         -5    1    5    5    0  502 -0.18385768790E+02  0.83263742706E+02 -0.42204173452E+03  0.43059517301E+03  0.47000000000E+01 0.  1.
         11    1    6    6    0    0  0.27464505338E+02  0.43214851364E+02 -0.68098055894E+02  0.85200749108E+02  0.00000000000E+00 0. -1.
        -12    1    6    6    0    0 -0.51987058910E+02  0.51505658243E+02 -0.86752071995E+02  0.11349629563E+03  0.00000000000E+00 0.  1.
</event>
<event>
12    1  0.8417180E-002  0.1810026E+03  0.7818608E-02  0.1166845E+00
         21   -1    0    0  503  502  0.00000000000E+00  0.00000000000E+00  0.10880432335E+03  0.10880432335E+03  0.00000000000E+00 0.  1.
         21   -1    0    0  501  503 -0.00000000000E+00 -0.00000000000E+00 -0.44330152933E+03  0.44330152933E+03  0.00000000000E+00 0.  1.
          6    2    1    2  501    0 -0.55695497788E+02  0.16799743860E+02 -0.32361419659E+03  0.37077635601E+03  0.17136142528E+03 0.  0.
         24    2    3    3    0    0  0.89965175111E+00  0.54511935504E+02 -0.11086782519E+03  0.14737463513E+03  0.80344557569E+02 0.  0.
         -6    2    1    2    0  502  0.55695497788E+02 -0.16799743860E+02 -0.10883009392E+02  0.18132949666E+03  0.17139931913E+03 0.  0.
        -24    2    5    5    0    0 -0.33858289947E+01  0.77755415003E+01  0.48372157617E+02  0.93992147021E+02  0.80141968939E+02 0.  0.
          5    1    3    3  501    0 -0.56595149540E+02 -0.37712191644E+02 -0.21274637140E+03  0.22340172088E+03  0.47000000000E+01 0. -1.
        -11    1    4    4    0    0  0.50714164001E+01 -0.37544130530E+01 -0.81951260580E+02  0.82193819673E+02  0.00000000000E+00 0.  1.
         12    1    4    4    0    0 -0.41717646490E+01  0.58266348557E+02 -0.28916564607E+02  0.65180815453E+02  0.00000000000E+00 0. -1.
         -5    1    5    5    0  502  0.59081326783E+02 -0.24575285360E+02 -0.59255167009E+02  0.87337349641E+02  0.47000000000E+01 0.  1.
         13    1    6    6    0    0 -0.28593732644E+02 -0.15959501695E+02 -0.20688405388E+01  0.32811390432E+02  0.00000000000E+00 0. -1.
        -14    1    6    6    0    0  0.25207903650E+02  0.23735043195E+02  0.50440998156E+02  0.61180756589E+02  0.00000000000E+00 0.  1.
</event>
<event>
12    1  0.8417180E-002  0.2504517E+03  0.7818608E-02  0.1113836E+00
         21   -1    0    0  501  502  0.00000000000E+00  0.00000000000E+00  0.62211248712E+03  0.62211248712E+03  0.00000000000E+00 0.  1.
         21   -1    0    0  502  503 -0.00000000000E+00 -0.00000000000E+00 -0.11727709430E+03  0.11727709430E+03  0.00000000000E+00 0.  1.
         -6    2    1    2    0  503 -0.17571453320E+03  0.10799715212E+02  0.39705266964E+03  0.46673010635E+03  0.17086233838E+03 0.  0.
        -24    2    3    3    0    0 -0.15106640243E+03 -0.23332129464E+00  0.18176809417E+03  0.24970753453E+03  0.80579776369E+02 0.  0.
          6    2    1    2  501    0  0.17571453320E+03 -0.10799715212E+02  0.10778272318E+03  0.27265947507E+03  0.17813995313E+03 0.  0.
         24    2    5    5    0    0  0.86255501512E+02 -0.59015605731E+02  0.28286043863E+01  0.12649125861E+03  0.71198203920E+02 0.  0.
          5    1    5    5  501    0  0.89459031691E+02  0.48215890520E+02  0.10495411880E+03  0.14616821646E+03  0.47000000000E+01 0. -1.
        -13    1    6    6    0    0  0.90635969980E+02 -0.35028020690E+02 -0.12069706168E+02  0.97915877643E+02  0.00000000000E+00 0.  1.
         14    1    6    6    0    0 -0.43804684679E+01 -0.23987585041E+02  0.14898310555E+02  0.28575380968E+02  0.00000000000E+00 0. -1.
         -5    1    3    3    0  503 -0.24648130769E+02  0.11033036506E+02  0.21528457546E+03  0.21702257181E+03  0.47000000000E+01 0.  1.
         11    1    4    4    0    0 -0.60184025858E+02  0.30295592886E+02  0.11356860980E+03  0.13205214519E+03  0.00000000000E+00 0. -1.
        -12    1    4    4    0    0 -0.90882376576E+02 -0.30528914181E+02  0.68199484375E+02  0.11765538935E+03  0.00000000000E+00 0.  1.
</event>
<event>
12    1  0.8417180E-002  0.1993443E+03  0.7818608E-02  0.1150462E+00
         21   -1    0    0  503  502  0.00000000000E+00  0.00000000000E+00  0.42775929692E+03  0.42775929692E+03  0.00000000000E+00 0. -1.
         21   -1    0    0  501  503 -0.00000000000E+00 -0.00000000000E+00 -0.10936837787E+03  0.10936837787E+03  0.00000000000E+00 0. -1.
          6    2    1    2  501    0 -0.51713592667E+02  0.84778382038E+02  0.53547541542E+02  0.20564588850E+03  0.17193377366E+03 0.  0.
         24    2    3    3    0    0  0.28113180300E+02  0.66086197958E+02  0.12753084787E+01  0.10830017582E+03  0.81052854388E+02 0.  0.
         -6    2    1    2    0  502  0.51713592667E+02 -0.84778382038E+02  0.26484337751E+03  0.33148178629E+03  0.17284817124E+03 0.  0.
        -24    2    5    5    0    0  0.93328391594E+02 -0.72345465357E+02  0.14174754447E+03  0.20086385866E+03  0.79434679555E+02 0.  0.
          5    1    3    3  501    0 -0.79826772967E+02  0.18692184080E+02  0.52272233063E+02  0.97345712681E+02  0.47000000000E+01 0. -1.
        -11    1    4    4    0    0  0.54407510593E+02  0.43490228513E+02  0.14584667955E+02  0.71163823143E+02  0.00000000000E+00 0.  1.
         12    1    4    4    0    0 -0.26294330293E+02  0.22595969445E+02 -0.13309359476E+02  0.37136352680E+02  0.00000000000E+00 0. -1.
         -5    1    5    5    0  502 -0.41614798927E+02 -0.12432916681E+02  0.12309583304E+03  0.13061792763E+03  0.47000000000E+01 0.  1.
         11    1    6    6    0    0  0.55424040061E+02 -0.31018276312E+02  0.19616365918E+02  0.66473750413E+02  0.00000000000E+00 0. -1.
        -12    1    6    6    0    0  0.37904351532E+02 -0.41327189045E+02  0.12213117855E+03  0.13439010824E+03  0.00000000000E+00 0.  1.
</event>
<event>
12    1  0.8417180E-002  0.2339281E+03  0.7818608E-02  0.1124081E+00
         21   -1    0    0  501  502  0.00000000000E+00  0.00000000000E+00  0.23511732696E+03  0.23511732696E+03  0.00000000000E+00 0. -1.
         21   -1    0    0  502  503 -0.00000000000E+00 -0.00000000000E+00 -0.26479484864E+03  0.26479484864E+03  0.00000000000E+00 0. -1.
         -6    2    1    2    0  503  0.14034014182E+03 -0.70025498177E+02 -0.10319292692E+03  0.25567781719E+03  0.17356105622E+03 0.  0.
        -24    2    3    3    0    0  0.16688536540E+03 -0.51268943799E+02 -0.11128811803E+03  0.22185357520E+03  0.79716584439E+02 0.  0.
          6    2    1    2  501    0 -0.14034014182E+03  0.70025498177E+02  0.73515405236E+02  0.24423435840E+03  0.17218298760E+03 0.  0.
         24    2    5    5    0    0 -0.14872292578E+03  0.80352578090E+01  0.38470119942E+02  0.17237809223E+03  0.77789347150E+02 0.  0.
          5    1    5    5  501    0  0.83827839623E+01  0.61990240368E+02  0.35045285294E+02  0.71856266179E+02  0.47000000000E+01 0. -1.
        -13    1    6    6    0    0 -0.44398743922E+02 -0.33587348505E+02  0.14472250614E+02  0.57522208574E+02  0.00000000000E+00 0.  1.
         14    1    6    6    0    0 -0.10432418186E+03  0.41622606314E+02  0.23997869328E+02  0.11485588365E+03  0.00000000000E+00 0. -1.
         -5    1    3    3    0  503 -0.26545223577E+02 -0.18756554377E+02  0.80951911131E+01  0.33824241988E+02  0.47000000000E+01 0.  1.
         11    1    4    4    0    0  0.98241254583E+02 -0.11998385512E+01 -0.92277583175E+02  0.13478848642E+03  0.00000000000E+00 0. -1.
        -12    1    4    4    0    0  0.68644110813E+02 -0.50069105248E+02 -0.19010534854E+02  0.87065088785E+02  0.00000000000E+00 0.  1.
</event>
<event>
12    1  0.8417180E-002  0.1927257E+03  0.7818608E-02  0.1156142E+00
         21   -1    0    0  503  502  0.00000000000E+00  0.00000000000E+00  0.24177760493E+03  0.24177760493E+03  0.00000000000E+00 0. -1.
         21   -1    0    0  501  503 -0.00000000000E+00 -0.00000000000E+00 -0.22483235660E+03  0.22483235660E+03  0.00000000000E+00 0.  1.
          6    2    1    2  501    0  0.28836253278E+01 -0.85285281716E+02 -0.12321670155E+03  0.22830647310E+03  0.17221961428E+03 0.  0.
         24    2    3    3    0    0  0.45960438475E+02 -0.10029206136E+03 -0.12112812657E+03  0.18240149067E+03  0.80171199786E+02 0.  0.
         -6    2    1    2    0  502 -0.28836253278E+01  0.85285281716E+02  0.14016194988E+03  0.23830348843E+03  0.17280418349E+03 0.  0.
        -24    2    5    5    0    0 -0.43396409072E+02  0.11548438078E+02  0.12717599024E+03  0.15304427835E+03  0.72333974720E+02 0.  0.
          5    1    3    3  501    0 -0.43076813147E+02  0.15006779643E+02 -0.20885749808E+01  0.45904982427E+02  0.47000000000E+01 0. -1.
        -13    1    4    4    0    0  0.40365500801E+02 -0.43698837761E+02 -0.10911394204E+03  0.12427716775E+03  0.00000000000E+00 0.  1.
         14    1    4    4    0    0  0.55949376745E+01 -0.56593223598E+02 -0.12014184531E+02  0.58124322918E+02  0.00000000000E+00 0. -1.
         -5    1    5    5    0  502  0.40512783745E+02  0.73736843638E+02  0.12985959634E+02  0.85259210083E+02  0.47000000000E+01 0.  1.
         11    1    6    6    0    0  0.73871743229E+01 -0.17000415561E+02  0.76042105604E+01  0.20035181356E+02  0.00000000000E+00 0. -1.
        -12    1    6    6    0    0 -0.50783583395E+02  0.28548853639E+02  0.11957177968E+03  0.13300909699E+03  0.00000000000E+00 0.  1.
</event>
<event>
12    1  0.8417180E-002  0.2104495E+03  0.7818608E-02  0.1141415E+00
         21   -1    0    0  501  502  0.00000000000E+00  0.00000000000E+00  0.13424542405E+03  0.13424542405E+03  0.00000000000E+00 0.  1.
         21   -1    0    0  502  503 -0.00000000000E+00 -0.00000000000E+00 -0.72855547431E+03  0.72855547431E+03  0.00000000000E+00 0.  1.
         -6    2    1    2    0  503 -0.29452023089E+02  0.11586039468E+03 -0.61724425580E+03  0.65213452950E+03  0.17319907773E+03 0.  0.
        -24    2    3    3    0    0 -0.54404955991E+02  0.13448095665E+03 -0.57950423019E+03  0.60298400843E+03  0.81972767887E+02 0.  0.
          6    2    1    2  501    0  0.29452023089E+02 -0.11586039468E+03  0.22934205537E+02  0.21066636885E+03  0.17193978150E+03 0.  0.
         24    2    5    5    0    0 -0.10654689393E+02  0.14839573689E+01  0.26896592221E+02  0.86505038915E+02  0.81510554832E+02 0.  0.
          5    1    5    5  501    0  0.40106712482E+02 -0.11734435205E+03 -0.39623866833E+01  0.12416132994E+03  0.47000000000E+01 0. -1.
        -11    1    6    6    0    0  0.18235265768E+02 -0.31604604568E+02  0.32857515923E+01  0.36635667198E+02  0.00000000000E+00 0.  1.
         12    1    6    6    0    0 -0.28889955161E+02  0.33088561937E+02  0.23610840629E+02  0.49869371717E+02  0.00000000000E+00 0. -1.
         -5    1    3    3    0  503  0.24952932902E+02 -0.18620561968E+02 -0.37740025609E+02  0.49150521069E+02  0.47000000000E+01 0.  1.
         11    1    4    4    0    0  0.12935204172E+02 -0.18554506551E+01 -0.27973319926E+02  0.30875051932E+02  0.00000000000E+00 0. -1.
        -12    1    4    4    0    0 -0.67340160163E+02  0.13633640730E+03 -0.55153091027E+03  0.57210895650E+03  0.00000000000E+00 0.  1.
</event>
<event>
12    1  0.8417180E-002  0.2205363E+03  0.7818608E-02  0.1133817E+00
         21   -1    0    0  503  502  0.00000000000E+00  0.00000000000E+00  0.40708057098E+03  0.40708057098E+03  0.00000000000E+00 0. -1.
         21   -1    0    0  501  503 -0.00000000000E+00 -0.00000000000E+00 -0.11897749875E+03  0.11897749875E+03  0.00000000000E+00 0.  1.
          6    2    1    2  501    0  0.88008175646E+02 -0.10284403224E+03  0.12697175079E+03  0.25292883448E+03  0.17183956432E+03 0.  0.
         24    2    3    3    0    0  0.90248787540E+02 -0.16859105573E+02  0.38273554381E+02  0.12928463525E+03  0.82586795886E+02 0.  0.
         -6    2    1    2    0  502 -0.88008175646E+02  0.10284403224E+03  0.16113132143E+03  0.27312923524E+03  0.17410899589E+03 0.  0.
        -24    2    5    5    0    0 -0.88738437223E+02  0.12105229885E+03  0.17943057452E+03  0.24687991300E+03  0.78906216959E+02 0.  0.
          5    1    3    3  501    0 -0.22406118940E+01 -0.85984926669E+02  0.88698196412E+02  0.12364419923E+03  0.47000000000E+01 0. -1.
        -13    1    4    4    0    0  0.49627671805E+02 -0.42991409814E+02 -0.30335915138E+01  0.65729520035E+02  0.00000000000E+00 0.  1.
         14    1    4    4    0    0  0.40621115735E+02  0.26132304241E+02  0.41307145895E+02  0.63555115219E+02  0.00000000000E+00 0. -1.
         -5    1    5    5    0  502  0.73026157780E+00 -0.18208266609E+02 -0.18299253081E+02  0.26249322243E+02  0.47000000000E+01 0.  1.
         13    1    6    6    0    0 -0.16756029775E+02  0.63373787504E+01  0.71481679624E+02  0.73692315917E+02  0.00000000000E+00 0. -1.
        -14    1    6    6    0    0 -0.71982407449E+02  0.11471492010E+03  0.10794889489E+03  0.17318759708E+03  0.00000000000E+00 0.  1.
</event>
<event>
12    1  0.8417180E-002  0.1833921E+03  0.7818608E-02  0.1165017E+00
         21   -1    0    0  503  502  0.00000000000E+00  0.00000000000E+00  0.70098220690E+03  0.70098220690E+03  0.00000000000E+00 0. -1.
         21   -1    0    0  501  503 -0.00000000000E+00 -0.00000000000E+00 -0.67252591287E+02  0.67252591287E+02  0.00000000000E+00 0. -1.
          6    2    1    2  501    0 -0.21692927913E+02 -0.53644719817E+02  0.10739192280E+03  0.21086236896E+03  0.17199294892E+03 0.  0.
         24    2    3    3    0    0  0.40669519557E+02 -0.12918337361E+00  0.21135001117E+02  0.91634293272E+02  0.79348150085E+02 0.  0.
         -6    2    1    2    0  502  0.21692927913E+02  0.53644719817E+02  0.52633769282E+03  0.55737242923E+03  0.17402390323E+03 0.  0.
        -24    2    5    5    0    0  0.15310026203E+02 -0.35063734969E+02  0.33265927670E+03  0.34419796956E+03  0.79662949113E+02 0.  0.
          5    1    3    3  501    0 -0.62362447470E+02 -0.53515536443E+02  0.86256921679E+02  0.11922807569E+03  0.47000000000E+01 0. -1.
        -13    1    4    4    0    0 -0.44251247698E+01 -0.61646298831E+01  0.41211867966E+02  0.41904682937E+02  0.00000000000E+00 0.  1.
         14    1    4    4    0    0  0.45094644327E+02  0.60354465095E+01 -0.20076866849E+02  0.49729610334E+02  0.00000000000E+00 0. -1.
         -5    1    5    5    0  502  0.63829017091E+01  0.88708454786E+02  0.19367841612E+03  0.21317445967E+03  0.47000000000E+01 0.  1.
         13    1    6    6    0    0  0.43904969813E+02 -0.13797410328E+01  0.17911767435E+03  0.18442530012E+03  0.00000000000E+00 0. -1.
        -14    1    6    6    0    0 -0.28594943609E+02 -0.33683993937E+02  0.15354160235E+03  0.15977266944E+03  0.00000000000E+00 0.  1.
</event>
<event>
12    1  0.8417180E-002  0.2568954E+03  0.7818608E-02  0.1109085E+00
         21   -1    0    0  501  502  0.00000000000E+00  0.00000000000E+00  0.22007608115E+03  0.22007608115E+03  0.00000000000E+00 0.  1.
         21   -1    0    0  502  503 -0.00000000000E+00 -0.00000000000E+00 -0.40179016548E+03  0.40179016548E+03  0.00000000000E+00 0. -1.
         -6    2    1    2    0  503 -0.17325401926E+03  0.78061814925E+02 -0.24787312289E+03  0.35698228338E+03  0.17287181220E+03 0.  0.
        -24    2    3    3    0    0 -0.98645783287E+02  0.18770552138E+02 -0.49646894023E+02  0.13698780497E+03  0.78851255136E+02 0.  0.
          6    2    1    2  501    0  0.17325401926E+03 -0.78061814925E+02  0.66159038564E+02  0.26488396326E+03  0.17226692505E+03 0.  0.
         24    2    5    5    0    0  0.48026001841E+02 -0.89928147890E+02  0.50295127112E+02  0.13801150805E+03  0.78256040701E+02 0.  0.
          5    1    5    5  501    0  0.12522801742E+03  0.11866332965E+02  0.15863911453E+02  0.12687245521E+03  0.47000000000E+01 0. -1.
        -11    1    6    6    0    0  0.64183637354E+02 -0.91949159899E+02  0.42052157137E+02  0.11976047441E+03  0.00000000000E+00 0.  1.
         12    1    6    6    0    0 -0.16157635513E+02  0.20210120097E+01  0.82429699743E+01  0.18251033639E+02  0.00000000000E+00 0. -1.
         -5    1    3    3    0  503 -0.74608235972E+02  0.59291262787E+02 -0.19822622887E+03  0.21999447841E+03  0.47000000000E+01 0.  1.
         13    1    4    4    0    0 -0.86574742280E+02  0.81191344133E+01 -0.69579487736E+02  0.11136611450E+03  0.00000000000E+00 0. -1.
        -14    1    4    4    0    0 -0.12071041006E+02  0.10651417725E+02  0.19932593714E+02  0.25621690473E+02  0.00000000000E+00 0.  1.
</event>
<event>
12    1  0.8417180E-002  0.1957801E+03  0.7818608E-02  0.1153957E+00
         21   -1    0    0  501  502  0.00000000000E+00  0.00000000000E+00  0.30089036933E+03  0.30089036933E+03  0.00000000000E+00 0. -1.
         21   -1    0    0  502  503 -0.00000000000E+00 -0.00000000000E+00 -0.14137087102E+03  0.14137087102E+03  0.00000000000E+00 0. -1.
         -6    2    1    2    0  503  0.38530303146E+02  0.78548285065E+02  0.63716145184E+01  0.19588374859E+03  0.17514402114E+03 0.  0.
        -24    2    3    3    0    0 -0.22385416039E+01  0.85313657862E+02 -0.48804242342E+02  0.12678719186E+03  0.80060643656E+02 0.  0.
          6    2    1    2  501    0 -0.38530303146E+02 -0.78548285065E+02  0.15314788379E+03  0.24637749176E+03  0.17202667464E+03 0.  0.
         24    2    5    5    0    0 -0.65987046594E+02  0.59115133088E+01  0.78158553830E+02  0.13004684270E+03  0.80088610003E+02 0.  0.
          5    1    5    5  501    0  0.27456743448E+02 -0.84459798374E+02  0.74989329959E+02  0.11633064906E+03  0.47000000000E+01 0. -1.
        -13    1    6    6    0    0 -0.59275393573E+02  0.16692140982E+02  0.12074193759E+02  0.62753374480E+02  0.00000000000E+00 0.  1.
         14    1    6    6    0    0 -0.67116530209E+01 -0.10780627673E+02  0.66084360071E+02  0.67293468221E+02  0.00000000000E+00 0. -1.
         -5    1    3    3    0  503  0.40768844750E+02 -0.67653727964E+01  0.55175856861E+02  0.69096556728E+02  0.47000000000E+01 0.  1.
         13    1    4    4    0    0 -0.26955829595E+02  0.66238065746E+02 -0.32839516887E+01  0.71588284248E+02  0.00000000000E+00 0. -1.
        -14    1    4    4    0    0  0.24717287991E+02  0.19075592116E+02 -0.45520290654E+02  0.55198907611E+02  0.00000000000E+00 0.  1.
</event>
<event>
12    1  0.8417180E-002  0.1869787E+03  0.7818608E-02  0.1161569E+00
         21   -1    0    0  503  502  0.00000000000E+00  0.00000000000E+00  0.19921146181E+03  0.19921146181E+03  0.00000000000E+00 0. -1.
         21   -1    0    0  501  503 -0.00000000000E+00 -0.00000000000E+00 -0.23902722837E+03  0.23902722837E+03  0.00000000000E+00 0. -1.
          6    2    1    2  501    0  0.40289984959E+02 -0.60144504102E+02 -0.13419948493E+03  0.23015328156E+03  0.17239601793E+03 0.  0.
         24    2    3    3    0    0  0.51514728608E+02 -0.41572369691E+02 -0.16323661138E+03  0.19359970773E+03  0.80328241322E+02 0.  0.
         -6    2    1    2    0  502 -0.40289984959E+02  0.60144504102E+02  0.94383718363E+02  0.20808540861E+03  0.17073548759E+03 0.  0.
        -24    2    5    5    0    0 -0.66311604482E+02 -0.15337980685E+02  0.69694917872E+02  0.12438142387E+03  0.77336113725E+02 0.  0.
          5    1    3    3  501    0 -0.11224743649E+02 -0.18572134411E+02  0.29037126458E+02  0.36553573826E+02  0.47000000000E+01 0. -1.
        -11    1    4    4    0    0  0.54851172669E+02  0.57995973432E+01 -0.71526270511E+02  0.90323274109E+02  0.00000000000E+00 0.  1.
         12    1    4    4    0    0 -0.33364440605E+01 -0.47371967035E+02 -0.91710340872E+02  0.10327643363E+03  0.00000000000E+00 0. -1.
         -5    1    5    5    0  502  0.26021619523E+02  0.75482484788E+02  0.24688800491E+02  0.83703984744E+02  0.47000000000E+01 0.  1.
         11    1    6    6    0    0 -0.15412423910E+02 -0.31877212098E+02  0.60469460445E+02  0.70073212489E+02  0.00000000000E+00 0. -1.
        -12    1    6    6    0    0 -0.50899180572E+02  0.16539231412E+02  0.92254574268E+01  0.54308211381E+02  0.00000000000E+00 0.  1.
</event>
<event>
12    1  0.8417180E-002  0.2093747E+03  0.7818608E-02  0.1143075E+00
         21   -1    0    0  501  502  0.00000000000E+00  0.00000000000E+00  0.79842309329E+03  0.79842309329E+03  0.00000000000E+00 0. -1.
         21   -1    0    0  502  503 -0.00000000000E+00 -0.00000000000E+00 -0.11939274929E+03  0.11939274929E+03  0.00000000000E+00 0.  1.
         -6    2    1    2    0  503 -0.66738572391E+02 -0.98164339495E+02 -0.30070192961E+01  0.20436457378E+03  0.16632967942E+03 0.  0.
        -24    2    3    3    0    0 -0.80118542001E+02 -0.17016626647E+02 -0.33049232924E+01  0.12198645997E+03  0.90339512637E+02 0.  0.
          6    2    1    2  501    0  0.66738572391E+02  0.98164339495E+02  0.68203736330E+03  0.71345126880E+03  0.17247455878E+03 0.  0.
         24    2    5    5    0    0  0.19372319319E+02  0.11483188911E+03  0.60236306873E+03  0.61915677079E+03  0.83379798104E+02 0.  0.
          5    1    5    5  501    0  0.47366253073E+02 -0.16667549614E+02  0.79674294562E+02  0.94294498007E+02  0.47000000000E+01 0. -1.
        -13    1    6    6    0    0  0.21771324828E+02 -0.52902614771E+01  0.11857025689E+03  0.12066848499E+03  0.00000000000E+00 0.  1.
         14    1    6    6    0    0 -0.23990055098E+01  0.12012215059E+03  0.48379281184E+03  0.49848828580E+03  0.00000000000E+00 0. -1.
         -5    1    3    3    0  503  0.13379969610E+02 -0.81147712849E+02  0.29790399625E+00  0.82378113805E+02  0.47000000000E+01 0.  1.
         13    1    4    4    0    0  0.15393896145E+01 -0.37037460327E+02 -0.74387216216E+01  0.37808435133E+02  0.00000000000E+00 0. -1.
        -14    1    4    4    0    0 -0.81657931615E+02  0.20020833681E+02  0.41337983292E+01  0.84178024838E+02  0.00000000000E+00 0.  1.
</event>
<event>
12    1  0.8417180E-002  0.2084673E+03  0.7818608E-02  0.1142823E+00
         21   -1    0    0  503  502  0.00000000000E+00  0.00000000000E+00  0.55974588649E+02  0.55974588649E+02  0.00000000000E+00 0. -1.
         21   -1    0    0  501  503 -0.00000000000E+00 -0.00000000000E+00 -0.77788637484E+03  0.77788637484E+03  0.00000000000E+00 0.  1.
          6    2    1    2  501    0 -0.93910205080E+02 -0.70608480517E+02 -0.33868996686E+03  0.39760692002E+03  0.17197582695E+03 0.  0.
         24    2    3    3    0    0 -0.63814655964E+02 -0.83942727535E+02 -0.33961122595E+03  0.36434308172E+03  0.79318374838E+02 0.  0.
         -6    2    1    2    0  502  0.93910205080E+02  0.70608480517E+02 -0.38322181933E+03  0.43625404347E+03  0.17220320408E+03 0.  0.
        -24    2    5    5    0    0  0.51807347460E+02  0.10986704845E+03 -0.31551000660E+03  0.34725479988E+03  0.79275230607E+02 0.  0.
          5    1    3    3  501    0 -0.30095549116E+02  0.13334247018E+02  0.92125908323E+00  0.33263838300E+02  0.47000000000E+01 0. -1.
        -13    1    4    4    0    0 -0.30020237494E+02 -0.70138720725E+02 -0.12346097897E+03  0.14513189908E+03  0.00000000000E+00 0.  1.
         14    1    4    4    0    0 -0.33794418470E+02 -0.13804006810E+02 -0.21615024698E+03  0.21921118264E+03  0.00000000000E+00 0. -1.
         -5    1    5    5    0  502  0.42102857620E+02 -0.39258567937E+02 -0.67711812725E+02  0.88999243586E+02  0.47000000000E+01 0.  1.
         13    1    6    6    0    0  0.21649076553E+02 -0.55619245474E+01 -0.27006045162E+02  0.35056297517E+02  0.00000000000E+00 0. -1.
        -14    1    6    6    0    0  0.30158270907E+02  0.11542897300E+03 -0.28850396144E+03  0.31219850237E+03  0.00000000000E+00 0.  1.
</event>
<event>
12    1  0.8417180E-002  0.2073572E+03  0.7818608E-02  0.1143990E+00
         21   -1    0    0  501  502  0.00000000000E+00  0.00000000000E+00  0.23902646800E+03  0.23902646800E+03  0.00000000000E+00 0. -1.
         21   -1    0    0  502  503 -0.00000000000E+00 -0.00000000000E+00 -0.79407331005E+03  0.79407331005E+03  0.00000000000E+00 0.  1.
         -6    2    1    2    0  503 -0.10526216889E+03  0.50191733109E+02 -0.73207544976E+03  0.76045322739E+03  0.16957391499E+03 0.  0.
        -24    2    3    3    0    0 -0.10229909759E+02  0.13176264821E+02 -0.15658697403E+03  0.17597880464E+03  0.78554403034E+02 0.  0.
          6    2    1    2  501    0  0.10526216889E+03 -0.50191733109E+02  0.17702860771E+03  0.27264655066E+03  0.17145751477E+03 0.  0.
         24    2    5    5    0    0  0.34016280513E+02  0.14048663699E+02  0.21669009262E+02  0.89995243467E+02  0.79215690319E+02 0.  0.
          5    1    5    5  501    0  0.71245888374E+02 -0.64240396807E+02  0.15535959844E+03  0.18265130720E+03  0.47000000000E+01 0. -1.
        -13    1    6    6    0    0 -0.10092205810E+02 -0.12492114589E+02  0.33522096248E+02  0.37170371021E+02  0.00000000000E+00 0.  1.
         14    1    6    6    0    0  0.44108486323E+02  0.26540778288E+02 -0.11853086986E+02  0.52824872446E+02  0.00000000000E+00 0. -1.
         -5    1    3    3    0  503 -0.95032259127E+02  0.37015468288E+02 -0.57548847572E+03  0.58447442276E+03  0.47000000000E+01 0.  1.
         13    1    4    4    0    0  0.17413746766E+02 -0.26475981423E+02 -0.54942898475E+02  0.63426636846E+02  0.00000000000E+00 0. -1.
        -14    1    4    4    0    0 -0.27643656525E+02  0.39652246243E+02 -0.10164407556E+03  0.11255216779E+03  0.00000000000E+00 0.  1.
</event>
<event>
12    1  0.8417180E-002  0.3689671E+03  0.7818608E-02  0.1055208E+00
         21   -1    0    0  503  502  0.00000000000E+00  0.00000000000E+00  0.61676926883E+02  0.61676926883E+02  0.00000000000E+00 0.  1.
         21   -1    0    0  501  503 -0.00000000000E+00 -0.00000000000E+00 -0.26629165534E+04  0.26629165534E+04  0.00000000000E+00 0. -1.
          6    2    1    2  501    0 -0.62996130605E+02 -0.31757406656E+03 -0.73433671324E+03  0.82181941023E+03  0.17696026224E+03 0.  0.
         24    2    3    3    0    0 -0.90429904411E+02 -0.23364561004E+03 -0.42351858950E+03  0.49866837155E+03  0.80835081695E+02 0.  0.
         -6    2    1    2    0  502  0.62996130605E+02  0.31757406656E+03 -0.18669029133E+04  0.19027740701E+04  0.17435846354E+03 0.  0.
        -24    2    5    5    0    0  0.98135173402E+02  0.28939816597E+03 -0.17312257181E+04  0.17597390219E+04  0.78467365930E+02 0.  0.
          5    1    3    3  501    0  0.27433773806E+02 -0.83928456522E+02 -0.31081812374E+03  0.32315103868E+03  0.47000000000E+01 0. -1.
        -11    1    4    4    0    0 -0.93826398772E+02 -0.16195399966E+03 -0.34345618900E+03  0.39114529893E+03  0.00000000000E+00 0.  1.
         12    1    4    4    0    0  0.33964943616E+01 -0.71691610375E+02 -0.80062400501E+02  0.10752307262E+03  0.00000000000E+00 0. -1.
         -5    1    5    5    0  502 -0.35139042797E+02  0.28175900590E+02 -0.13567719524E+03  0.14303504819E+03  0.47000000000E+01 0.  1.
         11    1    6    6    0    0  0.41637884765E+02  0.61824161219E+02 -0.58868929569E+03  0.59338943976E+03  0.00000000000E+00 0. -1.
        -12    1    6    6    0    0  0.56497288636E+02  0.22757400475E+03 -0.11425364224E+04  0.11663495821E+04  0.00000000000E+00 0.  1.
</event>
<event>
12    1  0.8417180E-002  0.1819155E+03  0.7818608E-02  0.1166567E+00
         21   -1    0    0  501  502  0.00000000000E+00  0.00000000000E+00  0.18926717783E+03  0.18926717783E+03  0.00000000000E+00 0. -1.
         21   -1    0    0  502  503 -0.00000000000E+00 -0.00000000000E+00 -0.27373547108E+03  0.27373547108E+03  0.00000000000E+00 0. -1.
         -6    2    1    2    0  503  0.26480412874E+02  0.59257095177E+02 -0.18324356147E+03  0.25820816509E+03  0.16994304371E+03 0.  0.
        -24    2    3    3    0    0 -0.37446734024E+02  0.50504555973E+02 -0.59515317543E+02  0.11858705137E+03  0.81042258527E+02 0.  0.
          6    2    1    2  501    0 -0.26480412874E+02 -0.59257095177E+02  0.98775268222E+02  0.20479448381E+03  0.16724715660E+03 0.  0.
         24    2    5    5    0    0  0.34869365379E+02  0.79471367549E+01  0.52506807887E+02  0.10260317056E+03  0.80569324874E+02 0.  0.
          5    1    5    5  501    0 -0.61349778254E+02 -0.67204231932E+02  0.46268460335E+02  0.10219131325E+03  0.47000000000E+01 0. -1.
        -13    1    6    6    0    0  0.19951315911E+02 -0.35259292331E+02  0.35392316857E+02  0.53794877031E+02  0.00000000000E+00 0.  1.
         14    1    6    6    0    0  0.14918049468E+02  0.43206429086E+02  0.17114491029E+02  0.48808293532E+02  0.00000000000E+00 0. -1.
         -5    1    3    3    0  503  0.63927146899E+02  0.87525392045E+01 -0.12372824392E+03  0.13962111372E+03  0.47000000000E+01 0.  1.
         11    1    4    4    0    0  0.12401362241E+02  0.45342188021E+02 -0.98444287818E+01  0.48027289929E+02  0.00000000000E+00 0. -1.
        -12    1    4    4    0    0 -0.49848096265E+02  0.51623679522E+01 -0.49670888761E+02  0.70559761440E+02  0.00000000000E+00 0.  1.
</event>
<event>
12    1  0.8417180E-002  0.2140491E+03  0.7818608E-02  0.1139949E+00
         21   -1    0    0  503  502  0.00000000000E+00  0.00000000000E+00  0.57477116517E+02  0.57477116517E+02  0.00000000000E+00 0.  1.
         21   -1    0    0  501  503 -0.00000000000E+00 -0.00000000000E+00 -0.10793324172E+04  0.10793324172E+04  0.00000000000E+00 0.  1.
          6    2    1    2  501    0  0.80641365730E+01  0.11791353088E+03 -0.82291592458E+03  0.85029856882E+03  0.17846121748E+03 0.  0.
         24    2    3    3    0    0 -0.18760633218E+02  0.63898468065E+02 -0.74245396985E+03  0.74963372171E+03  0.79232845426E+02 0.  0.
         -6    2    1    2    0  502 -0.80641365730E+01 -0.11791353088E+03 -0.19893937610E+03  0.28651096490E+03  0.16894681583E+03 0.  0.
        -24    2    5    5    0    0  0.55879125689E+01 -0.99867899506E+02 -0.71689124808E+02  0.15717906739E+03  0.97780910676E+02 0.  0.
          5    1    3    3  501    0  0.26824769790E+02  0.54015062813E+02 -0.80461954731E+02  0.10066484711E+03  0.47000000000E+01 0. -1.
        -11    1    4    4    0    0  0.30584722507E+01  0.75595468082E+02 -0.46920699083E+03  0.47526753444E+03  0.00000000000E+00 0.  1.
         12    1    4    4    0    0 -0.21819105468E+02 -0.11697000018E+02 -0.27324697902E+03  0.27436618727E+03  0.00000000000E+00 0. -1.
         -5    1    5    5    0  502 -0.13652049142E+02 -0.18045631371E+02 -0.12725025129E+03  0.12933189750E+03  0.47000000000E+01 0.  1.
         13    1    6    6    0    0 -0.37115828480E+02 -0.55371268011E+02 -0.68261838242E+02  0.95410904016E+02  0.00000000000E+00 0. -1.
        -14    1    6    6    0    0  0.42703741049E+02 -0.44496631496E+02 -0.34272865654E+01  0.61768163379E+02  0.00000000000E+00 0.  1.
</event>
<event>
12    1  0.8417180E-002  0.2003529E+03  0.7818608E-02  0.1149997E+00
         21   -1    0    0  501  502  0.00000000000E+00  0.00000000000E+00  0.20017580222E+03  0.20017580222E+03  0.00000000000E+00 0. -1.
         21   -1    0    0  502  503 -0.00000000000E+00 -0.00000000000E+00 -0.32103499552E+03  0.32103499552E+03  0.00000000000E+00 0.  1.
         -6    2    1    2    0  503 -0.94370751129E+02 -0.16946641838E+02 -0.22156899309E+03  0.29697039949E+03  0.17293227616E+03 0.  0.
        -24    2    3    3    0    0  0.88802111672E+01  0.35409569219E+02 -0.12038776067E+03  0.14314691025E+03  0.68301751442E+02 0.  0.
          6    2    1    2  501    0  0.94370751129E+02  0.16946641838E+02  0.10070979979E+03  0.22424039824E+03  0.17592119000E+03 0.  0.
         24    2    5    5    0    0  0.81986698281E+02 -0.61208254099E+02  0.41780805085E+02  0.12546657104E+03  0.59396596783E+02 0.  0.
          5    1    5    5  501    0  0.12384052848E+02  0.78154895937E+02  0.58928994700E+02  0.98773827203E+02  0.47000000000E+01 0. -1.
        -13    1    6    6    0    0  0.81540446674E+01 -0.29607869418E+02 -0.70050884988E+01  0.31498978409E+02  0.00000000000E+00 0.  1.
         14    1    6    6    0    0  0.73832653614E+02 -0.31600384681E+02  0.48785893584E+02  0.93967592629E+02  0.00000000000E+00 0. -1.
         -5    1    3    3    0  503 -0.10325096230E+03 -0.52356211057E+02 -0.10118123241E+03  0.15382348925E+03  0.47000000000E+01 0.  1.
         13    1    4    4    0    0  0.39077487624E+01 -0.20305192211E+02 -0.42397609612E+02  0.47171269136E+02  0.00000000000E+00 0. -1.
        -14    1    4    4    0    0  0.49724624048E+01  0.55714761430E+02 -0.77990151062E+02  0.95975641109E+02  0.00000000000E+00 0.  1.
</event>
<event>
12    1  0.8417180E-002  0.1845583E+03  0.7818608E-02  0.1166559E+00
         21   -1    0    0  503  502  0.00000000000E+00  0.00000000000E+00  0.85461310830E+02  0.85461310830E+02  0.00000000000E+00 0.  1.
         21   -1    0    0  501  503 -0.00000000000E+00 -0.00000000000E+00 -0.45263752185E+03  0.45263752185E+03  0.00000000000E+00 0.  1.
          6    2    1    2  501    0 -0.41077572935E+01  0.52868139519E+02 -0.30278079776E+03  0.35459551737E+03  0.17677628687E+03 0.  0.
         24    2    3    3    0    0  0.10447588624E+02 -0.25005578371E+02 -0.23691776237E+03  0.25146354627E+03  0.79808883695E+02 0.  0.
         -6    2    1    2    0  502  0.41077572935E+01 -0.52868139519E+02 -0.64395413259E+02  0.18350331531E+03  0.16344657731E+03 0.  0.
        -24    2    5    5    0    0 -0.19476413710E+02  0.49485391322E+01 -0.67290337074E+02  0.12081797383E+03  0.98311619898E+02 0.  0.
          5    1    3    3  501    0 -0.14555345918E+02  0.77873717890E+02 -0.65863035388E+02  0.10313197110E+03  0.47000000000E+01 0. -1.
        -13    1    4    4    0    0  0.30571558717E+02 -0.35795097477E+02 -0.79445820413E+02  0.92344721489E+02  0.00000000000E+00 0.  1.
         14    1    4    4    0    0 -0.20123970092E+02  0.10789519106E+02 -0.15747194196E+03  0.15911882478E+03  0.00000000000E+00 0. -1.
         -5    1    5    5    0  502  0.23584171004E+02 -0.57816678651E+02  0.28949238153E+01  0.62685341477E+02  0.47000000000E+01 0.  1.
         11    1    6    6    0    0 -0.28826302704E+02 -0.42284812884E+02 -0.43231562788E+02  0.66992008101E+02  0.00000000000E+00 0. -1.
        -12    1    6    6    0    0  0.93498889935E+01  0.47233352016E+02 -0.24058774286E+02  0.53825965732E+02  0.00000000000E+00 0.  1.
</event>
<event>
12    1  0.8417180E-002  0.1855764E+03  0.7818608E-02  0.1162558E+00
         21   -1    0    0  501  502  0.00000000000E+00  0.00000000000E+00  0.19149297202E+03  0.19149297202E+03  0.00000000000E+00 0. -1.
         21   -1    0    0  502  503 -0.00000000000E+00 -0.00000000000E+00 -0.33473224381E+03  0.33473224381E+03  0.00000000000E+00 0. -1.
         -6    2    1    2    0  503 -0.15203079169E+02 -0.67876356566E+02 -0.25072962747E+03  0.31193582748E+03  0.17204732191E+03 0.  0.
        -24    2    3    3    0    0 -0.15605512114E+01 -0.28946975284E+02 -0.25643914330E+03  0.27002754826E+03  0.79457409379E+02 0.  0.
          6    2    1    2  501    0  0.15203079169E+02  0.67876356566E+02  0.10749035567E+03  0.21428938836E+03  0.17183547946E+03 0.  0.
         24    2    5    5    0    0  0.16896143388E+02  0.51490556370E+02  0.14487552146E+03  0.17316638342E+03  0.77851927213E+02 0.  0.
          5    1    5    5  501    0 -0.16930642192E+01  0.16385800196E+02 -0.37385165786E+02  0.41123004940E+02  0.47000000000E+01 0. -1.
        -11    1    6    6    0    0 -0.18600699022E+02  0.63838196970E+01  0.27109685634E+01  0.19851662615E+02  0.00000000000E+00 0.  1.
         12    1    6    6    0    0  0.35496842410E+02  0.45106736673E+02  0.14216455290E+03  0.15331472080E+03  0.00000000000E+00 0. -1.
         -5    1    3    3    0  503 -0.13642527957E+02 -0.38929381282E+02  0.57095158292E+01  0.41908279218E+02  0.47000000000E+01 0.  1.
         11    1    4    4    0    0 -0.66636707409E+01 -0.54505259488E+02 -0.20675377747E+03  0.21392136947E+03  0.00000000000E+00 0. -1.
        -12    1    4    4    0    0  0.51031195294E+01  0.25558284204E+02 -0.49685365828E+02  0.56106178785E+02  0.00000000000E+00 0.  1.
</event>
<event>
12    1  0.8417180E-002  0.2030242E+03  0.7818608E-02  0.1150050E+00
         21   -1    0    0  503  502  0.00000000000E+00  0.00000000000E+00  0.20665819570E+03  0.20665819570E+03  0.00000000000E+00 0.  1.
         21   -1    0    0  501  503 -0.00000000000E+00 -0.00000000000E+00 -0.11325466757E+04  0.11325466757E+04  0.00000000000E+00 0.  1.
          6    2    1    2  501    0  0.83701399530E+02  0.22895107684E+02 -0.10722543541E+04  0.10889214719E+04  0.16879117836E+03 0.  0.
         24    2    3    3    0    0  0.57691264825E+02  0.79374207486E+02 -0.74753337392E+03  0.75826724045E+03  0.80836352999E+02 0.  0.
         -6    2    1    2    0  502 -0.83701399530E+02 -0.22895107684E+02  0.14636587402E+03  0.25028339956E+03  0.18354481953E+03 0.  0.
        -24    2    5    5    0    0  0.34254138351E+01 -0.37877788747E+02  0.13539572672E+03  0.16107579634E+03  0.78529924322E+02 0.  0.
          5    1    3    3  501    0  0.26010134705E+02 -0.56479099802E+02 -0.32472098014E+03  0.33065423143E+03  0.47000000000E+01 0. -1.
        -13    1    4    4    0    0  0.34171100204E+02  0.31700051844E+02 -0.59332525112E+03  0.59515326681E+03  0.00000000000E+00 0.  1.
         14    1    4    4    0    0  0.23520164621E+02  0.47674155642E+02 -0.15420812280E+03  0.16311397364E+03  0.00000000000E+00 0. -1.
         -5    1    5    5    0  502 -0.87126813365E+02  0.14982681063E+02  0.10970147301E+02  0.89207603212E+02  0.47000000000E+01 0.  1.
         11    1    6    6    0    0 -0.69739046708E+01  0.14030119753E+02  0.89953554094E+02  0.91307839207E+02  0.00000000000E+00 0. -1.
        -12    1    6    6    0    0  0.10399318506E+02 -0.51907908500E+02  0.45442172626E+02  0.69767957137E+02  0.00000000000E+00 0.  1.
</event>
<event>
12    1  0.8417180E-002  0.2220082E+03  0.7818608E-02  0.1132729E+00
         21   -1    0    0  503  502  0.00000000000E+00  0.00000000000E+00  0.27831937737E+02  0.27831937737E+02  0.00000000000E+00 0. -1.
         21   -1    0    0  501  503 -0.00000000000E+00 -0.00000000000E+00 -0.27782644168E+04  0.27782644168E+04  0.00000000000E+00 0. -1.
          6    2    1    2  501    0  0.53109475796E+02  0.12936457637E+03 -0.22296218716E+04  0.22406475236E+04  0.17242918724E+03 0.  0.
         24    2    3    3    0    0  0.42804605376E+02  0.13495142866E+03 -0.11859153196E+04  0.11968645673E+04  0.77752972428E+02 0.  0.
         -6    2    1    2    0  502 -0.53109475796E+02 -0.12936457637E+03 -0.52081060744E+03  0.56544883093E+03  0.17009668289E+03 0.  0.
        -24    2    5    5    0    0 -0.34472015676E+02  0.12049910643E+01 -0.24180466618E+03  0.25680312446E+03  0.79300543991E+02 0.  0.
          5    1    3    3  501    0  0.10304870419E+02 -0.55868522817E+01 -0.10437065520E+04  0.10437829564E+04  0.47000000000E+01 0. -1.
        -13    1    4    4    0    0 -0.17909889239E+02  0.32956244084E+02 -0.43635189875E+03  0.43796102303E+03  0.00000000000E+00 0.  1.
         14    1    4    4    0    0  0.60714494615E+02  0.10199518457E+03 -0.74956342089E+03  0.75890354425E+03  0.00000000000E+00 0. -1.
         -5    1    5    5    0  502 -0.18637460119E+02 -0.13056956744E+03 -0.27900594126E+03  0.30864570646E+03  0.47000000000E+01 0.  1.
         11    1    6    6    0    0 -0.47444680674E+02  0.23762223715E+02 -0.10613300249E+03  0.11865856572E+03  0.00000000000E+00 0. -1.
        -12    1    6    6    0    0  0.12972664998E+02 -0.22557232651E+02 -0.13567166369E+03  0.13814455875E+03  0.00000000000E+00 0.  1.
</event>
<event>
12    1  0.8417180E-002  0.1907816E+03  0.7818608E-02  0.1157779E+00
         21   -1    0    0  503  502  0.00000000000E+00  0.00000000000E+00  0.61256135607E+03  0.61256135607E+03  0.00000000000E+00 0.  1.
         21   -1    0    0  501  503 -0.00000000000E+00 -0.00000000000E+00 -0.59410976198E+02  0.59410976198E+02  0.00000000000E+00 0.  1.
          6    2    1    2  501    0  0.80906652359E+02 -0.15261312757E+02  0.28293978010E+03  0.34125143901E+03  0.17210122429E+03 0.  0.
         24    2    3    3    0    0 -0.36235207579E+01  0.82545550705E+01  0.21617858516E+03  0.23089975866E+03  0.80624129666E+02 0.  0.
         -6    2    1    2    0  502 -0.80906652359E+02  0.15261312757E+02  0.27021059977E+03  0.33072089326E+03  0.17199926437E+03 0.  0.
        -24    2    5    5    0    0 -0.78096664444E+02 -0.12002721181E+02  0.27954155892E+03  0.30138865200E+03  0.80302441312E+02 0.  0.
          5    1    3    3  501    0  0.84530173117E+02 -0.23515867827E+02  0.66761194934E+02  0.11035168035E+03  0.47000000000E+01 0. -1.
        -11    1    4    4    0    0 -0.38997743977E+02 -0.44267051738E+01  0.73117025522E+02  0.82985053927E+02  0.00000000000E+00 0.  1.
         12    1    4    4    0    0  0.35374223219E+02  0.12681260244E+02  0.14306155964E+03  0.14791470473E+03  0.00000000000E+00 0. -1.
         -5    1    5    5    0  502 -0.28099879147E+01  0.27264033938E+02 -0.93309591419E+01  0.29332241257E+02  0.47000000000E+01 0.  1.
         11    1    6    6    0    0 -0.43201167144E+02 -0.46548627451E+02  0.16196127003E+03  0.17396714790E+03  0.00000000000E+00 0. -1.
        -12    1    6    6    0    0 -0.34895497300E+02  0.34545906270E+02  0.11758028889E+03  0.12742150410E+03  0.00000000000E+00 0.  1.
</event>
<event>
12    1  0.8417180E-002  0.2421465E+03  0.7818608E-02  0.1118453E+00
         21   -1    0    0  503  502  0.00000000000E+00  0.00000000000E+00  0.12417408579E+03  0.12417408579E+03  0.00000000000E+00 0.  1.
         21   -1    0    0  501  503 -0.00000000000E+00 -0.00000000000E+00 -0.53682486479E+03  0.53682486479E+03  0.00000000000E+00 0. -1.
          6    2    1    2  501    0 -0.41443455806E+02  0.16514483990E+03 -0.90983953375E+02  0.25867550698E+03  0.17217595641E+03 0.  0.
         24    2    3    3    0    0 -0.89080528762E+02  0.13771183685E+03 -0.86875833882E+02  0.20335076548E+03  0.83091712563E+02 0.  0.
         -6    2    1    2    0  502  0.41443455806E+02 -0.16514483990E+03 -0.32166682563E+03  0.40232344360E+03  0.17147661178E+03 0.  0.
        -24    2    5    5    0    0  0.79305898831E+02 -0.12751903311E+03 -0.29892496668E+03  0.34411220691E+03  0.80663162895E+02 0.  0.
          5    1    3    3  501    0  0.47637072955E+02  0.27433003045E+02 -0.41081194930E+01  0.55324741496E+02  0.47000000000E+01 0. -1.
        -13    1    4    4    0    0 -0.33018256011E+02  0.64645261016E+02  0.56424153479E+01  0.72808322689E+02  0.00000000000E+00 0.  1.
         14    1    4    4    0    0 -0.56062272750E+02  0.73066575835E+02 -0.92518249230E+02  0.13054244279E+03  0.00000000000E+00 0. -1.
         -5    1    5    5    0  502 -0.37862443025E+02 -0.37625806790E+02 -0.22741858951E+02  0.58211236690E+02  0.47000000000E+01 0.  1.
         11    1    6    6    0    0 -0.47307329565E+01 -0.66220076711E+02 -0.11223066037E+03  0.13039631713E+03  0.00000000000E+00 0. -1.
        -12    1    6    6    0    0  0.84036631787E+02 -0.61298956395E+02 -0.18669430631E+03  0.21371588978E+03  0.00000000000E+00 0.  1.
</event>
<event>
12    1  0.8417180E-002  0.1961738E+03  0.7818608E-02  0.1153134E+00
         21   -1    0    0  501  502  0.00000000000E+00  0.00000000000E+00  0.34587924070E+03  0.34587924070E+03  0.00000000000E+00 0. -1.
         21   -1    0    0  502  503 -0.00000000000E+00 -0.00000000000E+00 -0.13448915355E+03  0.13448915355E+03  0.00000000000E+00 0. -1.
         -6    2    1    2    0  503  0.88832136799E+02 -0.33201530611E+02  0.50489135279E+01  0.19565657320E+03  0.17106289179E+03 0.  0.
        -24    2    3    3    0    0  0.61283041656E+02  0.42794580941E+02  0.26474558474E+02  0.11189793260E+03  0.78950983028E+02 0.  0.
          6    2    1    2  501    0 -0.88832136799E+02  0.33201530611E+02  0.20634117362E+03  0.28471182105E+03  0.17172842209E+03 0.  0.
         24    2    5    5    0    0 -0.88972210501E+02 -0.28016089005E+02  0.18508744491E+03  0.21973930720E+03  0.72986610975E+02 0.  0.
          5    1    5    5  501    0  0.14007370148E+00  0.61217619617E+02  0.21253728712E+02  0.64972513853E+02  0.47000000000E+01 0. -1.
        -11    1    6    6    0    0 -0.39574637337E+02  0.11614218870E+02  0.26626557389E+02  0.49091909300E+02  0.00000000000E+00 0.  1.
         12    1    6    6    0    0 -0.49397573164E+02 -0.39630307876E+02  0.15846088752E+03  0.17064739790E+03  0.00000000000E+00 0. -1.
         -5    1    3    3    0  503  0.27549095143E+02 -0.75996111552E+02 -0.21425644946E+02  0.83758640603E+02  0.47000000000E+01 0.  1.
         13    1    4    4    0    0  0.60030939949E+02 -0.23612261892E+01  0.11031655426E+01  0.60087487171E+02  0.00000000000E+00 0. -1.
        -14    1    4    4    0    0  0.12521017072E+01  0.45155807130E+02  0.25371392931E+02  0.51810445429E+02  0.00000000000E+00 0.  1.
</event>
<event>
12    1  0.8417180E-002  0.1822248E+03  0.7818608E-02  0.1166085E+00
         21   -1    0    0  503  502  0.00000000000E+00  0.00000000000E+00  0.18362356914E+03  0.18362356914E+03  0.00000000000E+00 0. -1.
         21   -1    0    0  501  503 -0.00000000000E+00 -0.00000000000E+00 -0.34169174178E+03  0.34169174178E+03  0.00000000000E+00 0. -1.
          6    2    1    2  501    0  0.51010924412E+02  0.20810509002E+02 -0.26001403241E+03  0.31651198535E+03  0.17186433058E+03 0.  0.
         24    2    3    3    0    0  0.44223112744E+02 -0.62542470263E+01 -0.50141912884E+02  0.10474094871E+03  0.80384423880E+02 0.  0.
         -6    2    1    2    0  502 -0.51010924412E+02 -0.20810509002E+02  0.10194585977E+03  0.20880332557E+03  0.17369708907E+03 0.  0.
        -24    2    5    5    0    0 -0.94809237410E+02 -0.27391867098E+02  0.35917886515E+02  0.12915792553E+03  0.75183570507E+02 0.  0.
          5    1    3    3  501    0  0.67878116682E+01  0.27064756028E+02 -0.20987211952E+03  0.21177103664E+03  0.47000000000E+01 0. -1.
        -13    1    4    4    0    0 -0.22138600970E+02 -0.11588533036E+02 -0.94569573484E+01  0.26717892752E+02  0.00000000000E+00 0.  1.
         14    1    4    4    0    0  0.66361713713E+02  0.53342860094E+01 -0.40684955535E+02  0.78023055958E+02  0.00000000000E+00 0. -1.
         -5    1    5    5    0  502  0.43798312998E+02  0.65813580963E+01  0.66027973252E+02  0.79645400041E+02  0.47000000000E+01 0.  1.
         11    1    6    6    0    0 -0.51570681944E+02 -0.49618546305E+02  0.36927514432E+02  0.80530594780E+02  0.00000000000E+00 0. -1.
        -12    1    6    6    0    0 -0.43238555466E+02  0.22226679207E+02 -0.10096279162E+01  0.48627330750E+02  0.00000000000E+00 0.  1.
</event>
<event>
12    1  0.8417180E-002  0.1865213E+03  0.7818608E-02  0.1161841E+00
         21   -1    0    0  501  502  0.00000000000E+00  0.00000000000E+00  0.58109002377E+03  0.58109002377E+03  0.00000000000E+00 0.  1.
         21   -1    0    0  502  503 -0.00000000000E+00 -0.00000000000E+00 -0.15122449946E+03  0.15122449946E+03  0.00000000000E+00 0.  1.
         -6    2    1    2    0  503  0.62748518349E+02  0.26435292230E+02 -0.69897020910E+02  0.19918777703E+03  0.17364900159E+03 0.  0.
        -24    2    3    3    0    0  0.81214429325E+02  0.67703675757E+02 -0.75180637294E+02  0.15342670242E+03  0.81902707829E+02 0.  0.
          6    2    1    2  501    0 -0.62748518349E+02 -0.26435292230E+02  0.49976254523E+03  0.53312674621E+03  0.17270010040E+03 0.  0.
         24    2    5    5    0    0 -0.91644349131E+02  0.22663116507E+02  0.28528378445E+03  0.31116086684E+03  0.80758552528E+02 0.  0.
          5    1    5    5  501    0  0.28895830782E+02 -0.49098408738E+02  0.21447876078E+03  0.22196587936E+03  0.47000000000E+01 0. -1.
        -11    1    6    6    0    0 -0.70275547703E+01  0.26487989340E+02  0.14276278961E+03  0.14536923403E+03  0.00000000000E+00 0.  1.
         12    1    6    6    0    0 -0.84616794361E+02 -0.38248728330E+01  0.14252099484E+03  0.16579163281E+03  0.00000000000E+00 0. -1.
         -5    1    3    3    0  503 -0.18465910976E+02 -0.41268383527E+02  0.52836163842E+01  0.45761074607E+02  0.47000000000E+01 0.  1.
         13    1    4    4    0    0  0.77759215504E+01  0.35833005122E+02  0.84786511405E+01  0.37634515238E+02  0.00000000000E+00 0. -1.
        -14    1    4    4    0    0  0.73438507774E+02  0.31870670635E+02 -0.83659288435E+02  0.11579218718E+03  0.00000000000E+00 0.  1.
</event>
<event>
12    1  0.8417180E-002  0.1930220E+03  0.7818608E-02  0.1156013E+00
         21   -1    0    0  503  502  0.00000000000E+00  0.00000000000E+00  0.32831160706E+03  0.32831160706E+03  0.00000000000E+00 0. -1.
         21   -1    0    0  501  503 -0.00000000000E+00 -0.00000000000E+00 -0.11911797828E+03  0.11911797828E+03  0.00000000000E+00 0. -1.
          6    2    1    2  501    0  0.73579558226E+02 -0.46036465558E+02  0.52873198507E+02  0.19904768851E+03  0.17114642745E+03 0.  0.
         24    2    3    3    0    0 -0.27372622853E+02 -0.27979680630E+02  0.27877805814E+02  0.93386673927E+02  0.80073564927E+02 0.  0.
         -6    2    1    2    0  502 -0.73579558226E+02  0.46036465558E+02  0.15632043027E+03  0.24838189683E+03  0.17240702481E+03 0.  0.
        -24    2    5    5    0    0  0.21385948108E+02  0.76427364112E+01  0.27836634223E+02  0.83996065089E+02  0.75925559263E+02 0.  0.
          5    1    3    3  501    0  0.10095218108E+03 -0.18056784929E+02  0.24995392693E+02  0.10566101458E+03  0.47000000000E+01 0. -1.
        -11    1    4    4    0    0 -0.16453040100E+02 -0.59785129562E+01  0.54453932548E+02  0.57198565678E+02  0.00000000000E+00 0.  1.
         12    1    4    4    0    0 -0.10919582753E+02 -0.22001167674E+02 -0.26576126733E+02  0.36188108249E+02  0.00000000000E+00 0. -1.
         -5    1    5    5    0  502 -0.94965506335E+02  0.38393729147E+02  0.12848379605E+03  0.16438583174E+03  0.47000000000E+01 0.  1.
         13    1    6    6    0    0 -0.24419349438E+02 -0.14360512487E+02  0.12040564568E+02  0.30781555208E+02  0.00000000000E+00 0. -1.
        -14    1    6    6    0    0  0.45805297546E+02  0.22003248899E+02  0.15796069654E+02  0.53214509882E+02  0.00000000000E+00 0.  1.
</event>
<event>
12    1  0.8417180E-002  0.2478760E+03  0.7818608E-02  0.1114852E+00
         21   -1    0    0  501  502  0.00000000000E+00  0.00000000000E+00  0.29144024489E+03  0.29144024489E+03  0.00000000000E+00 0. -1.
         21   -1    0    0  502  503 -0.00000000000E+00 -0.00000000000E+00 -0.24978168099E+03  0.24978168099E+03  0.00000000000E+00 0. -1.
         -6    2    1    2    0  503  0.10746485925E+03 -0.14250624659E+03  0.12917409771E+03  0.27951472519E+03  0.17200525512E+03 0.  0.
        -24    2    3    3    0    0  0.68995138590E+02 -0.10886565379E+03  0.15953455877E+03  0.21988707652E+03  0.79290549584E+02 0.  0.
          6    2    1    2  501    0 -0.10746485925E+03  0.14250624659E+03 -0.87515533813E+02  0.26170720070E+03  0.17022033941E+03 0.  0.
         24    2    5    5    0    0 -0.13179896358E+03  0.15230794337E+03 -0.71669099100E+02  0.23070040488E+03  0.86703752138E+02 0.  0.
          5    1    5    5  501    0  0.24334104331E+02 -0.98016967808E+01 -0.15846434713E+02  0.31006795812E+02  0.47000000000E+01 0. -1.
        -13    1    6    6    0    0 -0.66005449270E+02  0.17561839988E+02 -0.12176137574E+02  0.69378641406E+02  0.00000000000E+00 0.  1.
         14    1    6    6    0    0 -0.65793514311E+02  0.13474610338E+03 -0.59492961526E+02  0.16132176348E+03  0.00000000000E+00 0. -1.
         -5    1    3    3    0  503  0.38469720660E+02 -0.33640592791E+02 -0.30360461054E+02  0.59627648674E+02  0.47000000000E+01 0.  1.
         11    1    4    4    0    0  0.27383629483E+02 -0.10451737137E+03  0.12794603812E+03  0.16746322806E+03  0.00000000000E+00 0. -1.
        -12    1    4    4    0    0  0.41611509107E+02 -0.43482824198E+01  0.31588520649E+02  0.52423848456E+02  0.00000000000E+00 0.  1.
</event>
<event>
12    1  0.8417180E-002  0.2337187E+03  0.7818608E-02  0.1124841E+00
         21   -1    0    0  503  502  0.00000000000E+00  0.00000000000E+00  0.13809178213E+04  0.13809178213E+04  0.00000000000E+00 0. -1.
         21   -1    0    0  501  503 -0.00000000000E+00 -0.00000000000E+00 -0.42937102741E+02  0.42937102741E+02  0.00000000000E+00 0. -1.
          6    2    1    2  501    0  0.37188420025E+01 -0.15157541819E+03  0.44184843844E+03  0.49774614109E+03  0.17184947259E+03 0.  0.
         24    2    3    3    0    0  0.68397437619E+02 -0.73149283559E+02  0.23667684310E+03  0.26872331939E+03  0.78531949971E+02 0.  0.
         -6    2    1    2    0  502 -0.37188420025E+01  0.15157541819E+03  0.89613228015E+03  0.92610878299E+03  0.17786364781E+03 0.  0.
        -24    2    5    5    0    0 -0.69537362587E+02  0.69118432745E+02  0.46766786894E+03  0.48482081151E+03  0.82007201444E+02 0.  0.
          5    1    3    3  501    0 -0.64678595616E+02 -0.78426134628E+02  0.20517159534E+03  0.22902282170E+03  0.47000000000E+01 0. -1.
        -11    1    4    4    0    0  0.41226268618E+02  0.35111425648E+01  0.48686199943E+02  0.63892717983E+02  0.00000000000E+00 0.  1.
         12    1    4    4    0    0  0.27171169000E+02 -0.76660426124E+02  0.18799064316E+03  0.20483060141E+03  0.00000000000E+00 0. -1.
         -5    1    5    5    0  502  0.65818520585E+02  0.82456985443E+02  0.42846441121E+03  0.44128797148E+03  0.47000000000E+01 0.  1.
         13    1    6    6    0    0  0.89241765285E+01  0.42332406004E+02  0.12533974376E+03  0.13259609681E+03  0.00000000000E+00 0. -1.
        -14    1    6    6    0    0 -0.78461539116E+02  0.26786026741E+02  0.34232812518E+03  0.35222471469E+03  0.00000000000E+00 0.  1.
</event>
<event>
12    1  0.8417180E-002  0.2047279E+03  0.7818608E-02  0.1146021E+00
         21   -1    0    0  503  502  0.00000000000E+00  0.00000000000E+00  0.16809051787E+03  0.16809051787E+03  0.00000000000E+00 0. -1.
         21   -1    0    0  501  503 -0.00000000000E+00 -0.00000000000E+00 -0.35598274829E+03  0.35598274829E+03  0.00000000000E+00 0. -1.
          6    2    1    2  501    0  0.10838243564E+03 -0.14335190773E+02 -0.23836115030E+03  0.31421259768E+03  0.17309323649E+03 0.  0.
         24    2    3    3    0    0  0.21595418120E+02  0.48550981164E+02 -0.94569512615E+02  0.13481142127E+03  0.80044779545E+02 0.  0.
         -6    2    1    2    0  502 -0.10838243564E+03  0.14335190773E+02  0.50468919889E+02  0.20986066847E+03  0.17187826578E+03 0.  0.
        -24    2    5    5    0    0 -0.52866009438E+02  0.69240312290E+02  0.58175117600E+02  0.13125964157E+03  0.79093067949E+02 0.  0.
          5    1    3    3  501    0  0.86787017517E+02 -0.62886171936E+02 -0.14379163769E+03  0.17940117642E+03  0.47000000000E+01 0. -1.
        -11    1    4    4    0    0 -0.81815769298E+01 -0.29857307601E+01  0.10750808102E+02  0.13835919343E+02  0.00000000000E+00 0.  1.
         12    1    4    4    0    0  0.29776995050E+02  0.51536711924E+02 -0.10532032072E+03  0.12097550192E+03  0.00000000000E+00 0. -1.
         -5    1    5    5    0  502 -0.55516426199E+02 -0.54905121517E+02 -0.77061977103E+01  0.78601026901E+02  0.47000000000E+01 0.  1.
         13    1    6    6    0    0 -0.55713869636E+02  0.43710343839E+02  0.35583914937E+01  0.70903396099E+02  0.00000000000E+00 0. -1.
        -14    1    6    6    0    0  0.28478601990E+01  0.25529968451E+02  0.54616726106E+02  0.60356245471E+02  0.00000000000E+00 0.  1.
</event>
<event>
12    1  0.8417180E-002  0.1848025E+03  0.7818608E-02  0.1163459E+00
         21   -1    0    0  501  502  0.00000000000E+00  0.00000000000E+00  0.31330740855E+03  0.31330740855E+03  0.00000000000E+00 0. -1.
         21   -1    0    0  502  503 -0.00000000000E+00 -0.00000000000E+00 -0.12884198731E+03  0.12884198731E+03  0.00000000000E+00 0. -1.
         -6    2    1    2    0  503  0.23521763893E+01 -0.65124841126E+02  0.18040870340E+03  0.25826204131E+03  0.17293121191E+03 0.  0.
        -24    2    3    3    0    0 -0.80277986583E+01 -0.10640919467E+03  0.95578296498E+02  0.16323346842E+03  0.78246994763E+02 0.  0.
          6    2    1    2  501    0 -0.23521763893E+01  0.65124841126E+02  0.40567178311E+01  0.18388735455E+03  0.17190498695E+03 0.  0.
         24    2    5    5    0    0  0.29966066517E+02 -0.21315375063E+02 -0.19651633419E+02  0.88490521698E+02  0.78051748076E+02 0.  0.
          5    1    5    5  501    0 -0.32318242907E+02  0.86440216189E+02  0.23708351250E+02  0.95396832853E+02  0.47000000000E+01 0. -1.
        -11    1    6    6    0    0  0.23455218916E+02  0.20782592554E+02  0.13883727877E+02  0.34275666988E+02  0.00000000000E+00 0.  1.
         12    1    6    6    0    0  0.65108476011E+01 -0.42097967618E+02 -0.33535361296E+02  0.54214854710E+02  0.00000000000E+00 0. -1.
         -5    1    3    3    0  503  0.10379975048E+02  0.41284353547E+02  0.84830406907E+02  0.95028572891E+02  0.47000000000E+01 0.  1.
         11    1    4    4    0    0  0.21394056881E+02 -0.50277343972E+01  0.35551883789E+02  0.41796174753E+02  0.00000000000E+00 0. -1.
        -12    1    4    4    0    0 -0.29421855540E+02 -0.10138146028E+03  0.60026412709E+02  0.12143729367E+03  0.00000000000E+00 0.  1.
</event>
<event>
12    1  0.8417180E-002  0.2008226E+03  0.7818608E-02  0.1149059E+00
         21   -1    0    0  503  502  0.00000000000E+00  0.00000000000E+00  0.75878599394E+03  0.75878599394E+03  0.00000000000E+00 0.  1.
         21   -1    0    0  501  503 -0.00000000000E+00 -0.00000000000E+00 -0.58440455352E+02  0.58440455352E+02  0.00000000000E+00 0. -1.
          6    2    1    2  501    0  0.10339537857E+02 -0.10335875225E+03  0.47324893705E+03  0.51407208659E+03  0.17180109453E+03 0.  0.
         24    2    3    3    0    0 -0.58029899000E+02 -0.72547730546E+02  0.33983153478E+03  0.36095124482E+03  0.78547353382E+02 0.  0.
         -6    2    1    2    0  502 -0.10339537857E+02  0.10335875225E+03  0.22709660154E+03  0.30315436270E+03  0.17187135737E+03 0.  0.
        -24    2    5    5    0    0 -0.14858723238E+02  0.72931996621E+02  0.24424842129E+03  0.26762289193E+03  0.80155244334E+02 0.  0.
          5    1    3    3  501    0  0.68369436857E+02 -0.30811021704E+02  0.13341740227E+03  0.15312084177E+03  0.47000000000E+01 0. -1.
        -11    1    4    4    0    0 -0.65789919187E+01 -0.13978012205E+02  0.20207911448E+03  0.20266878513E+03  0.00000000000E+00 0.  1.
         12    1    4    4    0    0 -0.51450907081E+02 -0.58569718341E+02  0.13775242030E+03  0.15828245969E+03  0.00000000000E+00 0. -1.
         -5    1    5    5    0  502  0.45191853813E+01  0.30426755629E+02 -0.17151819751E+02  0.35531470774E+02  0.47000000000E+01 0.  1.
         13    1    6    6    0    0 -0.25820530220E+02  0.14024788046E+02  0.20091427574E+02  0.35595785180E+02  0.00000000000E+00 0. -1.
        -14    1    6    6    0    0  0.10961806982E+02  0.58907208575E+02  0.22415699372E+03  0.23202710675E+03  0.00000000000E+00 0.  1.
</event>
<event>
12    1  0.8417180E-002  0.1739096E+03  0.7818608E-02  0.1173887E+00
         21   -1    0    0  501  502  0.00000000000E+00  0.00000000000E+00  0.14249131027E+03  0.14249131027E+03  0.00000000000E+00 0.  1.
         21   -1    0    0  502  503 -0.00000000000E+00 -0.00000000000E+00 -0.28456158425E+03  0.28456158425E+03  0.00000000000E+00 0.  1.
         -6    2    1    2    0  503 -0.20679750274E+02 -0.13210035055E+02 -0.17890210334E+03  0.24950051499E+03  0.17216964687E+03 0.  0.
        -24    2    3    3    0    0 -0.14019136611E+02  0.60544151949E+02 -0.11856994149E+03  0.15386525147E+03  0.75852185592E+02 0.  0.
          6    2    1    2  501    0  0.20679750274E+02  0.13210035055E+02  0.36831829357E+02  0.17755237952E+03  0.17194797679E+03 0.  0.
         24    2    5    5    0    0  0.72159390475E+02 -0.36818370899E+01 -0.80154552282E+01  0.10706225515E+03  0.78597362530E+02 0.  0.
          5    1    5    5  501    0 -0.51479640201E+02  0.16891872145E+02  0.44847284585E+02  0.70490124376E+02  0.47000000000E+01 0. -1.
        -11    1    6    6    0    0  0.84644835720E+00 -0.63448136611E+01  0.26875108325E+02  0.27626881523E+02  0.00000000000E+00 0.  1.
         12    1    6    6    0    0  0.71312942118E+02  0.26629765712E+01 -0.34890563553E+02  0.79435373624E+02  0.00000000000E+00 0. -1.
         -5    1    3    3    0  503 -0.66606136622E+01 -0.73754187004E+02 -0.60332161849E+02  0.95635263519E+02  0.47000000000E+01 0.  1.
         11    1    4    4    0    0 -0.19326925871E+01  0.72713857785E+02 -0.64768904969E+02  0.97396362691E+02  0.00000000000E+00 0. -1.
        -12    1    4    4    0    0 -0.12086444024E+02 -0.12169705837E+02 -0.53801036525E+02  0.56468888783E+02  0.00000000000E+00 0.  1.
</event>
<event>
12    1  0.8417180E-002  0.1786198E+03  0.7818608E-02  0.1169827E+00
         21   -1    0    0  503  502  0.00000000000E+00  0.00000000000E+00  0.35384897202E+03  0.35384897202E+03  0.00000000000E+00 0. -1.
         21   -1    0    0  501  503 -0.00000000000E+00 -0.00000000000E+00 -0.19845883476E+03  0.19845883476E+03  0.00000000000E+00 0. -1.
          6    2    1    2  501    0 -0.40580670389E+02  0.20406200656E+02 -0.12733048793E+03  0.21935836457E+03  0.17274789468E+03 0.  0.
         24    2    3    3    0    0  0.42221388033E+01  0.43100069981E+02 -0.63028966314E+01  0.88239825562E+02  0.76623089345E+02 0.  0.
         -6    2    1    2    0  502  0.40580670389E+02 -0.20406200656E+02  0.28272062519E+03  0.33294944220E+03  0.16988577138E+03 0.  0.
        -24    2    5    5    0    0 -0.90585343501E+00  0.45159602098E+02  0.14646247877E+03  0.17607886301E+03  0.86673514283E+02 0.  0.
          5    1    3    3  501    0 -0.44802809192E+02 -0.22693869325E+02 -0.12102759130E+03  0.13111853901E+03  0.47000000000E+01 0. -1.
        -13    1    4    4    0    0  0.22712339776E+01  0.65060860763E+02 -0.10064738984E+02  0.65873918039E+02  0.00000000000E+00 0.  1.
         14    1    4    4    0    0  0.19509048258E+01 -0.21960790782E+02  0.37618423526E+01  0.22365907523E+02  0.00000000000E+00 0. -1.
         -5    1    5    5    0  502  0.41486523824E+02 -0.65565802754E+02  0.13625814642E+03  0.15687057919E+03  0.47000000000E+01 0.  1.
         13    1    6    6    0    0  0.38361244889E+02  0.21267851348E+02  0.37095138793E+02  0.57445242906E+02  0.00000000000E+00 0. -1.
        -14    1    6    6    0    0 -0.39267098324E+02  0.23891750750E+02  0.10936733998E+03  0.11863362010E+03  0.00000000000E+00 0.  1.
</event>
<event>
12    1  0.8417180E-002  0.1757423E+03  0.7818608E-02  0.1172286E+00
         21   -1    0    0  503  502  0.00000000000E+00  0.00000000000E+00  0.43204096269E+03  0.43204096269E+03  0.00000000000E+00 0.  1.
         21   -1    0    0  501  503 -0.00000000000E+00 -0.00000000000E+00 -0.23521562704E+03  0.23521562704E+03  0.00000000000E+00 0.  1.
          6    2    1    2  501    0  0.15358706545E+02 -0.27605343558E+02 -0.18044774755E+03  0.25105911958E+03  0.17167220820E+03 0.  0.
         24    2    3    3    0    0  0.64356446150E+02  0.15118651228E+02 -0.13998838532E+03  0.17434426959E+03  0.80180113108E+02 0.  0.
         -6    2    1    2    0  502 -0.15358706545E+02  0.27605343558E+02  0.37727308319E+03  0.41619747015E+03  0.17287975589E+03 0.  0.
        -24    2    5    5    0    0 -0.26310848861E+01  0.66418139603E+02  0.13467731517E+03  0.17014214680E+03  0.79950478536E+02 0.  0.
          5    1    3    3  501    0 -0.48997739605E+02 -0.42723994786E+02 -0.40459362230E+02  0.76714849990E+02  0.47000000000E+01 0. -1.
        -13    1    4    4    0    0 -0.18876034250E+02 -0.87723721861E+00 -0.30580213864E+02  0.35947513045E+02  0.00000000000E+00 0.  1.
         14    1    4    4    0    0  0.83232480399E+02  0.15995888447E+02 -0.10940817145E+03  0.13839675654E+03  0.00000000000E+00 0. -1.
         -5    1    5    5    0  502 -0.12727621659E+02 -0.38812796045E+02  0.24259576802E+03  0.24605532336E+03  0.47000000000E+01 0.  1.
         11    1    6    6    0    0 -0.82849243430E+01 -0.16434196185E+02  0.41080964112E+02  0.45015201744E+02  0.00000000000E+00 0. -1.
        -12    1    6    6    0    0  0.56538394569E+01  0.82852335788E+02  0.93596351060E+02  0.12512694505E+03  0.00000000000E+00 0.  1.
</event>
<event>
12    1  0.8417180E-002  0.1948422E+03  0.7818608E-02  0.1154523E+00
         21   -1    0    0  501  502  0.00000000000E+00  0.00000000000E+00  0.65413152483E+03  0.65413152483E+03  0.00000000000E+00 0.  1.
         21   -1    0    0  502  503 -0.00000000000E+00 -0.00000000000E+00 -0.57599452699E+02  0.57599452699E+02  0.00000000000E+00 0. -1.
         -6    2    1    2    0  503  0.87912576404E+02 -0.23117106197E+02  0.28922153479E+03  0.34872994851E+03  0.17233821142E+03 0.  0.
        -24    2    3    3    0    0  0.10196057506E+03 -0.68541740367E+02  0.20634980167E+03  0.25307140051E+03  0.79818319122E+02 0.  0.
          6    2    1    2  501    0 -0.87912576404E+02  0.23117106197E+02  0.30731053734E+03  0.36300102902E+03  0.17049034875E+03 0.  0.
         24    2    5    5    0    0 -0.27051248775E+02 -0.36104105980E+02  0.23376109526E+03  0.25056053985E+03  0.78109269274E+02 0.  0.
          5    1    5    5  501    0 -0.60861327629E+02  0.59221212178E+02  0.73549442087E+02  0.11244048917E+03  0.47000000000E+01 0. -1.
        -13    1    6    6    0    0  0.63649209566E+01  0.10341727666E+02  0.14134440020E+03  0.14186508738E+03  0.00000000000E+00 0.  1.
         14    1    6    6    0    0 -0.33416169732E+02 -0.46445833646E+02  0.92416695057E+02  0.10869545247E+03  0.00000000000E+00 0. -1.
         -5    1    3    3    0  503 -0.14047998661E+02  0.45424634169E+02  0.82871733113E+02  0.95658547997E+02  0.47000000000E+01 0.  1.
         11    1    4    4    0    0 -0.44289049150E+01  0.78470472660E+01  0.42042223443E+00  0.90204270629E+01  0.00000000000E+00 0. -1.
        -12    1    4    4    0    0  0.10638947998E+03 -0.76388787633E+02  0.20592937944E+03  0.24405097345E+03  0.00000000000E+00 0.  1.
</event>
<event>
12    1  0.8417180E-002  0.1874269E+03  0.7818608E-02  0.1160970E+00
         21   -1    0    0  501  502  0.00000000000E+00  0.00000000000E+00  0.18548235396E+04  0.18548235396E+04  0.00000000000E+00 0.  1.
         21   -1    0    0  502  503 -0.00000000000E+00 -0.00000000000E+00 -0.23151780420E+02  0.23151780420E+02  0.00000000000E+00 0. -1.
         -6    2    1    2    0  503  0.19859393733E+02 -0.73117223656E+02  0.51327681324E+03  0.54642652235E+03  0.17143025814E+03 0.  0.
        -24    2    3    3    0    0  0.50771548596E+02 -0.32116009533E+02  0.46544366516E+03  0.47609330877E+03  0.80111453629E+02 0.  0.
          6    2    1    2  501    0 -0.19859393733E+02  0.73117223656E+02  0.13183949459E+04  0.13315487977E+04  0.17063541007E+03 0.  0.
         24    2    5    5    0    0 -0.72284394200E+02  0.26283367236E+02  0.66069225669E+03  0.67008322167E+03  0.81125932195E+02 0.  0.
          5    1    5    5  501    0  0.52425000467E+02  0.46833856420E+02  0.65770268924E+03  0.66146557599E+03  0.47000000000E+01 0. -1.
        -13    1    6    6    0    0  0.13681068635E+02 -0.60100841136E+01  0.18538132206E+03  0.18598259951E+03  0.00000000000E+00 0.  1.
         14    1    6    6    0    0 -0.85965462835E+02  0.32293451350E+02  0.47531093463E+03  0.48410062216E+03  0.00000000000E+00 0. -1.
         -5    1    3    3    0  503 -0.30912154863E+02 -0.41001214124E+02  0.47833148080E+02  0.70333213585E+02  0.47000000000E+01 0.  1.
         13    1    4    4    0    0  0.14264561636E+01  0.24774740053E+02  0.11248160569E+03  0.11518651892E+03  0.00000000000E+00 0. -1.
        -14    1    4    4    0    0  0.49345092432E+02 -0.56890749586E+02  0.35296205946E+03  0.36090678985E+03  0.00000000000E+00 0.  1.
</event>
<event>
12    1  0.8417180E-002  0.2193327E+03  0.7818608E-02  0.1134691E+00
         21   -1    0    0  501  502  0.00000000000E+00  0.00000000000E+00  0.66105917350E+03  0.66105917350E+03  0.00000000000E+00 0. -1.
         21   -1    0    0  502  503 -0.00000000000E+00 -0.00000000000E+00 -0.72275624695E+02  0.72275624695E+02  0.00000000000E+00 0.  1.
         -6    2    1    2    0  503  0.12184930323E+03  0.56827328178E+02  0.28370194230E+03  0.35759334470E+03  0.17120049704E+03 0.  0.
        -24    2    3    3    0    0  0.26149651595E+02  0.98459441534E+01  0.44458319003E+02  0.95629081768E+02  0.79922664223E+02 0.  0.
          6    2    1    2  501    0 -0.12184930323E+03 -0.56827328178E+02  0.30508160650E+03  0.37574145349E+03  0.17329239833E+03 0.  0.
         24    2    5    5    0    0 -0.10053859497E+03  0.14414774579E+02  0.11489007490E+03  0.17147571435E+03  0.76735887926E+02 0.  0.
          5    1    5    5  501    0 -0.21310708255E+02 -0.71242102757E+02  0.19019153161E+03  0.20426573914E+03  0.47000000000E+01 0. -1.
        -13    1    6    6    0    0  0.49625519072E+01 -0.47112748157E+01 -0.65523525174E+01  0.94739830764E+01  0.00000000000E+00 0.  1.
         14    1    6    6    0    0 -0.10550114688E+03  0.19126049394E+02  0.12144242741E+03  0.16200173127E+03  0.00000000000E+00 0. -1.
         -5    1    3    3    0  503  0.95699651635E+02  0.46981384025E+02  0.23924362329E+03  0.26196426293E+03  0.47000000000E+01 0.  1.
         11    1    4    4    0    0  0.32199404526E+02  0.41450342352E+02  0.27384355126E+02  0.59201650641E+02  0.00000000000E+00 0. -1.
        -12    1    4    4    0    0 -0.60497529308E+01 -0.31604398199E+02  0.17073963877E+02  0.36427431127E+02  0.00000000000E+00 0.  1.
</event>
<event>
12    1  0.8417180E-002  0.2793100E+03  0.7818608E-02  0.1096443E+00
         21   -1    0    0  501  502  0.00000000000E+00  0.00000000000E+00  0.30060015266E+03  0.30060015266E+03  0.00000000000E+00 0.  1.
         21   -1    0    0  502  503 -0.00000000000E+00 -0.00000000000E+00 -0.27477195664E+03  0.27477195664E+03  0.00000000000E+00 0.  1.
         -6    2    1    2    0  503 -0.17781376576E+03  0.12496256078E+03  0.86034606473E+02  0.28964687997E+03  0.17105550174E+03 0.  0.
        -24    2    3    3    0    0 -0.83417104614E+02  0.13541596975E+03  0.34866905492E+02  0.18166434890E+03  0.80562623805E+02 0.  0.
          6    2    1    2  501    0  0.17781376576E+03 -0.12496256078E+03 -0.60206410455E+02  0.28572522932E+03  0.17544434423E+03 0.  0.
         24    2    5    5    0    0  0.14171980027E+03 -0.34847250814E+02 -0.74638925913E+02  0.18747080989E+03  0.90969789606E+02 0.  0.
          5    1    5    5  501    0  0.36093965482E+02 -0.90115309969E+02  0.14432515458E+02  0.98254419430E+02  0.47000000000E+01 0. -1.
        -13    1    6    6    0    0  0.32717165361E+02 -0.38248776693E+01 -0.66057867262E+02  0.73815204569E+02  0.00000000000E+00 0.  1.
         14    1    6    6    0    0  0.10900263491E+03 -0.31022373145E+02 -0.85810586514E+01  0.11365560532E+03  0.00000000000E+00 0. -1.
         -5    1    3    3    0  503 -0.94396661143E+02 -0.10453408972E+02  0.51167700981E+02  0.10798253108E+03  0.47000000000E+01 0.  1.
         13    1    4    4    0    0 -0.20640935041E+01 -0.84790215758E+01 -0.69512009397E+01  0.11156768501E+02  0.00000000000E+00 0. -1.
        -14    1    4    4    0    0 -0.81353011110E+02  0.14389499133E+03  0.41818106432E+02  0.17050758040E+03  0.00000000000E+00 0.  1.
</event>
<event>
12    1  0.8417180E-002  0.2647042E+03  0.7818608E-02  0.1104559E+00
         21   -1    0    0  501  502  0.00000000000E+00  0.00000000000E+00  0.16477738953E+03  0.16477738953E+03  0.00000000000E+00 0.  1.
         21   -1    0    0  502  503 -0.00000000000E+00 -0.00000000000E+00 -0.91834176781E+03  0.91834176781E+03  0.00000000000E+00 0. -1.
         -6    2    1    2    0  503  0.12452891822E+03 -0.15642082568E+03 -0.77501037247E+03  0.81896847651E+03  0.17347438401E+03 0.  0.
        -24    2    3    3    0    0 -0.49660187350E+01 -0.32090106306E+02 -0.25382194956E+03  0.26770943699E+03  0.78665903108E+02 0.  0.
          6    2    1    2  501    0 -0.12452891822E+03  0.15642082568E+03  0.21445994197E+02  0.26415068082E+03  0.17129134634E+03 0.  0.
         24    2    5    5    0    0 -0.41780298995E+02  0.13530292975E+03  0.56017886718E+02  0.17189773906E+03  0.79739280634E+02 0.  0.
          5    1    5    5  501    0 -0.82748619229E+02  0.21117895926E+02 -0.34571892520E+02  0.92252941769E+02  0.47000000000E+01 0. -1.
        -13    1    6    6    0    0  0.66402452166E+01  0.10272911791E+03  0.25556247703E+02  0.10606830968E+03  0.00000000000E+00 0.  1.
         14    1    6    6    0    0 -0.48420544212E+02  0.32573811847E+02  0.30461639015E+02  0.65829429372E+02  0.00000000000E+00 0. -1.
         -5    1    3    3    0  503  0.12949493696E+03 -0.12433071937E+03 -0.52118842291E+03  0.55125903952E+03  0.47000000000E+01 0.  1.
         11    1    4    4    0    0 -0.30295016157E+01  0.25898944170E+02 -0.98869972061E+02  0.10225069469E+03  0.00000000000E+00 0. -1.
        -12    1    4    4    0    0 -0.19365171193E+01 -0.57989050476E+02 -0.15495197750E+03  0.16545874230E+03  0.00000000000E+00 0.  1.
</event>
<event>
12    1  0.8417180E-002  0.2047743E+03  0.7818608E-02  0.1146090E+00
         21   -1    0    0  503  502  0.00000000000E+00  0.00000000000E+00  0.11648782946E+04  0.11648782946E+04  0.00000000000E+00 0.  1.
         21   -1    0    0  501  503 -0.00000000000E+00 -0.00000000000E+00 -0.87681166534E+02  0.87681166534E+02  0.00000000000E+00 0. -1.
          6    2    1    2  501    0  0.25105625963E+02 -0.10535554803E+03  0.55677509141E+02  0.21071741131E+03  0.17196441041E+03 0.  0.
         24    2    3    3    0    0 -0.31716314557E+02 -0.98595923465E+02  0.78181293976E+02  0.14904946355E+03  0.73323578223E+02 0.  0.
         -6    2    1    2    0  502 -0.25105625963E+02  0.10535554803E+03  0.10215196189E+04  0.10418420498E+04  0.17378849497E+03 0.  0.
        -24    2    5    5    0    0 -0.59526540498E+01  0.64638467373E+02  0.27328396648E+03  0.29223988963E+03  0.80662638184E+02 0.  0.
          5    1    3    3  501    0  0.56821940520E+02 -0.67596245694E+01 -0.22503784834E+02  0.61667947757E+02  0.47000000000E+01 0. -1.
        -11    1    4    4    0    0 -0.14693577724E+01  0.88649830775E+01 -0.45756922401E+01  0.10083843350E+02  0.00000000000E+00 0.  1.
         12    1    4    4    0    0 -0.30246956784E+02 -0.10746090654E+03  0.82756986216E+02  0.13896562020E+03  0.00000000000E+00 0. -1.
         -5    1    5    5    0  502 -0.19152971913E+02  0.40717080662E+02  0.74823565245E+03  0.74960216021E+03  0.47000000000E+01 0.  1.
         13    1    6    6    0    0  0.68047368226E+01  0.60334406226E+02  0.27202332710E+03  0.27871712453E+03  0.00000000000E+00 0. -1.
        -14    1    6    6    0    0 -0.12757390872E+02  0.43040611464E+01  0.12606393781E+01  0.13522765097E+02  0.00000000000E+00 0.  1.
</event>
<event>
12    1  0.8417180E-002  0.1846206E+03  0.7818608E-02  0.1163601E+00
         21   -1    0    0  501  502  0.00000000000E+00  0.00000000000E+00  0.20367469953E+03  0.20367469953E+03  0.00000000000E+00 0. -1.
         21   -1    0    0  502  503 -0.00000000000E+00 -0.00000000000E+00 -0.16871378638E+03  0.16871378638E+03  0.00000000000E+00 0. -1.
         -6    2    1    2    0  503  0.31333252540E+02  0.58927165035E+02 -0.34359271735E+01  0.18381734550E+03  0.17123909430E+03 0.  0.
        -24    2    3    3    0    0  0.33650508111E+02  0.88457679941E+02 -0.45794731138E+02  0.13191571491E+03  0.79671077589E+02 0.  0.
          6    2    1    2  501    0 -0.31333252540E+02 -0.58927165035E+02  0.38396840319E+02  0.18857114042E+03  0.17213533675E+03 0.  0.
         24    2    5    5    0    0 -0.11997551677E+02  0.19144830114E+02 -0.24341412704E+02  0.86457066233E+02  0.79823894686E+02 0.  0.
          5    1    5    5  501    0 -0.19335700862E+02 -0.78071995149E+02  0.62738253023E+02  0.10211407419E+03  0.47000000000E+01 0. -1.
        -13    1    6    6    0    0  0.26225182623E+02  0.22637901981E+02 -0.32178520995E+02  0.47283105050E+02  0.00000000000E+00 0.  1.
         14    1    6    6    0    0 -0.38222734300E+02 -0.34930718672E+01  0.78371082909E+01  0.39173961184E+02  0.00000000000E+00 0. -1.
         -5    1    3    3    0  503 -0.23172555708E+01 -0.29530514906E+02  0.42358803964E+02  0.51901630584E+02  0.47000000000E+01 0.  1.
         11    1    4    4    0    0  0.85869874847E+01  0.39170716541E+01 -0.42650208011E+02  0.43682033467E+02  0.00000000000E+00 0. -1.
        -12    1    4    4    0    0  0.25063520626E+02  0.84540608287E+02 -0.31445231264E+01  0.88233681445E+02  0.00000000000E+00 0.  1.
</event>
<event>
12    1  0.8417180E-002  0.2176776E+03  0.7818608E-02  0.1135649E+00
         21   -1    0    0  503  502  0.00000000000E+00  0.00000000000E+00  0.24240288238E+03  0.24240288238E+03  0.00000000000E+00 0. -1.
         21   -1    0    0  501  503 -0.00000000000E+00 -0.00000000000E+00 -0.21933890709E+03  0.21933890709E+03  0.00000000000E+00 0. -1.
          6    2    1    2  501    0 -0.10693315749E+03 -0.82135244602E+02 -0.64793288254E+02  0.22700267543E+03  0.17073706648E+03 0.  0.
         24    2    3    3    0    0 -0.13117257287E+03 -0.94038710403E+02 -0.29478692478E+02  0.18229862158E+03  0.79462388528E+02 0.  0.
         -6    2    1    2    0  502  0.10693315749E+03  0.82135244602E+02  0.87857263547E+02  0.23473911404E+03  0.17088784136E+03 0.  0.
        -24    2    5    5    0    0  0.10710279447E+03  0.27719428416E+02  0.25842784785E+01  0.13347371121E+03  0.74626924061E+02 0.  0.
          5    1    3    3  501    0  0.24239415378E+02  0.11903465801E+02 -0.35314595776E+02  0.44704053852E+02  0.47000000000E+01 0. -1.
        -11    1    4    4    0    0 -0.83147221938E+02 -0.12070070120E+02 -0.48605628897E+01  0.84159207342E+02  0.00000000000E+00 0.  1.
         12    1    4    4    0    0 -0.48025350934E+02 -0.81968640283E+02 -0.24618129588E+02  0.98139414236E+02  0.00000000000E+00 0. -1.
         -5    1    5    5    0  502 -0.16963697089E+00  0.54415816186E+02  0.85272985069E+02  0.10126540283E+03  0.47000000000E+01 0.  1.
         11    1    6    6    0    0  0.85125622912E+02  0.47373889585E+02  0.19685938703E+02  0.99389100375E+02  0.00000000000E+00 0. -1.
        -12    1    6    6    0    0  0.21977171553E+02 -0.19654461170E+02 -0.17101660225E+02  0.34084610835E+02  0.00000000000E+00 0.  1.
</event>
<event>
12    1  0.8417180E-002  0.1780597E+03  0.7818608E-02  0.1169708E+00
         21   -1    0    0  503  502  0.00000000000E+00  0.00000000000E+00  0.31185297048E+02  0.31185297048E+02  0.00000000000E+00 0. -1.
         21   -1    0    0  501  503 -0.00000000000E+00 -0.00000000000E+00 -0.16425293366E+04  0.16425293366E+04  0.00000000000E+00 0. -1.
          6    2    1    2  501    0 -0.17818399810E+02 -0.36320548916E+02 -0.28904519882E+03  0.33948844058E+03  0.17340298925E+03 0.  0.
         24    2    3    3    0    0  0.43964041986E+02  0.11258430385E+02 -0.20703202659E+03  0.22622291270E+03  0.79088285838E+02 0.  0.
         -6    2    1    2    0  502  0.17818399810E+02  0.36320548916E+02 -0.13222988407E+04  0.13342261930E+04  0.17334541362E+03 0.  0.
        -24    2    5    5    0    0  0.49668030503E+02  0.56878315602E+02 -0.12121049380E+04  0.12175994082E+04  0.87452170472E+02 0.  0.
          5    1    3    3  501    0 -0.61782441796E+02 -0.47578979301E+02 -0.82013172237E+02  0.11326552788E+03  0.47000000000E+01 0. -1.
        -11    1    4    4    0    0  0.11937395459E+02  0.43826962960E+02 -0.98396567529E+02  0.10837522131E+03  0.00000000000E+00 0.  1.
         12    1    4    4    0    0  0.32026646526E+02 -0.32568532575E+02 -0.10863545906E+03  0.11784769139E+03  0.00000000000E+00 0. -1.
         -5    1    5    5    0  502 -0.31849630693E+02 -0.20557766686E+02 -0.11019390275E+03  0.11662678487E+03  0.47000000000E+01 0.  1.
         13    1    6    6    0    0  0.38983349023E+01  0.40680923755E+02 -0.95956079880E+03  0.96043066442E+03  0.00000000000E+00 0. -1.
        -14    1    6    6    0    0  0.45769695601E+02  0.16197391847E+02 -0.25254413915E+03  0.25716874374E+03  0.00000000000E+00 0.  1.
</event>
<event>
12    1  0.8417180E-002  0.1834354E+03  0.7818608E-02  0.1164811E+00
         21   -1    0    0  503  502  0.00000000000E+00  0.00000000000E+00  0.15257852274E+03  0.15257852274E+03  0.00000000000E+00 0. -1.
         21   -1    0    0  501  503 -0.00000000000E+00 -0.00000000000E+00 -0.24029695270E+03  0.24029695270E+03  0.00000000000E+00 0. -1.
          6    2    1    2  501    0  0.59679837060E+01  0.62967086688E+02 -0.10240263495E+03  0.21008297868E+03  0.17218619994E+03 0.  0.
         24    2    3    3    0    0 -0.24084433151E+02  0.75279168882E+02 -0.12763967122E+03  0.16868571879E+03  0.76915361709E+02 0.  0.
         -6    2    1    2    0  502 -0.59679837060E+01 -0.62967086688E+02  0.14684204997E+02  0.18279249676E+03  0.17087129706E+03 0.  0.
        -24    2    5    5    0    0 -0.16936671338E+02 -0.47260029465E+02  0.74159291036E+02  0.12013150718E+03  0.80072575520E+02 0.  0.
          5    1    3    3  501    0  0.30052416857E+02 -0.12312082194E+02  0.25237036266E+02  0.41397259890E+02  0.47000000000E+01 0. -1.
        -11    1    4    4    0    0 -0.59177113083E+01 -0.43752050826E+01  0.76662848775E+01  0.10627024535E+02  0.00000000000E+00 0.  1.
         12    1    4    4    0    0 -0.18166721842E+02  0.79654373965E+02 -0.13530595610E+03  0.15805869426E+03  0.00000000000E+00 0. -1.
         -5    1    5    5    0  502  0.10968687632E+02 -0.15707057223E+02 -0.59475086039E+02  0.62660989573E+02  0.47000000000E+01 0.  1.
         13    1    6    6    0    0  0.91393634211E+01 -0.51711939295E+02  0.13900568286E+02  0.54321988440E+02  0.00000000000E+00 0. -1.
        -14    1    6    6    0    0 -0.26076034759E+02  0.44519098301E+01  0.60258722750E+02  0.65809518745E+02  0.00000000000E+00 0.  1.
</event>
<event>
12    1  0.8417180E-002  0.1973702E+03  0.7818608E-02  0.1152827E+00
         21   -1    0    0  501  502  0.00000000000E+00  0.00000000000E+00  0.46069001917E+03  0.46069001917E+03  0.00000000000E+00 0.  1.
         21   -1    0    0  502  503 -0.00000000000E+00 -0.00000000000E+00 -0.13611738447E+03  0.13611738447E+03  0.00000000000E+00 0. -1.
         -6    2    1    2    0  503  0.28913522887E+02  0.83641985364E+02 -0.23323334796E+02  0.19874348237E+03  0.17641717694E+03 0.  0.
        -24    2    3    3    0    0  0.73770050108E+02  0.37796585662E+02  0.26736819058E+02  0.11724490747E+03  0.78491455921E+02 0.  0.
          6    2    1    2  501    0 -0.28913522887E+02 -0.83641985364E+02  0.34789596950E+03  0.39806392126E+03  0.17202123792E+03 0.  0.
         24    2    5    5    0    0  0.27575434063E+01 -0.10290758711E+03  0.33313133007E+03  0.35788551377E+03  0.80672066816E+02 0.  0.
          5    1    5    5  501    0 -0.31671066293E+02  0.19265601746E+02  0.14764639430E+02  0.40178407488E+02  0.47000000000E+01 0. -1.
        -11    1    6    6    0    0 -0.16032678007E+02 -0.23083682166E+02  0.19675459819E+03  0.19875179259E+03  0.00000000000E+00 0.  1.
         12    1    6    6    0    0  0.18790221413E+02 -0.79823904944E+02  0.13637673187E+03  0.15913372118E+03  0.00000000000E+00 0. -1.
         -5    1    3    3    0  503 -0.44856527221E+02  0.45845399702E+02 -0.50060153854E+02  0.81498574908E+02  0.47000000000E+01 0.  1.
         13    1    4    4    0    0  0.10666286408E+02  0.30860953586E+02 -0.20109357813E+02  0.38347808198E+02  0.00000000000E+00 0. -1.
        -14    1    4    4    0    0  0.63103763700E+02  0.69356320764E+01  0.46846176871E+02  0.78897099267E+02  0.00000000000E+00 0.  1.
</event>
<event>
12    1  0.8417180E-002  0.2205609E+03  0.7818608E-02  0.1133522E+00
         21   -1    0    0  503  502  0.00000000000E+00  0.00000000000E+00  0.42735217824E+03  0.42735217824E+03  0.00000000000E+00 0. -1.
         21   -1    0    0  501  503 -0.00000000000E+00 -0.00000000000E+00 -0.12555223671E+03  0.12555223671E+03  0.00000000000E+00 0.  1.
          6    2    1    2  501    0 -0.13772215628E+03  0.11308629459E+02  0.65786446934E+02  0.22987268920E+03  0.17151769358E+03 0.  0.
         24    2    3    3    0    0 -0.51460774789E+02 -0.46909315354E+02 -0.29046252772E+01  0.10508924304E+03  0.78655050349E+02 0.  0.
         -6    2    1    2    0  502  0.13772215628E+03 -0.11308629459E+02  0.23601349459E+03  0.32303172575E+03  0.17190651175E+03 0.  0.
        -24    2    5    5    0    0  0.48732815544E+02 -0.34845715560E+02  0.20070323314E+03  0.22433014648E+03  0.80331286695E+02 0.  0.
          5    1    3    3  501    0 -0.86261381492E+02  0.58217944813E+02  0.68691072211E+02  0.12478344616E+03  0.47000000000E+01 0. -1.
        -13    1    4    4    0    0 -0.95452313107E+01  0.18161734686E+02 -0.16715191866E+02  0.26464271891E+02  0.00000000000E+00 0.  1.
         14    1    4    4    0    0 -0.41915543479E+02 -0.65071050041E+02  0.13810566588E+02  0.78624971148E+02  0.00000000000E+00 0. -1.
         -5    1    5    5    0  502  0.88989340738E+02  0.23537086101E+02  0.35310261452E+02  0.98701579272E+02  0.47000000000E+01 0.  1.
         13    1    6    6    0    0 -0.16099279758E+02 -0.10753547995E+02  0.10678933299E+02  0.22110296687E+02  0.00000000000E+00 0. -1.
        -14    1    6    6    0    0  0.64832095302E+02 -0.24092167565E+02  0.19002429984E+03  0.20221984979E+03  0.00000000000E+00 0.  1.
</event>
<event>
12    1  0.8417180E-002  0.2858367E+03  0.7818608E-02  0.1092751E+00
         21   -1    0    0  503  502  0.00000000000E+00  0.00000000000E+00  0.27268527665E+03  0.27268527665E+03  0.00000000000E+00 0.  1.
         21   -1    0    0  501  503 -0.00000000000E+00 -0.00000000000E+00 -0.66608520492E+03  0.66608520492E+03  0.00000000000E+00 0.  1.
          6    2    1    2  501    0 -0.61880112398E+02  0.21771497738E+03 -0.54587529957E+03  0.61618377644E+03  0.17456701859E+03 0.  0.
         24    2    3    3    0    0 -0.57187510505E+02  0.60079273493E+02 -0.32432622894E+03  0.34419643050E+03  0.80023431132E+02 0.  0.
         -6    2    1    2    0  502  0.61880112398E+02 -0.21771497738E+03  0.15247537130E+03  0.32258670513E+03  0.17200140635E+03 0.  0.
        -24    2    5    5    0    0 -0.26600431687E+02 -0.14111403759E+03  0.11039296379E+03  0.19812976607E+03  0.80299708447E+02 0.  0.
          5    1    3    3  501    0 -0.46926018929E+01  0.15763570389E+03 -0.22154907063E+03  0.27198734594E+03  0.47000000000E+01 0. -1.
        -13    1    4    4    0    0 -0.42743542998E+02  0.21443595120E+02 -0.60265105384E+02  0.76933225375E+02  0.00000000000E+00 0.  1.
         14    1    4    4    0    0 -0.14443967507E+02  0.38635678373E+02 -0.26406112355E+03  0.26726320512E+03  0.00000000000E+00 0. -1.
         -5    1    5    5    0  502  0.88480544085E+02 -0.76600939794E+02  0.42082407509E+02  0.12445693906E+03  0.47000000000E+01 0.  1.
         11    1    6    6    0    0 -0.28965049652E+01 -0.10799468539E+01 -0.10917929564E+02  0.11347123521E+02  0.00000000000E+00 0. -1.
        -12    1    6    6    0    0 -0.23703926722E+02 -0.14003409074E+03  0.12131089335E+03  0.18678264255E+03  0.00000000000E+00 0.  1.
</event>
<event>
12    1  0.8417180E-002  0.2278825E+03  0.7818608E-02  0.1128957E+00
         21   -1    0    0  503  502  0.00000000000E+00  0.00000000000E+00  0.10215125846E+04  0.10215125846E+04  0.00000000000E+00 0.  1.
         21   -1    0    0  501  503 -0.00000000000E+00 -0.00000000000E+00 -0.51270602866E+02  0.51270602866E+02  0.00000000000E+00 0.  1.
          6    2    1    2  501    0 -0.85838234724E+02  0.11221189698E+03  0.57984877333E+03  0.62302088363E+03  0.17880354903E+03 0.  0.
         24    2    3    3    0    0 -0.38655387699E+02  0.12023352624E+03  0.54145422665E+03  0.56148391260E+03  0.78365583768E+02 0.  0.
         -6    2    1    2    0  502  0.85838234724E+02 -0.11221189698E+03  0.39039320843E+03  0.44976230386E+03  0.17297271582E+03 0.  0.
        -24    2    5    5    0    0  0.71237981310E+02 -0.71203644745E+02  0.11874936037E+03  0.17461268212E+03  0.79014993286E+02 0.  0.
          5    1    3    3  501    0 -0.47182847024E+02 -0.80216292603E+01  0.38394546678E+02  0.61536971033E+02  0.47000000000E+01 0. -1.
        -13    1    4    4    0    0 -0.57642442376E+02  0.89273113529E+02  0.46289058434E+03  0.47493160879E+03  0.00000000000E+00 0.  1.
         14    1    4    4    0    0  0.18987054676E+02  0.30960412714E+02  0.78563642308E+02  0.86552303802E+02  0.00000000000E+00 0. -1.
         -5    1    5    5    0  502  0.14600253413E+02 -0.41008252238E+02  0.27164384806E+03  0.27514962174E+03  0.47000000000E+01 0.  1.
         13    1    6    6    0    0  0.77066459847E+02 -0.54268363764E+02  0.12417702198E+03  0.15589813125E+03  0.00000000000E+00 0. -1.
        -14    1    6    6    0    0 -0.58284785368E+01 -0.16935280981E+02 -0.54276616082E+01  0.18714550876E+02  0.00000000000E+00 0.  1.
</event>
<event>
12    1  0.8417180E-002  0.1790462E+03  0.7818608E-02  0.1168869E+00
         21   -1    0    0  501  502  0.00000000000E+00  0.00000000000E+00  0.21436394918E+03  0.21436394918E+03  0.00000000000E+00 0.  1.
         21   -1    0    0  502  503 -0.00000000000E+00 -0.00000000000E+00 -0.16613984376E+03  0.16613984376E+03  0.00000000000E+00 0.  1.
         -6    2    1    2    0  503 -0.31268520225E+02  0.37142239632E+02  0.85063290021E+02  0.19770695552E+03  0.17174111514E+03 0.  0.
        -24    2    3    3    0    0 -0.55045161209E+02  0.34804306738E+01 -0.65160228835E+01  0.97171854233E+02  0.79735986421E+02 0.  0.
          6    2    1    2  501    0  0.31268520225E+02 -0.37142239632E+02 -0.36839184602E+02  0.18279683741E+03  0.17233772635E+03 0.  0.
         24    2    5    5    0    0 -0.20714306866E+01 -0.55526827219E+02  0.33020707082E+02  0.10309715201E+03  0.80318965941E+02 0.  0.
          5    1    5    5  501    0  0.33339950911E+02  0.18384587587E+02 -0.69859891684E+02  0.79699685405E+02  0.47000000000E+01 0. -1.
        -13    1    6    6    0    0 -0.90087812964E+01 -0.36369537670E+02 -0.22672282185E+02  0.43794220969E+02  0.00000000000E+00 0.  1.
         14    1    6    6    0    0  0.69373506099E+01 -0.19157289549E+02  0.55692989267E+02  0.59302931039E+02  0.00000000000E+00 0. -1.
         -5    1    3    3    0  503  0.23776640984E+02  0.33661808958E+02  0.91579312905E+02  0.10053510129E+03  0.47000000000E+01 0.  1.
         13    1    4    4    0    0 -0.13117067984E+02  0.32447559593E+02 -0.24947294315E+02  0.42979868424E+02  0.00000000000E+00 0. -1.
        -14    1    4    4    0    0 -0.41928093225E+02 -0.28967128920E+02  0.18431271432E+02  0.54191985809E+02  0.00000000000E+00 0.  1.
</event>
<event>
12    1  0.8417180E-002  0.1811213E+03  0.7818608E-02  0.1167458E+00
         21   -1    0    0  501  502  0.00000000000E+00  0.00000000000E+00  0.36078874388E+03  0.36078874388E+03  0.00000000000E+00 0.  1.
         21   -1    0    0  502  503 -0.00000000000E+00 -0.00000000000E+00 -0.21943977986E+03  0.21943977986E+03  0.00000000000E+00 0.  1.
         -6    2    1    2    0  503  0.27050177749E+02  0.42372758108E+02 -0.15289209348E+03  0.23471047868E+03  0.17083867772E+03 0.  0.
        -24    2    3    3    0    0  0.44597115802E+02  0.76404795659E+02 -0.15518476124E+03  0.19606567385E+03  0.80826003253E+02 0.  0.
          6    2    1    2  501    0 -0.27050177749E+02 -0.42372758108E+02  0.29424105749E+03  0.34551804507E+03  0.17400504822E+03 0.  0.
         24    2    5    5    0    0 -0.33639935469E+02  0.27091952907E+02  0.78275294278E+02  0.11851127895E+03  0.77796416194E+02 0.  0.
          5    1    5    5  501    0  0.65897577193E+01 -0.69464711016E+02  0.21596576322E+03  0.22700676612E+03  0.47000000000E+01 0. -1.
        -13    1    6    6    0    0 -0.37129329251E+02  0.48853023121E+02  0.36816931421E+02  0.71559006407E+02  0.00000000000E+00 0.  1.
         14    1    6    6    0    0  0.34893937820E+01 -0.21761070214E+02  0.41458362857E+02  0.46952272540E+02  0.00000000000E+00 0. -1.
         -5    1    3    3    0  503 -0.17546938053E+02 -0.34032037550E+02  0.22926677592E+01  0.38644804830E+02  0.47000000000E+01 0.  1.
         11    1    4    4    0    0  0.51146364128E+02  0.86691446136E+02 -0.10929156381E+03  0.14857995597E+03  0.00000000000E+00 0. -1.
        -12    1    4    4    0    0 -0.65492483251E+01 -0.10286650477E+02 -0.45893197427E+02  0.47485717871E+02  0.00000000000E+00 0.  1.
</event>
<event>
12    1  0.8417180E-002  0.2095757E+03  0.7818608E-02  0.1142298E+00
         21   -1    0    0  501  502  0.00000000000E+00  0.00000000000E+00  0.13232560994E+03  0.13232560994E+03  0.00000000000E+00 0. -1.
         21   -1    0    0  502  503 -0.00000000000E+00 -0.00000000000E+00 -0.61320897202E+03  0.61320897202E+03  0.00000000000E+00 0.  1.
         -6    2    1    2    0  503 -0.59343095876E+02  0.98697486978E+02 -0.49369799000E+03  0.53556748718E+03  0.17271951547E+03 0.  0.
        -24    2    3    3    0    0  0.29612520045E+01  0.12309028465E+03 -0.37687846485E+03  0.40086139303E+03  0.59097309296E+02 0.  0.
          6    2    1    2  501    0  0.59343095876E+02 -0.98697486978E+02  0.12814627921E+02  0.20996709477E+03  0.17509759917E+03 0.  0.
         24    2    5    5    0    0 -0.32842946476E+02 -0.67425135195E+02 -0.10818248449E+02  0.10968335115E+03  0.79300662230E+02 0.  0.
          5    1    5    5  501    0  0.92186042351E+02 -0.31272351783E+02  0.23632876370E+02  0.10028374363E+03  0.47000000000E+01 0. -1.
        -13    1    6    6    0    0 -0.55956683724E+02 -0.40087637210E+02  0.78994087007E+01  0.69286144129E+02  0.00000000000E+00 0.  1.
         14    1    6    6    0    0  0.23113737249E+02 -0.27337497985E+02 -0.18717657150E+02  0.40397207018E+02  0.00000000000E+00 0. -1.
         -5    1    3    3    0  503 -0.62304347880E+02 -0.24392797676E+02 -0.11681952515E+03  0.13470609415E+03  0.47000000000E+01 0.  1.
         11    1    4    4    0    0  0.29210076466E+02  0.71149127224E+02 -0.24298945951E+03  0.25487115235E+03  0.00000000000E+00 0. -1.
        -12    1    4    4    0    0 -0.26248824461E+02  0.51941157430E+02 -0.13388900534E+03  0.14599024068E+03  0.00000000000E+00 0.  1.
</event>
<event>
12    1  0.8417180E-002  0.2394563E+03  0.7818608E-02  0.1120171E+00
         21   -1    0    0  503  502  0.00000000000E+00  0.00000000000E+00  0.25262848138E+03  0.25262848138E+03  0.00000000000E+00 0.  1.
         21   -1    0    0  501  503 -0.00000000000E+00 -0.00000000000E+00 -0.31825380307E+03  0.31825380307E+03  0.00000000000E+00 0. -1.
          6    2    1    2  501    0 -0.16420512965E+03  0.21711161358E+02 -0.18575357590E+03  0.30298283925E+03  0.17279904742E+03 0.  0.
         24    2    3    3    0    0 -0.11590317040E+03  0.36093240423E+01 -0.31560347625E+02  0.14032246477E+03  0.72441469112E+02 0.  0.
         -6    2    1    2    0  502  0.16420512965E+03 -0.21711161358E+02  0.12012825421E+03  0.26789944520E+03  0.17292951207E+03 0.  0.
        -24    2    5    5    0    0  0.14781127109E+03  0.30406211018E+02  0.47722101916E+02  0.17707147598E+03  0.79398986553E+02 0.  0.
          5    1    3    3  501    0 -0.48301959249E+02  0.18101837316E+02 -0.15419322827E+03  0.16266037448E+03  0.47000000000E+01 0. -1.
        -11    1    4    4    0    0 -0.97536950705E+02 -0.36632871016E+01 -0.53084860680E+02  0.11110751036E+03  0.00000000000E+00 0.  1.
         12    1    4    4    0    0 -0.18366219700E+02  0.72726111439E+01  0.21524513054E+02  0.29214954409E+02  0.00000000000E+00 0. -1.
         -5    1    5    5    0  502  0.16393858566E+02 -0.52117372376E+02  0.72406152296E+02  0.90827969219E+02  0.47000000000E+01 0.  1.
         13    1    6    6    0    0  0.19166002864E+02  0.27541783267E+01 -0.21048895594E+02  0.28600300169E+02  0.00000000000E+00 0. -1.
        -14    1    6    6    0    0  0.12864526822E+03  0.27652032691E+02  0.68770997510E+02  0.14847117581E+03  0.00000000000E+00 0.  1.
</event>
<event>
12    1  0.8417180E-002  0.2053734E+03  0.7818608E-02  0.1145311E+00
         21   -1    0    0  503  502  0.00000000000E+00  0.00000000000E+00  0.39112524225E+03  0.39112524225E+03  0.00000000000E+00 0. -1.
         21   -1    0    0  501  503 -0.00000000000E+00 -0.00000000000E+00 -0.11538725986E+03  0.11538725986E+03  0.00000000000E+00 0.  1.
          6    2    1    2  501    0 -0.79163257739E+02 -0.79708631067E+02  0.72743228999E+02  0.21774771460E+03  0.17176205229E+03 0.  0.
         24    2    3    3    0    0 -0.74830153994E+02 -0.12060976214E+03  0.49192539823E+02  0.17011995724E+03  0.79841262553E+02 0.  0.
         -6    2    1    2    0  502  0.79163257739E+02  0.79708631067E+02  0.20299475340E+03  0.28876478751E+03  0.17192424307E+03 0.  0.
        -24    2    5    5    0    0  0.88819939409E+02  0.17219042664E+02  0.18977460015E+03  0.22399548451E+03  0.77292309784E+02 0.  0.
          5    1    3    3  501    0 -0.43331037448E+01  0.40901131070E+02  0.23550689176E+02  0.47627757364E+02  0.47000000000E+01 0. -1.
        -11    1    4    4    0    0 -0.28724095717E+02 -0.15305030997E+02 -0.17770782390E+02  0.37082588304E+02  0.00000000000E+00 0.  1.
         12    1    4    4    0    0 -0.46106058277E+02 -0.10530473114E+03  0.66963322213E+02  0.13303736893E+03  0.00000000000E+00 0. -1.
         -5    1    5    5    0  502 -0.96566816704E+01  0.62489588402E+02  0.13220153251E+02  0.64769303004E+02  0.47000000000E+01 0.  1.
         11    1    6    6    0    0  0.15037529272E+02  0.36674487125E+02  0.90375216990E+02  0.98685485957E+02  0.00000000000E+00 0. -1.
        -12    1    6    6    0    0  0.73782410137E+02 -0.19455444461E+02  0.99399383156E+02  0.12530999855E+03  0.00000000000E+00 0.  1.
</event>
<event>
12    1  0.8417180E-002  0.4136507E+03  0.7818608E-02  0.1039250E+00
         21   -1    0    0  503  502  0.00000000000E+00  0.00000000000E+00  0.11593316383E+04  0.11593316383E+04  0.00000000000E+00 0.  1.
         21   -1    0    0  501  503 -0.00000000000E+00 -0.00000000000E+00 -0.32897511094E+03  0.32897511094E+03  0.00000000000E+00 0. -1.
          6    2    1    2  501    0 -0.12076669314E+03  0.35530425956E+03 -0.13828072556E+03  0.43504276297E+03  0.17121604924E+03 0.  0.
         24    2    3    3    0    0 -0.10191149874E+03  0.14205386932E+03 -0.10370584484E+03  0.21813550244E+03  0.79138737714E+02 0.  0.
         -6    2    1    2    0  502  0.12076669314E+03 -0.35530425956E+03  0.96863725290E+03  0.10532639863E+04  0.17401490171E+03 0.  0.
        -24    2    5    5    0    0  0.94486781874E+02 -0.32989653033E+03  0.71641695874E+03  0.79836527456E+03  0.79839715555E+02 0.  0.
          5    1    3    3  501    0 -0.18855194404E+02  0.21325039023E+03 -0.34574880716E+02  0.21690726052E+03  0.47000000000E+01 0. -1.
        -11    1    4    4    0    0 -0.59597561565E+02  0.92854953116E+02 -0.19855525681E+02  0.11210777655E+03  0.00000000000E+00 0.  1.
         12    1    4    4    0    0 -0.42313937173E+02  0.49198916209E+02 -0.83850319160E+02  0.10602772589E+03  0.00000000000E+00 0. -1.
         -5    1    5    5    0  502  0.26279911268E+02 -0.25407729227E+02  0.25222029417E+03  0.25489871171E+03  0.47000000000E+01 0.  1.
         11    1    6    6    0    0  0.12337830408E+02 -0.55018603961E+02  0.61886590904E+02  0.83721078437E+02  0.00000000000E+00 0. -1.
        -12    1    6    6    0    0  0.82148951465E+02 -0.27487792637E+03  0.65453036784E+03  0.71464419612E+03  0.00000000000E+00 0.  1.
</event>
<event>
12    1  0.8417180E-002  0.2595276E+03  0.7818608E-02  0.1107729E+00
         21   -1    0    0  501  502  0.00000000000E+00  0.00000000000E+00  0.46783791122E+03  0.46783791122E+03  0.00000000000E+00 0.  1.
         21   -1    0    0  502  503 -0.00000000000E+00 -0.00000000000E+00 -0.25969889410E+03  0.25969889410E+03  0.00000000000E+00 0.  1.
         -6    2    1    2    0  503  0.15827238257E+03 -0.10886895640E+03 -0.13969902413E+03  0.29473780138E+03  0.17450489239E+03 0.  0.
        -24    2    3    3    0    0  0.16655527769E+02 -0.62468361430E+02 -0.20193588368E+02  0.10365669830E+03  0.78468001798E+02 0.  0.
          6    2    1    2  501    0 -0.15827238257E+03  0.10886895640E+03  0.34783804125E+03  0.43279900395E+03  0.17152573604E+03 0.  0.
         24    2    5    5    0    0 -0.18136169859E+03  0.70163341375E+02  0.25532771112E+03  0.32978690597E+03  0.75843279820E+02 0.  0.
          5    1    5    5  501    0  0.23089316024E+02  0.38705615021E+02  0.92510330133E+02  0.10301209798E+03  0.47000000000E+01 0. -1.
        -11    1    6    6    0    0 -0.10807862568E+03  0.32210282261E+02  0.20253918743E+03  0.23182021926E+03  0.00000000000E+00 0.  1.
         12    1    6    6    0    0 -0.73283072907E+02  0.37953059114E+02  0.52788523683E+02  0.97966686703E+02  0.00000000000E+00 0. -1.
         -5    1    3    3    0  503  0.14161685480E+03 -0.46400594966E+02 -0.11950543577E+03  0.19108110308E+03  0.47000000000E+01 0.  1.
         11    1    4    4    0    0  0.11721369491E+01 -0.57153098903E+01 -0.40883070234E+02  0.41297265090E+02  0.00000000000E+00 0. -1.
        -12    1    4    4    0    0  0.15483390820E+02 -0.56753051540E+02  0.20689481866E+02  0.62359433210E+02  0.00000000000E+00 0.  1.
</event>
<event>
12    1  0.8417180E-002  0.1845009E+03  0.7818608E-02  0.1164998E+00
         21   -1    0    0  503  502  0.00000000000E+00  0.00000000000E+00  0.16734131627E+03  0.16734131627E+03  0.00000000000E+00 0. -1.
         21   -1    0    0  501  503 -0.00000000000E+00 -0.00000000000E+00 -0.49417984143E+03  0.49417984143E+03  0.00000000000E+00 0. -1.
          6    2    1    2  501    0  0.45627746481E+02 -0.16532819181E+02 -0.41894641952E+03  0.45530656618E+03  0.17155973134E+03 0.  0.
         24    2    3    3    0    0 -0.44460353625E+02  0.13425118045E+02 -0.19067173267E+03  0.20803188806E+03  0.69026081810E+02 0.  0.
         -6    2    1    2    0  502 -0.45627746481E+02  0.16532819181E+02  0.92107894363E+02  0.20621459152E+03  0.17800384320E+03 0.  0.
        -24    2    5    5    0    0 -0.10031428622E+03  0.11638857274E+02  0.71778583003E+02  0.14747840683E+03  0.79995602907E+02 0.  0.
          5    1    3    3  501    0  0.90088100107E+02 -0.29957937226E+02 -0.22827468685E+03  0.24727467812E+03  0.47000000000E+01 0. -1.
        -13    1    4    4    0    0 -0.37816564127E+02  0.38198293943E+02 -0.96834649472E+02  0.11075265920E+03  0.00000000000E+00 0.  1.
         14    1    4    4    0    0 -0.66437894989E+01 -0.24773175898E+02 -0.93837083203E+02  0.97279228857E+02  0.00000000000E+00 0. -1.
         -5    1    5    5    0  502  0.54686539740E+02  0.48939619071E+01  0.20329311360E+02  0.58736184692E+02  0.47000000000E+01 0.  1.
         13    1    6    6    0    0  0.76298655938E+01  0.12076871984E+01  0.30464126239E+02  0.31428273017E+02  0.00000000000E+00 0. -1.
        -14    1    6    6    0    0 -0.10794415181E+03  0.10431170076E+02  0.41314456764E+02  0.11605013381E+03  0.00000000000E+00 0.  1.
</event>
<event>
12    1  0.8417180E-002  0.2441277E+03  0.7818608E-02  0.1117184E+00
         21   -1    0    0  503  502  0.00000000000E+00  0.00000000000E+00  0.10095200122E+04  0.10095200122E+04  0.00000000000E+00 0. -1.
         21   -1    0    0  501  503 -0.00000000000E+00 -0.00000000000E+00 -0.59003350187E+02  0.59003350187E+02  0.00000000000E+00 0.  1.
          6    2    1    2  501    0 -0.16445440643E+03 -0.52080835241E+02  0.45068691352E+03  0.51255928676E+03  0.17274450274E+03 0.  0.
         24    2    3    3    0    0 -0.13307731892E+03 -0.97101655603E+02  0.38521604677E+03  0.42700275411E+03  0.82472086128E+02 0.  0.
         -6    2    1    2    0  502  0.16445440643E+03  0.52080835241E+02  0.49982974847E+03  0.55596407561E+03  0.17178070530E+03 0.  0.
        -24    2    5    5    0    0  0.11481316583E+03  0.58406845743E+02  0.19596975229E+03  0.24797501987E+03  0.80585631392E+02 0.  0.
          5    1    3    3  501    0 -0.31377087509E+02  0.45020820362E+02  0.65470866746E+02  0.85556532650E+02  0.47000000000E+01 0. -1.
        -11    1    4    4    0    0 -0.31185772082E+02 -0.35389344055E+02  0.40115517082E+02  0.61921020371E+02  0.00000000000E+00 0.  1.
         12    1    4    4    0    0 -0.10189154684E+03 -0.61712311548E+02  0.34510052969E+03  0.36508173374E+03  0.00000000000E+00 0. -1.
         -5    1    5    5    0  502  0.49641240601E+02 -0.63260105025E+01  0.30385999618E+03  0.30798905574E+03  0.47000000000E+01 0.  1.
         11    1    6    6    0    0  0.31898163923E+02  0.51784422851E+02  0.45180519291E+02  0.75765418464E+02  0.00000000000E+00 0. -1.
        -12    1    6    6    0    0  0.82915001909E+02  0.66224228925E+01  0.15078923300E+03  0.17220960140E+03  0.00000000000E+00 0.  1.
</event>
<event>
12    1  0.8417180E-002  0.2413271E+03  0.7818608E-02  0.1119348E+00
         21   -1    0    0  503  502  0.00000000000E+00  0.00000000000E+00  0.13320736103E+04  0.13320736103E+04  0.00000000000E+00 0.  1.
         21   -1    0    0  501  503 -0.00000000000E+00 -0.00000000000E+00 -0.84234976455E+02  0.84234976455E+02  0.00000000000E+00 0. -1.
          6    2    1    2  501    0 -0.16895450350E+03  0.66908430367E+01  0.12818997027E+03  0.27094754786E+03  0.16849187987E+03 0.  0.
         24    2    3    3    0    0 -0.17771569823E+03  0.16669372376E+02  0.14921458314E+03  0.24564035664E+03  0.78825475680E+02 0.  0.
         -6    2    1    2    0  502  0.16895450350E+03 -0.66908430367E+01  0.11196486636E+04  0.11453610389E+04  0.17218707253E+03 0.  0.
        -24    2    5    5    0    0  0.79043696176E+02  0.49555813775E+02  0.41165077614E+03  0.42944851751E+03  0.79157962993E+02 0.  0.
          5    1    3    3  501    0  0.87611947304E+01 -0.99785293388E+01 -0.21024612874E+02  0.25307191218E+02  0.47000000000E+01 0. -1.
        -11    1    4    4    0    0 -0.13605089610E+03 -0.20378365093E+02  0.90474823985E+02  0.16465362999E+03  0.00000000000E+00 0.  1.
         12    1    4    4    0    0 -0.41664802128E+02  0.37047737468E+02  0.58739759160E+02  0.80986726654E+02  0.00000000000E+00 0. -1.
         -5    1    5    5    0  502  0.89910807321E+02 -0.56246656812E+02  0.70799788742E+03  0.71591252138E+03  0.47000000000E+01 0.  1.
         13    1    6    6    0    0 -0.57286813517E+01  0.32111918209E+02  0.73783410279E+02  0.80672081376E+02  0.00000000000E+00 0. -1.
        -14    1    6    6    0    0  0.84772377527E+02  0.17443895566E+02  0.33786736586E+03  0.34877643613E+03  0.00000000000E+00 0.  1.
</event>
<event>
12    1  0.8417180E-002  0.2174988E+03  0.7818608E-02  0.1136679E+00
         21   -1    0    0  501  502  0.00000000000E+00  0.00000000000E+00  0.65575972832E+03  0.65575972832E+03  0.00000000000E+00 0. -1.
         21   -1    0    0  502  503 -0.00000000000E+00 -0.00000000000E+00 -0.78747555610E+02  0.78747555610E+02  0.00000000000E+00 0. -1.
         -6    2    1    2    0  503  0.53524183362E+02  0.11249175785E+03  0.17295624508E+03  0.27788415836E+03  0.17828771401E+03 0.  0.
        -24    2    3    3    0    0  0.89249133801E+02  0.10404773925E+03  0.80369951751E+02  0.17817515552E+03  0.80596010906E+02 0.  0.
          6    2    1    2  501    0 -0.53524183362E+02 -0.11249175785E+03  0.40405592763E+03  0.45662312557E+03  0.17240722829E+03 0.  0.
         24    2    5    5    0    0 -0.22384442894E+02 -0.10929447343E+02  0.81103538813E+02  0.11661588772E+03  0.80006032003E+02 0.  0.
          5    1    5    5  501    0 -0.31139740468E+02 -0.10156231050E+03  0.32295238882E+03  0.34000723785E+03  0.47000000000E+01 0. -1.
        -13    1    6    6    0    0  0.29567455227E+02  0.22493537409E+01  0.22682519937E+02  0.37333506553E+02  0.00000000000E+00 0.  1.
         14    1    6    6    0    0 -0.51951898121E+02 -0.13178801084E+02  0.58421018875E+02  0.79282381163E+02  0.00000000000E+00 0. -1.
         -5    1    3    3    0  503 -0.35724950438E+02  0.84440185927E+01  0.92586293326E+02  0.99709002831E+02  0.47000000000E+01 0.  1.
         11    1    4    4    0    0  0.23908307098E+02  0.85723002797E+02  0.59965543055E+02  0.10731219274E+03  0.00000000000E+00 0. -1.
        -12    1    4    4    0    0  0.65340826703E+02  0.18324736456E+02  0.20404408696E+02  0.70862962784E+02  0.00000000000E+00 0.  1.
</event>
<event>
12    1  0.8417180E-002  0.1943431E+03  0.7818608E-02  0.1154775E+00
         21   -1    0    0  503  502  0.00000000000E+00  0.00000000000E+00  0.22899276790E+03  0.22899276790E+03  0.00000000000E+00 0. -1.
         21   -1    0    0  501  503 -0.00000000000E+00 -0.00000000000E+00 -0.21040390977E+03  0.21040390977E+03  0.00000000000E+00 0. -1.
          6    2    1    2  501    0 -0.87994649568E+02 -0.22488690747E+02 -0.93571910592E+02  0.21569638463E+03  0.17181509924E+03 0.  0.
         24    2    3    3    0    0 -0.16034589025E+02 -0.11261859614E+02  0.16567549114E+02  0.83571131042E+02  0.79534349390E+02 0.  0.
         -6    2    1    2    0  502  0.87994649568E+02  0.22488690747E+02  0.11216076872E+03  0.22370029305E+03  0.17091806079E+03 0.  0.
        -24    2    5    5    0    0  0.65625424715E+02  0.32728923138E+02  0.32453138606E+00  0.10909366775E+03  0.80767841650E+02 0.  0.
          5    1    3    3  501    0 -0.71960060544E+02 -0.11226831133E+02 -0.11013945971E+03  0.13212525359E+03  0.47000000000E+01 0. -1.
        -11    1    4    4    0    0 -0.29060178337E+02  0.24552310217E+02 -0.71142586295E+01  0.38703004765E+02  0.00000000000E+00 0.  1.
         12    1    4    4    0    0  0.13025589312E+02 -0.35814169832E+02  0.23681807744E+02  0.44868126278E+02  0.00000000000E+00 0. -1.
         -5    1    5    5    0  502  0.22369224854E+02 -0.10240232391E+02  0.11183623733E+03  0.11460662529E+03  0.47000000000E+01 0.  1.
         11    1    6    6    0    0 -0.91682174453E+01 -0.19707355925E+01  0.21936900097E+02  0.23857233615E+02  0.00000000000E+00 0. -1.
        -12    1    6    6    0    0  0.74793642160E+02  0.34699658731E+02 -0.21612368711E+02  0.85236434140E+02  0.00000000000E+00 0.  1.
</event>
<event>
12    1  0.8417180E-002  0.1738675E+03  0.7818608E-02  0.1173959E+00
         21   -1    0    0  503  502  0.00000000000E+00  0.00000000000E+00  0.15511579524E+04  0.15511579524E+04  0.00000000000E+00 0.  1.
         21   -1    0    0  501  503 -0.00000000000E+00 -0.00000000000E+00 -0.19484867287E+02  0.19484867287E+02  0.00000000000E+00 0.  1.
          6    2    1    2  501    0  0.21336980920E+02  0.11130660467E+02  0.73370762446E+03  0.75402704133E+03  0.17219390961E+03 0.  0.
         24    2    3    3    0    0  0.53642352058E+02  0.53589388125E+02  0.37112905476E+03  0.38751416330E+03  0.81738161304E+02 0.  0.
         -6    2    1    2    0  502 -0.21336980920E+02 -0.11130660467E+02  0.79796546062E+03  0.81661577833E+03  0.17185253769E+03 0.  0.
        -24    2    5    5    0    0  0.73434761927E+01  0.37374575782E+02  0.23787393106E+03  0.25367711554E+03  0.79481358302E+02 0.  0.
          5    1    3    3  501    0 -0.32305371138E+02 -0.42458727658E+02  0.36257856970E+03  0.36651287804E+03  0.47000000000E+01 0. -1.
        -13    1    4    4    0    0  0.46642125233E+02  0.38907586390E+01  0.27616559759E+03  0.28010366499E+03  0.00000000000E+00 0.  1.
         14    1    4    4    0    0  0.70002268242E+01  0.49698629486E+02  0.94963457174E+02  0.10741049831E+03  0.00000000000E+00 0. -1.
         -5    1    5    5    0  502 -0.28680457113E+02 -0.48505236249E+02  0.56009152957E+03  0.56293866278E+03  0.47000000000E+01 0.  1.
         11    1    6    6    0    0 -0.25753675261E+02  0.43804183670E+02  0.10583442648E+03  0.11740095453E+03  0.00000000000E+00 0. -1.
        -12    1    6    6    0    0  0.33097151454E+02 -0.64296078880E+01  0.13203950458E+03  0.13627616101E+03  0.00000000000E+00 0.  1.
</event>
<event>
12    1  0.8417180E-002  0.1932146E+03  0.7818608E-02  0.1157428E+00
         21   -1    0    0  501  502  0.00000000000E+00  0.00000000000E+00  0.86691715483E+02  0.86691715483E+02  0.00000000000E+00 0. -1.
         21   -1    0    0  502  503 -0.00000000000E+00 -0.00000000000E+00 -0.43287137591E+03  0.43287137591E+03  0.00000000000E+00 0. -1.
         -6    2    1    2    0  503  0.35584196027E+02 -0.83079009532E+02 -0.23268785832E+03  0.30244919290E+03  0.17077329430E+03 0.  0.
        -24    2    3    3    0    0  0.63494056107E+01  0.11354994351E+02 -0.50684961976E+02  0.95278735698E+02  0.79622994527E+02 0.  0.
          6    2    1    2  501    0 -0.35584196027E+02  0.83079009532E+02 -0.11349180211E+03  0.21711389850E+03  0.16152306009E+03 0.  0.
         24    2    5    5    0    0  0.35141597836E+02  0.68220696736E+02 -0.54866652401E+02  0.12393715486E+03  0.80380802725E+02 0.  0.
          5    1    5    5  501    0 -0.70725793863E+02  0.14858312796E+02 -0.58625149710E+02  0.93176743639E+02  0.47000000000E+01 0. -1.
        -11    1    6    6    0    0 -0.14274013992E+02 -0.10599054589E+02 -0.54387484537E+01  0.18592133238E+02  0.00000000000E+00 0.  1.
         12    1    6    6    0    0  0.49415611828E+02  0.78819751325E+02 -0.49427903947E+02  0.10534502162E+03  0.00000000000E+00 0. -1.
         -5    1    3    3    0  503  0.29234790416E+02 -0.94434003883E+02 -0.18200289634E+03  0.20717045720E+03  0.47000000000E+01 0.  1.
         13    1    4    4    0    0  0.20424381795E+01 -0.17059987378E+02  0.15489391864E+02  0.23133006363E+02  0.00000000000E+00 0. -1.
        -14    1    4    4    0    0  0.43069674312E+01  0.28414981729E+02 -0.66174353841E+02  0.72145729335E+02  0.00000000000E+00 0.  1.
</event>
<event>
12    1  0.8417180E-002  0.2382589E+03  0.7818608E-02  0.1120963E+00
         21   -1    0    0  501  502  0.00000000000E+00  0.00000000000E+00  0.64026061559E+03  0.64026061559E+03  0.00000000000E+00 0. -1.
         21   -1    0    0  502  503 -0.00000000000E+00 -0.00000000000E+00 -0.10513558713E+03  0.10513558713E+03  0.00000000000E+00 0. -1.
         -6    2    1    2    0  503 -0.13559871078E+03 -0.92662846692E+02  0.11997731221E+03  0.26673671116E+03  0.17257028746E+03 0.  0.
        -24    2    3    3    0    0 -0.13800572838E+03 -0.12114318628E+03  0.12619487295E+03  0.23711118942E+03  0.81088331710E+02 0.  0.
          6    2    1    2  501    0  0.13559871078E+03  0.92662846692E+02  0.41514771625E+03  0.47865949155E+03  0.17260900620E+03 0.  0.
         24    2    5    5    0    0  0.44194131055E+02  0.10921784633E+03  0.22277812204E+03  0.26498446731E+03  0.81884168675E+02 0.  0.
          5    1    5    5  501    0  0.91404579721E+02 -0.16554999639E+02  0.19236959421E+03  0.21367502424E+03  0.47000000000E+01 0. -1.
        -11    1    6    6    0    0  0.86281171947E+01  0.52295889334E+02  0.17432099433E+03  0.18220075058E+03  0.00000000000E+00 0.  1.
         12    1    6    6    0    0  0.35566013860E+02  0.56921956997E+02  0.48457127714E+02  0.82783716736E+02  0.00000000000E+00 0. -1.
         -5    1    3    3    0  503  0.24070176064E+01  0.28480339592E+02 -0.62175607385E+01  0.29625521743E+02  0.47000000000E+01 0.  1.
         11    1    4    4    0    0 -0.85607605483E+01 -0.54106013420E+02  0.39085549804E+02  0.67293591915E+02  0.00000000000E+00 0. -1.
        -12    1    4    4    0    0 -0.12944496783E+03 -0.67037172864E+02  0.87109323147E+02  0.16981759750E+03  0.00000000000E+00 0.  1.
</event>
<event>
12    1  0.8417180E-002  0.2270721E+03  0.7818608E-02  0.1128864E+00
         21   -1    0    0  501  502  0.00000000000E+00  0.00000000000E+00  0.59596958786E+03  0.59596958786E+03  0.00000000000E+00 0.  1.
         21   -1    0    0  502  503 -0.00000000000E+00 -0.00000000000E+00 -0.88559899594E+02  0.88559899594E+02  0.00000000000E+00 0.  1.
         -6    2    1    2    0  503  0.14754212300E+03 -0.54749235776E+01  0.19745828321E+03  0.30030089861E+03  0.17144154469E+03 0.  0.
        -24    2    3    3    0    0  0.18605541142E+02  0.32575103044E+02  0.70416191806E+02  0.11527595527E+03  0.83203379109E+02 0.  0.
          6    2    1    2  501    0 -0.14754212300E+03  0.54749235776E+01  0.30995140505E+03  0.38422858885E+03  0.17251980218E+03 0.  0.
         24    2    5    5    0    0 -0.16749613961E+03 -0.27779846935E+02  0.26361664442E+03  0.32362295723E+03  0.80071259205E+02 0.  0.
          5    1    5    5  501    0  0.19954016610E+02  0.33254770512E+02  0.46334760631E+02  0.60605631615E+02  0.47000000000E+01 0. -1.
        -13    1    6    6    0    0 -0.11548645168E+03 -0.46313728239E+01  0.10904233441E+03  0.15889871248E+03  0.00000000000E+00 0.  1.
         14    1    6    6    0    0 -0.52009687937E+02 -0.23148474111E+02  0.15457431001E+03  0.16472424475E+03  0.00000000000E+00 0. -1.
         -5    1    3    3    0  503  0.12893658186E+03 -0.38050026622E+02  0.12704209141E+03  0.18502494334E+03  0.47000000000E+01 0.  1.
         11    1    4    4    0    0  0.22484990716E+02 -0.24269396585E+02  0.35135076038E+02  0.48260252655E+02  0.00000000000E+00 0. -1.
        -12    1    4    4    0    0 -0.38794495744E+01  0.56844499629E+02  0.35281115768E+02  0.67015702614E+02  0.00000000000E+00 0.  1.
</event>
<event>
12    1  0.8417180E-002  0.2051950E+03  0.7818608E-02  0.1145588E+00
         21   -1    0    0  503  502  0.00000000000E+00  0.00000000000E+00  0.21850618279E+03  0.21850618279E+03  0.00000000000E+00 0. -1.
         21   -1    0    0  501  503 -0.00000000000E+00 -0.00000000000E+00 -0.36405489907E+03  0.36405489907E+03  0.00000000000E+00 0. -1.
          6    2    1    2  501    0  0.10059903616E+03 -0.40384950423E+02 -0.27311426098E+03  0.34160852004E+03  0.17422362388E+03 0.  0.
         24    2    3    3    0    0  0.10641573660E+03 -0.52034662572E+02 -0.12052141924E+03  0.18838902014E+03  0.83265210684E+02 0.  0.
         -6    2    1    2    0  502 -0.10059903616E+03  0.40384950423E+02  0.12756554471E+03  0.24095256182E+03  0.17330337144E+03 0.  0.
        -24    2    5    5    0    0 -0.47167006755E+02  0.30628471027E+02  0.15260343871E+03  0.18095958896E+03  0.79345658784E+02 0.  0.
          5    1    3    3  501    0 -0.58167004423E+01  0.11649712149E+02 -0.15259284175E+03  0.15321949990E+03  0.47000000000E+01 0. -1.
        -11    1    4    4    0    0  0.64154707625E+02  0.13661878081E+02 -0.66550896001E+02  0.93442469904E+02  0.00000000000E+00 0.  1.
         12    1    4    4    0    0  0.42261028973E+02 -0.65696540653E+02 -0.53970523234E+02  0.94946550237E+02  0.00000000000E+00 0. -1.
         -5    1    5    5    0  502 -0.53432029402E+02  0.97564793960E+01 -0.25037894000E+02  0.59992972857E+02  0.47000000000E+01 0.  1.
         11    1    6    6    0    0 -0.38749684494E+02 -0.17529203339E+02  0.10242157179E+03  0.11090080877E+03  0.00000000000E+00 0. -1.
        -12    1    6    6    0    0 -0.84173222608E+01  0.48157674365E+02  0.50181866916E+02  0.70058780189E+02  0.00000000000E+00 0.  1.
</event>
<event>
12    1  0.8417180E-002  0.1794621E+03  0.7818608E-02  0.1169019E+00
         21   -1    0    0  503  502  0.00000000000E+00  0.00000000000E+00  0.22909230896E+03  0.22909230896E+03  0.00000000000E+00 0. -1.
         21   -1    0    0  501  503 -0.00000000000E+00 -0.00000000000E+00 -0.16074928793E+03  0.16074928793E+03  0.00000000000E+00 0. -1.
          6    2    1    2  501    0 -0.30257768290E+02 -0.27696509457E+02 -0.38318318113E+02  0.18350734413E+03  0.17471125512E+03 0.  0.
         24    2    3    3    0    0 -0.23228117805E+02  0.28678052483E+02  0.30820070369E+02  0.93898672773E+02  0.80654248865E+02 0.  0.
         -6    2    1    2    0  502  0.30257768290E+02  0.27696509457E+02  0.10666133914E+03  0.20633425275E+03  0.17179800177E+03 0.  0.
        -24    2    5    5    0    0 -0.33432438321E+02  0.25134578891E+02  0.10925317820E+02  0.91223516134E+02  0.80329896914E+02 0.  0.
          5    1    3    3  501    0 -0.70296504849E+01 -0.56374561940E+02 -0.69138388482E+02  0.89608671354E+02  0.47000000000E+01 0. -1.
        -13    1    4    4    0    0 -0.77035798932E+00  0.15207373653E+02  0.55719688282E+02  0.57762802279E+02  0.00000000000E+00 0.  1.
         14    1    4    4    0    0 -0.22457759816E+02  0.13470678831E+02 -0.24899617913E+02  0.36135870494E+02  0.00000000000E+00 0. -1.
         -5    1    5    5    0  502  0.63690206611E+02  0.25619305659E+01  0.95736021324E+02  0.11511073662E+03  0.47000000000E+01 0.  1.
         11    1    6    6    0    0  0.13953991513E+02  0.76627370928E+00  0.31219562068E+02  0.34204708890E+02  0.00000000000E+00 0. -1.
        -12    1    6    6    0    0 -0.47386429834E+02  0.24368305182E+02 -0.20294244249E+02  0.57018807243E+02  0.00000000000E+00 0.  1.
</event>
<event>
12    1  0.8417180E-002  0.1833136E+03  0.7818608E-02  0.1165103E+00
         21   -1    0    0  501  502  0.00000000000E+00  0.00000000000E+00  0.17087194946E+03  0.17087194946E+03  0.00000000000E+00 0. -1.
         21   -1    0    0  502  503 -0.00000000000E+00 -0.00000000000E+00 -0.22260021108E+03  0.22260021108E+03  0.00000000000E+00 0. -1.
         -6    2    1    2    0  503 -0.59166971116E+02 -0.15845961391E+01 -0.95579378102E+02  0.20498662419E+03  0.17140845126E+03 0.  0.
        -24    2    3    3    0    0 -0.60716546676E+02 -0.51630444780E+02 -0.10526933750E+03  0.15377165115E+03  0.78815515047E+02 0.  0.
          6    2    1    2  501    0  0.59166971116E+02  0.15845961391E+01  0.43851116481E+02  0.18848553634E+03  0.17349534742E+03 0.  0.
         24    2    5    5    0    0 -0.31449875164E+02  0.70972093690E+01  0.34062388302E+02  0.97054081500E+02  0.84969308638E+02 0.  0.
          5    1    5    5  501    0  0.90616846280E+02 -0.55126132299E+01  0.97887281792E+01  0.91431454838E+02  0.47000000000E+01 0. -1.
        -11    1    6    6    0    0 -0.26107893091E+02  0.23985718258E+01 -0.25792367354E+02  0.36778002150E+02  0.00000000000E+00 0.  1.
         12    1    6    6    0    0 -0.53419820735E+01  0.46986375432E+01  0.59854755656E+02  0.60276079351E+02  0.00000000000E+00 0. -1.
         -5    1    3    3    0  503  0.15495755601E+01  0.50045848641E+02  0.96899593956E+01  0.51214973042E+02  0.47000000000E+01 0.  1.
         13    1    4    4    0    0  0.40454837692E+01  0.16675829230E+02 -0.23431133740E+02  0.29042507601E+02  0.00000000000E+00 0. -1.
        -14    1    4    4    0    0 -0.64762030445E+02 -0.68306274009E+02 -0.81838203757E+02  0.12472914355E+03  0.00000000000E+00 0.  1.
</event>
<event>
12    1  0.8417180E-002  0.2221971E+03  0.7818608E-02  0.1132406E+00
         21   -1    0    0  501  502  0.00000000000E+00  0.00000000000E+00  0.22024034370E+03  0.22024034370E+03  0.00000000000E+00 0. -1.
         21   -1    0    0  502  503 -0.00000000000E+00 -0.00000000000E+00 -0.36471226314E+03  0.36471226314E+03  0.00000000000E+00 0. -1.
         -6    2    1    2    0  503 -0.14038754269E+03  0.84058072926E+01 -0.25440567298E+03  0.33777772743E+03  0.17202391393E+03 0.  0.
        -24    2    3    3    0    0 -0.10062958776E+03  0.30533072621E+02 -0.72133582731E+02  0.14985349872E+03  0.78703461588E+02 0.  0.
          6    2    1    2  501    0  0.14038754269E+03 -0.84058072926E+01  0.10993375354E+03  0.24717487941E+03  0.17096979588E+03 0.  0.
         24    2    5    5    0    0  0.15479083303E+03 -0.16527650661E+02  0.13225892975E+03  0.21899824715E+03  0.78958486108E+02 0.  0.
          5    1    5    5  501    0 -0.14403290338E+02  0.81218433684E+01 -0.22325176215E+02  0.28176632256E+02  0.47000000000E+01 0. -1.
        -13    1    6    6    0    0  0.11285897162E+03  0.22298888726E+02  0.10470425166E+03  0.15555503280E+03  0.00000000000E+00 0.  1.
         14    1    6    6    0    0  0.41931861406E+02 -0.38826539387E+02  0.27554678089E+02  0.63443214344E+02  0.00000000000E+00 0. -1.
         -5    1    3    3    0  503 -0.39757954933E+02 -0.22127265328E+02 -0.18227209025E+03  0.18792422871E+03  0.47000000000E+01 0.  1.
         11    1    4    4    0    0 -0.13366475904E+02  0.38833954194E+02 -0.37460549893E+02  0.55588051546E+02  0.00000000000E+00 0. -1.
        -12    1    4    4    0    0 -0.87263111853E+02 -0.83008815730E+01 -0.34673032839E+02  0.94265447177E+02  0.00000000000E+00 0.  1.
</event>
<event>
12    1  0.8417180E-002  0.2432928E+03  0.7818608E-02  0.1118386E+00
         21   -1    0    0  501  502  0.00000000000E+00  0.00000000000E+00  0.32014379949E+03  0.32014379949E+03  0.00000000000E+00 0.  1.
         21   -1    0    0  502  503 -0.00000000000E+00 -0.00000000000E+00 -0.20226219915E+03  0.20226219915E+03  0.00000000000E+00 0.  1.
         -6    2    1    2    0  503 -0.16404574451E+03  0.31458136555E+02 -0.25493305498E+02  0.24000954263E+03  0.17045248981E+03 0.  0.
        -24    2    3    3    0    0 -0.53909163691E+02  0.69739904450E+02 -0.32137339976E+02  0.12312586806E+03  0.79732794774E+02 0.  0.
          6    2    1    2  501    0  0.16404574451E+03 -0.31458136555E+02  0.14337490584E+03  0.28239645601E+03  0.17689198427E+03 0.  0.
         24    2    5    5    0    0  0.19213091242E+03 -0.38915630568E+02  0.11192549350E+03  0.23932040223E+03  0.79487263254E+02 0.  0.
          5    1    5    5  501    0 -0.28085167906E+02  0.74574940125E+01  0.31449412341E+02  0.43076053787E+02  0.47000000000E+01 0. -1.
        -11    1    6    6    0    0  0.10561730933E+03 -0.13015138005E+01  0.97766375771E+02  0.14392697524E+03  0.00000000000E+00 0.  1.
         12    1    6    6    0    0  0.86513603082E+02 -0.37614116767E+02  0.14159117724E+02  0.95393426991E+02  0.00000000000E+00 0. -1.
         -5    1    3    3    0  503 -0.11013658082E+03 -0.38281767895E+02  0.66440344785E+01  0.11688367457E+03  0.47000000000E+01 0.  1.
         11    1    4    4    0    0 -0.48687856515E+02  0.52380804992E+02 -0.57630301129E+02  0.91845020071E+02  0.00000000000E+00 0. -1.
        -12    1    4    4    0    0 -0.52213071763E+01  0.17359099458E+02  0.25492961153E+02  0.31280847990E+02  0.00000000000E+00 0.  1.
</event>
<event>
12    1  0.8417180E-002  0.1811973E+03  0.7818608E-02  0.1169047E+00
         21   -1    0    0  501  502  0.00000000000E+00  0.00000000000E+00  0.14174807600E+03  0.14174807600E+03  0.00000000000E+00 0.  1.
         21   -1    0    0  502  503 -0.00000000000E+00 -0.00000000000E+00 -0.61790253225E+03  0.61790253225E+03  0.00000000000E+00 0.  1.
         -6    2    1    2    0  503  0.52931568798E+01  0.20244592573E+02 -0.54074374932E+03  0.56728572654E+03  0.17020996465E+03 0.  0.
        -24    2    3    3    0    0  0.15380368461E+02  0.36723695429E+00 -0.53580477978E+03  0.54397597484E+03  0.92662875913E+02 0.  0.
          6    2    1    2  501    0 -0.52931568798E+01 -0.20244592573E+02  0.64589293071E+02  0.19236488171E+03  0.17998502687E+03 0.  0.
         24    2    5    5    0    0 -0.19212352049E+02 -0.74601756091E+02  0.59976720706E+01  0.11110287785E+03  0.79833206832E+02 0.  0.
          5    1    5    5  501    0  0.13919195169E+02  0.54357163519E+02  0.58591621000E+02  0.81262003860E+02  0.47000000000E+01 0. -1.
        -11    1    6    6    0    0 -0.26325432649E+01 -0.23460250388E+02  0.40744596770E+02  0.47089657020E+02  0.00000000000E+00 0.  1.
         12    1    6    6    0    0 -0.16579808784E+02 -0.51141505703E+02 -0.34746924700E+02  0.64013220830E+02  0.00000000000E+00 0. -1.
         -5    1    3    3    0  503 -0.10087211581E+02  0.19877355618E+02 -0.49389695363E+01  0.23309751692E+02  0.47000000000E+01 0.  1.
         11    1    4    4    0    0  0.21747473874E+01  0.98621974990E+01 -0.24746620886E+01  0.10397904508E+02  0.00000000000E+00 0. -1.
        -12    1    4    4    0    0  0.13205621073E+02 -0.94949605447E+01 -0.53333011769E+03  0.53357807034E+03  0.00000000000E+00 0.  1.
</event>
<event>
12    1  0.8417180E-002  0.1885182E+03  0.7818608E-02  0.1160237E+00
         21   -1    0    0  501  502  0.00000000000E+00  0.00000000000E+00  0.11747101369E+03  0.11747101369E+03  0.00000000000E+00 0.  1.
         21   -1    0    0  502  503 -0.00000000000E+00 -0.00000000000E+00 -0.76683747488E+03  0.76683747488E+03  0.00000000000E+00 0.  1.
         -6    2    1    2    0  503  0.29320307367E+02 -0.71103770600E+02 -0.67048930776E+03  0.69648763482E+03  0.17211533058E+03 0.  0.
        -24    2    3    3    0    0  0.35000374848E+02 -0.28969967617E+02 -0.63262453091E+03  0.63936188015E+03  0.80656874605E+02 0.  0.
          6    2    1    2  501    0 -0.29320307367E+02  0.71103770600E+02  0.21122846578E+02  0.18782085375E+03  0.17004432316E+03 0.  0.
         24    2    5    5    0    0 -0.75115913872E+02  0.48033342047E+02  0.46897856477E+02  0.13023679880E+03  0.82538550723E+02 0.  0.
          5    1    5    5  501    0  0.45795606505E+02  0.23070428553E+02 -0.25775009899E+02  0.57584054946E+02  0.47000000000E+01 0. -1.
        -13    1    6    6    0    0 -0.68740745949E+02  0.69884768585E+02  0.32367050289E+02  0.10323176342E+03  0.00000000000E+00 0.  1.
         14    1    6    6    0    0 -0.63751679230E+01 -0.21851426537E+02  0.14530806188E+02  0.27005035387E+02  0.00000000000E+00 0. -1.
         -5    1    3    3    0  503 -0.56800674815E+01 -0.42133802984E+02 -0.37864776852E+02  0.57125754669E+02  0.47000000000E+01 0.  1.
         11    1    4    4    0    0  0.89273008175E+01  0.17206432154E+02 -0.40847752948E+02  0.45213901936E+02  0.00000000000E+00 0. -1.
        -12    1    4    4    0    0  0.26073074031E+02 -0.46176399771E+02 -0.59177677796E+03  0.59414797822E+03  0.00000000000E+00 0.  1.
</event>
<event>
12    1  0.8417180E-002  0.2008560E+03  0.7818608E-02  0.1152161E+00
         21   -1    0    0  503  502  0.00000000000E+00  0.00000000000E+00  0.87169591116E+02  0.87169591116E+02  0.00000000000E+00 0.  1.
         21   -1    0    0  501  503 -0.00000000000E+00 -0.00000000000E+00 -0.68242100374E+03  0.68242100374E+03  0.00000000000E+00 0.  1.
          6    2    1    2  501    0  0.21203340130E+02 -0.68821839345E+02 -0.52446813820E+03  0.55662720119E+03  0.17199123789E+03 0.  0.
         24    2    3    3    0    0 -0.21603356980E+02 -0.10288425468E+03 -0.38180127206E+03  0.40375932964E+03  0.78724265839E+02 0.  0.
         -6    2    1    2    0  502 -0.21203340130E+02  0.68821839345E+02 -0.70783274423E+02  0.21296339367E+03  0.18750228772E+03 0.  0.
        -24    2    5    5    0    0 -0.86247229412E+02  0.27817903985E+02 -0.62328191584E+02  0.13546753137E+03  0.79083678627E+02 0.  0.
          5    1    3    3  501    0  0.42806697110E+02  0.34062415339E+02 -0.14266686614E+03  0.15286787154E+03  0.47000000000E+01 0. -1.
        -13    1    4    4    0    0 -0.19273246984E+02 -0.52954071231E+02 -0.80048107571E+02  0.97894286018E+02  0.00000000000E+00 0.  1.
         14    1    4    4    0    0 -0.23301099957E+01 -0.49930183454E+02 -0.30175316449E+03  0.30586504362E+03  0.00000000000E+00 0. -1.
         -5    1    5    5    0  502  0.65043889282E+02  0.41003935361E+02 -0.84550828388E+01  0.77495862301E+02  0.47000000000E+01 0.  1.
         13    1    6    6    0    0 -0.72668165501E+02 -0.12457686285E+02 -0.22159297673E+02  0.76986302017E+02  0.00000000000E+00 0. -1.
        -14    1    6    6    0    0 -0.13579063910E+02  0.40275590269E+02 -0.40168893911E+02  0.58481229350E+02  0.00000000000E+00 0.  1.
</event>
<event>
12    1  0.8417180E-002  0.2129051E+03  0.7818608E-02  0.1139639E+00
         21   -1    0    0  503  502  0.00000000000E+00  0.00000000000E+00  0.70266455817E+02  0.70266455817E+02  0.00000000000E+00 0. -1.
         21   -1    0    0  501  503 -0.00000000000E+00 -0.00000000000E+00 -0.64440111833E+03  0.64440111833E+03  0.00000000000E+00 0. -1.
          6    2    1    2  501    0  0.87482398213E+02 -0.86281247073E+02 -0.31658963904E+03  0.38051486350E+03  0.17165354118E+03 0.  0.
         24    2    3    3    0    0  0.11012123541E+03 -0.83064343281E+02 -0.31908261532E+03  0.35703784601E+03  0.81461257486E+02 0.  0.
         -6    2    1    2    0  502 -0.87482398213E+02  0.86281247073E+02 -0.25754502347E+03  0.33415271065E+03  0.17387055911E+03 0.  0.
        -24    2    5    5    0    0 -0.10006570243E+03  0.11367633955E+03 -0.16955947118E+03  0.24102710703E+03  0.80051215361E+02 0.  0.
          5    1    3    3  501    0 -0.22638837197E+02 -0.32169037919E+01  0.24929762733E+01  0.23477017493E+02  0.47000000000E+01 0. -1.
        -13    1    4    4    0    0  0.31048626267E+02  0.14736272004E+02 -0.64570561820E+02  0.73147333235E+02  0.00000000000E+00 0.  1.
         14    1    4    4    0    0  0.79072609143E+02 -0.97800615286E+02 -0.25451205350E+03  0.28389051277E+03  0.00000000000E+00 0. -1.
         -5    1    5    5    0  502  0.12583304222E+02 -0.27395092476E+02 -0.87985552291E+02  0.93125603616E+02  0.47000000000E+01 0.  1.
         11    1    6    6    0    0 -0.31046593662E+02  0.91864422734E+02 -0.78876859216E+02  0.12499808823E+03  0.00000000000E+00 0. -1.
        -12    1    6    6    0    0 -0.69019108773E+02  0.21811916815E+02 -0.90682611966E+02  0.11602901880E+03  0.00000000000E+00 0.  1.
</event>
<event>
12    1  0.8417180E-002  0.2107010E+03  0.7818608E-02  0.1141227E+00
         21   -1    0    0  503  502  0.00000000000E+00  0.00000000000E+00  0.23691887712E+03  0.23691887712E+03  0.00000000000E+00 0.  1.
         21   -1    0    0  501  503 -0.00000000000E+00 -0.00000000000E+00 -0.25328434636E+03  0.25328434636E+03  0.00000000000E+00 0.  1.
          6    2    1    2  501    0 -0.29467228496E+02 -0.11710963733E+03 -0.13413043699E+03  0.24977164047E+03  0.17266126822E+03 0.  0.
         24    2    3    3    0    0  0.24624538308E+02 -0.56274215055E+02 -0.14013253317E+02  0.10459211142E+03  0.83486426061E+02 0.  0.
         -6    2    1    2    0  502  0.29467228496E+02  0.11710963733E+03  0.11776496775E+03  0.24043158300E+03  0.17133526714E+03 0.  0.
        -24    2    5    5    0    0  0.19293074633E+02  0.31946207954E+02  0.12633151926E+03  0.15410778029E+03  0.79979824047E+02 0.  0.
          5    1    3    3  501    0 -0.54091766804E+02 -0.60835422276E+02 -0.12011718368E+03  0.14517952905E+03  0.47000000000E+01 0. -1.
        -11    1    4    4    0    0  0.50636962885E+01 -0.75681494698E+02 -0.13434071544E+02  0.77031188087E+02  0.00000000000E+00 0.  1.
         12    1    4    4    0    0  0.19560842020E+02  0.19407279643E+02 -0.57918177340E+00  0.27560923337E+02  0.00000000000E+00 0. -1.
         -5    1    5    5    0  502  0.10174153863E+02  0.85163429377E+02 -0.85665515130E+01  0.86323802714E+02  0.47000000000E+01 0.  1.
         13    1    6    6    0    0  0.16119573952E+01 -0.16861604945E+02  0.87902839071E+02  0.89519948865E+02  0.00000000000E+00 0. -1.
        -14    1    6    6    0    0  0.17681117238E+02  0.48807812899E+02  0.38428680194E+02  0.64587831425E+02  0.00000000000E+00 0.  1.
</event>
<event>
12    1  0.8417180E-002  0.1938066E+03  0.7818608E-02  0.1155133E+00
         21   -1    0    0  503  502  0.00000000000E+00  0.00000000000E+00  0.19934187960E+03  0.19934187960E+03  0.00000000000E+00 0.  1.
         21   -1    0    0  501  503 -0.00000000000E+00 -0.00000000000E+00 -0.21494976931E+03  0.21494976931E+03  0.00000000000E+00 0.  1.
          6    2    1    2  501    0 -0.15750948072E+02  0.87817942138E+02 -0.80941687541E+02  0.21002988721E+03  0.17204915988E+03 0.  0.
         24    2    3    3    0    0 -0.68742215249E+02  0.39841368434E+02 -0.17619153953E+02  0.11441786244E+03  0.80425032563E+02 0.  0.
         -6    2    1    2    0  502  0.15750948072E+02 -0.87817942138E+02  0.65333797827E+02  0.20426176170E+03  0.17173898458E+03 0.  0.
        -24    2    5    5    0    0  0.72391333024E+01 -0.78551274021E+02  0.11049757553E+03  0.15714298683E+03  0.79129617775E+02 0.  0.
          5    1    3    3  501    0  0.52991267178E+02  0.47976573705E+02 -0.63322533588E+02  0.95612024775E+02  0.47000000000E+01 0. -1.
        -13    1    4    4    0    0 -0.63432629376E+02  0.24569499340E+02 -0.45745318195E+02  0.81975562847E+02  0.00000000000E+00 0.  1.
         14    1    4    4    0    0 -0.53095858736E+01  0.15271869093E+02  0.28126164242E+02  0.32442299591E+02  0.00000000000E+00 0. -1.
         -5    1    5    5    0  502  0.85118147692E+01 -0.92666681176E+01 -0.45163777704E+02  0.47118774869E+02  0.47000000000E+01 0.  1.
         11    1    6    6    0    0 -0.22654029702E+02  0.47397871025E+01  0.25594006527E+02  0.34506866180E+02  0.00000000000E+00 0. -1.
        -12    1    6    6    0    0  0.29893163004E+02 -0.83291061123E+02  0.84903569005E+02  0.12263612065E+03  0.00000000000E+00 0.  1.
</event>
<event>
12    1  0.8417180E-002  0.2381424E+03  0.7818608E-02  0.1121057E+00
         21   -1    0    0  501  502  0.00000000000E+00  0.00000000000E+00  0.27113896622E+03  0.27113896622E+03  0.00000000000E+00 0.  1.
         21   -1    0    0  502  503 -0.00000000000E+00 -0.00000000000E+00 -0.38008730415E+03  0.38008730415E+03  0.00000000000E+00 0. -1.
         -6    2    1    2    0  503  0.13774531155E+03 -0.89554774349E+02 -0.27289091415E+03  0.36210871373E+03  0.17221916581E+03 0.  0.
        -24    2    3    3    0    0  0.10703448976E+02  0.28617108981E+01 -0.84426136777E+02  0.11670801304E+03  0.79813748985E+02 0.  0.
          6    2    1    2  501    0 -0.13774531155E+03  0.89554774349E+02  0.16394257622E+03  0.28911755665E+03  0.17238899269E+03 0.  0.
         24    2    5    5    0    0 -0.92290201013E+02 -0.16802414648E+02  0.66194053454E+02  0.13760886901E+03  0.75860040716E+02 0.  0.
          5    1    5    5  501    0 -0.45455110532E+02  0.10635718900E+03  0.97748522767E+02  0.15150868763E+03  0.47000000000E+01 0. -1.
        -11    1    6    6    0    0 -0.11882417979E+02  0.26670453662E+02  0.14571739542E+02  0.32631894656E+02  0.00000000000E+00 0.  1.
         12    1    6    6    0    0 -0.80407783034E+02 -0.43472868310E+02  0.51622313912E+02  0.10497697436E+03  0.00000000000E+00 0. -1.
         -5    1    3    3    0  503  0.12704186257E+03 -0.92416485247E+02 -0.18846477737E+03  0.24540070069E+03  0.47000000000E+01 0.  1.
         11    1    4    4    0    0  0.87777579847E+01  0.40653480270E+02 -0.34345085059E+02  0.53938292159E+02  0.00000000000E+00 0. -1.
        -12    1    4    4    0    0  0.19256909912E+01 -0.37791769372E+02 -0.50081051717E+02  0.62769720879E+02  0.00000000000E+00 0.  1.
</event>
<event>
12    1  0.8417180E-002  0.2320511E+03  0.7818608E-02  0.1125307E+00
         21   -1    0    0  503  502  0.00000000000E+00  0.00000000000E+00  0.47179235706E+03  0.47179235706E+03  0.00000000000E+00 0. -1.
         21   -1    0    0  501  503 -0.00000000000E+00 -0.00000000000E+00 -0.11447804337E+03  0.11447804337E+03  0.00000000000E+00 0.  1.
          6    2    1    2  501    0  0.67939681873E+02  0.13943857771E+03  0.15708221388E+03  0.28021873740E+03  0.17259432652E+03 0.  0.
         24    2    3    3    0    0  0.40090535476E+02  0.65661365337E+01  0.28721429871E+02  0.93325073918E+02  0.78957480357E+02 0.  0.
         -6    2    1    2    0  502 -0.67939681873E+02 -0.13943857771E+03  0.20023209982E+03  0.30605166303E+03  0.17180165692E+03 0.  0.
        -24    2    5    5    0    0 -0.64848212716E+02 -0.17017361842E+03  0.18115044074E+03  0.26944019458E+03  0.81352229067E+02 0.  0.
          5    1    3    3  501    0  0.27849146397E+02  0.13287244118E+03  0.12836078401E+03  0.18689366348E+03  0.47000000000E+01 0. -1.
        -13    1    4    4    0    0  0.19555976406E+02  0.22693386036E+02 -0.21396446334E+02  0.36813501582E+02  0.00000000000E+00 0.  1.
         14    1    4    4    0    0  0.20534559070E+02 -0.16127249502E+02  0.50117876205E+02  0.56511572337E+02  0.00000000000E+00 0. -1.
         -5    1    5    5    0  502 -0.30914691574E+01  0.30735040714E+02  0.19081659074E+02  0.36611468453E+02  0.47000000000E+01 0.  1.
         11    1    6    6    0    0 -0.54189851582E+02 -0.93492080255E+02  0.15246789721E+03  0.18687902174E+03  0.00000000000E+00 0. -1.
        -12    1    6    6    0    0 -0.10658361133E+02 -0.76681538170E+02  0.28682543533E+02  0.82561172846E+02  0.00000000000E+00 0.  1.
</event>
<event>
12    1  0.8417180E-002  0.1758301E+03  0.7818608E-02  0.1172227E+00
         21   -1    0    0  501  502  0.00000000000E+00  0.00000000000E+00  0.44419370243E+03  0.44419370243E+03  0.00000000000E+00 0. -1.
         21   -1    0    0  502  503 -0.00000000000E+00 -0.00000000000E+00 -0.73613818534E+02  0.73613818534E+02  0.00000000000E+00 0. -1.
         -6    2    1    2    0  503  0.18730836910E+02 -0.12729682159E+02  0.12172702579E+03  0.21385433419E+03  0.17436547360E+03 0.  0.
        -24    2    3    3    0    0  0.77624622422E+02 -0.12223794536E+02  0.98774528203E+02  0.15046946975E+03  0.81912457819E+02 0.  0.
          6    2    1    2  501    0 -0.18730836910E+02  0.12729682159E+02  0.24885285811E+03  0.30395318678E+03  0.17305174286E+03 0.  0.
         24    2    5    5    0    0  0.14514373526E+02  0.52621552536E+02  0.76541419840E+02  0.12392561362E+03  0.80742020848E+02 0.  0.
          5    1    5    5  501    0 -0.33245210436E+02 -0.39891870377E+02  0.17231143827E+03  0.18002757316E+03  0.47000000000E+01 0. -1.
        -11    1    6    6    0    0  0.30085574954E+02  0.29682283402E+02  0.85009964308E+02  0.94936156441E+02  0.00000000000E+00 0.  1.
         12    1    6    6    0    0 -0.15571201427E+02  0.22939269134E+02 -0.84685444676E+01  0.28989457182E+02  0.00000000000E+00 0. -1.
         -5    1    3    3    0  503 -0.58893785512E+02 -0.50588762286E+00  0.22952497588E+02  0.63384864438E+02  0.47000000000E+01 0.  1.
         11    1    4    4    0    0  0.13847692217E+02 -0.29199387429E+02  0.72606088238E+02  0.79473309074E+02  0.00000000000E+00 0. -1.
        -12    1    4    4    0    0  0.63776930205E+02  0.16975592892E+02  0.26168439965E+02  0.70996160675E+02  0.00000000000E+00 0.  1.
</event>
<event>
12    1  0.8417180E-002  0.1921972E+03  0.7818608E-02  0.1156651E+00
         21   -1    0    0  501  502  0.00000000000E+00  0.00000000000E+00  0.28685873542E+03  0.28685873542E+03  0.00000000000E+00 0.  1.
         21   -1    0    0  502  503 -0.00000000000E+00 -0.00000000000E+00 -0.35533425626E+03  0.35533425626E+03  0.00000000000E+00 0.  1.
         -6    2    1    2    0  503 -0.66516953389E+02 -0.54246160103E+02 -0.29092249129E+03  0.34867703021E+03  0.17196692846E+03 0.  0.
        -24    2    3    3    0    0  0.19146463962E+02  0.18220746981E+02 -0.14011114978E+03  0.16064558491E+03  0.74008695127E+02 0.  0.
          6    2    1    2  501    0  0.66516953389E+02  0.54246160103E+02  0.22244697046E+03  0.29351596147E+03  0.17117772636E+03 0.  0.
         24    2    5    5    0    0  0.10801622270E+03  0.52251219623E+02  0.13644411610E+03  0.19788777474E+03  0.78389286598E+02 0.  0.
          5    1    5    5  501    0 -0.41499269314E+02  0.19949404798E+01  0.86002854353E+02  0.95628186734E+02  0.47000000000E+01 0. -1.
        -13    1    6    6    0    0  0.11475415426E+03  0.49376723587E+02  0.14167438933E+03  0.18888676329E+03  0.00000000000E+00 0.  1.
         14    1    6    6    0    0 -0.67379315580E+01  0.28744960357E+01 -0.52302732285E+01  0.90010114534E+01  0.00000000000E+00 0. -1.
         -5    1    3    3    0  503 -0.85663417351E+02 -0.72466907084E+02 -0.15081134151E+03  0.18803144530E+03  0.47000000000E+01 0.  1.
         13    1    4    4    0    0 -0.12901381592E+02  0.27163412150E+02 -0.11525680026E+03  0.11911518213E+03  0.00000000000E+00 0. -1.
        -14    1    4    4    0    0  0.32047845554E+02 -0.89426651684E+01 -0.24854349517E+02  0.41530402778E+02  0.00000000000E+00 0.  1.
</event>
<event>
12    1  0.8417180E-002  0.2206257E+03  0.7818608E-02  0.1134006E+00
         21   -1    0    0  501  502  0.00000000000E+00  0.00000000000E+00  0.63619008183E+02  0.63619008183E+02  0.00000000000E+00 0.  1.
         21   -1    0    0  502  503 -0.00000000000E+00 -0.00000000000E+00 -0.86844561445E+03  0.86844561445E+03  0.00000000000E+00 0.  1.
         -6    2    1    2    0  503 -0.73901544328E+02  0.11148307035E+03 -0.56889793769E+03  0.60905062295E+03  0.17148727238E+03 0.  0.
        -24    2    3    3    0    0 -0.84195008088E+02  0.83310303911E+02 -0.56006834912E+03  0.57743240353E+03  0.75645349065E+02 0.  0.
          6    2    1    2  501    0  0.73901544328E+02 -0.11148307035E+03 -0.23592866858E+03  0.32301399968E+03  0.17545881027E+03 0.  0.
         24    2    5    5    0    0  0.43415150103E+02 -0.14424316399E+03 -0.15290125308E+03  0.22857732411E+03  0.78599200308E+02 0.  0.
          5    1    5    5  501    0  0.30486394225E+02  0.32760093631E+02 -0.83027415498E+02  0.94436675566E+02  0.47000000000E+01 0. -1.
        -13    1    6    6    0    0  0.32748763460E+02 -0.12529300985E+02 -0.16809574329E+02  0.38884787263E+02  0.00000000000E+00 0.  1.
         14    1    6    6    0    0  0.10666386643E+02 -0.13171386300E+03 -0.13609167875E+03  0.18969253685E+03  0.00000000000E+00 0. -1.
         -5    1    3    3    0  503  0.10293463760E+02  0.28172766443E+02 -0.88295885628E+01  0.31618219422E+02  0.47000000000E+01 0.  1.
         13    1    4    4    0    0 -0.50700227912E+02  0.69310393848E+02 -0.23238557706E+03  0.24774482887E+03  0.00000000000E+00 0. -1.
        -14    1    4    4    0    0 -0.33494780177E+02  0.13999910063E+02 -0.32768277206E+03  0.32968757466E+03  0.00000000000E+00 0.  1.
</event>
<event>
12    1  0.8417180E-002  0.1990174E+03  0.7818608E-02  0.1151095E+00
         21   -1    0    0  501  502  0.00000000000E+00  0.00000000000E+00  0.33175780970E+03  0.33175780970E+03  0.00000000000E+00 0.  1.
         21   -1    0    0  502  503 -0.00000000000E+00 -0.00000000000E+00 -0.15893328404E+03  0.15893328404E+03  0.00000000000E+00 0.  1.
         -6    2    1    2    0  503 -0.97588850335E+02 -0.10512428482E+02 -0.37821262190E+02  0.20257926956E+03  0.17312948253E+03 0.  0.
        -24    2    3    3    0    0 -0.60339669255E+02  0.60279377315E+02 -0.17821538746E+02  0.11998955957E+03  0.82494897702E+02 0.  0.
          6    2    1    2  501    0  0.97588850335E+02  0.10512428482E+02  0.21064578786E+03  0.28811182418E+03  0.17030173348E+03 0.  0.
         24    2    5    5    0    0  0.11130659507E+03  0.22577072567E+02  0.22470878744E+03  0.26458332837E+03  0.81310615451E+02 0.  0.
          5    1    5    5  501    0 -0.13717744738E+02 -0.12064644085E+02 -0.14062999586E+02  0.23528495807E+02  0.47000000000E+01 0. -1.
        -13    1    6    6    0    0  0.89827436242E+02  0.29466702724E+02  0.99080412294E+02  0.13694591258E+03  0.00000000000E+00 0.  1.
         14    1    6    6    0    0  0.21479158831E+02 -0.68896301579E+01  0.12562837515E+03  0.12763741579E+03  0.00000000000E+00 0. -1.
         -5    1    3    3    0  503 -0.37249181080E+02 -0.70791805796E+02 -0.19999723444E+02  0.82589709994E+02  0.47000000000E+01 0.  1.
         11    1    4    4    0    0 -0.40131975446E+02  0.68811190413E+01  0.25743245049E+02  0.48173020645E+02  0.00000000000E+00 0. -1.
        -12    1    4    4    0    0 -0.20207693809E+02  0.53398258273E+02 -0.43564783795E+02  0.71816538923E+02  0.00000000000E+00 0.  1.
</event>
<event>
12    1  0.8417180E-002  0.1800652E+03  0.7818608E-02  0.1169069E+00
         21   -1    0    0  503  502  0.00000000000E+00  0.00000000000E+00  0.28466672327E+03  0.28466672327E+03  0.00000000000E+00 0.  1.
         21   -1    0    0  501  503 -0.00000000000E+00 -0.00000000000E+00 -0.13513113113E+03  0.13513113113E+03  0.00000000000E+00 0. -1.
          6    2    1    2  501    0 -0.19416734860E+02 -0.37277961059E+02 -0.15758550232E+02  0.17536866483E+03  0.16952634227E+03 0.  0.
         24    2    3    3    0    0 -0.54651442081E+00 -0.44802000798E+02  0.35940758435E+02  0.11962276892E+03  0.10493021860E+03 0.  0.
         -6    2    1    2    0  502  0.19416734860E+02  0.37277961059E+02  0.16529414237E+03  0.24442918958E+03  0.17509088852E+03 0.  0.
        -24    2    5    5    0    0 -0.46922226192E+02  0.13921902546E+02  0.40362076863E+02  0.10098416801E+03  0.78569652269E+02 0.  0.
          5    1    3    3  501    0 -0.18870220439E+02  0.75240397392E+01 -0.51699308667E+02  0.55745895903E+02  0.47000000000E+01 0. -1.
        -13    1    4    4    0    0  0.37019099365E+02 -0.49077914387E+02 -0.76178821792E+01  0.61944229168E+02  0.00000000000E+00 0.  1.
         14    1    4    4    0    0 -0.37565613786E+02  0.42759135889E+01  0.43558640614E+02  0.57678539755E+02  0.00000000000E+00 0. -1.
         -5    1    5    5    0  502  0.66338961052E+02  0.23356058512E+02  0.12493206551E+03  0.14344502157E+03  0.47000000000E+01 0.  1.
         11    1    6    6    0    0 -0.68510140387E+01  0.41763795589E+02  0.27675698097E+02  0.50567729636E+02  0.00000000000E+00 0. -1.
        -12    1    6    6    0    0 -0.40071212153E+02 -0.27841893043E+02  0.12686378766E+02  0.50416438369E+02  0.00000000000E+00 0.  1.
</event>
<event>
12    1  0.8417180E-002  0.1836772E+03  0.7818608E-02  0.1164473E+00
         21   -1    0    0  501  502  0.00000000000E+00  0.00000000000E+00  0.12845685999E+03  0.12845685999E+03  0.00000000000E+00 0.  1.
         21   -1    0    0  502  503 -0.00000000000E+00 -0.00000000000E+00 -0.37115627930E+03  0.37115627930E+03  0.00000000000E+00 0.  1.
         -6    2    1    2    0  503  0.27223092958E+02 -0.56987288256E+02  0.14589218212E+02  0.18348856029E+03  0.17165826125E+03 0.  0.
        -24    2    3    3    0    0  0.78795625054E+02 -0.22620738750E+02 -0.15244459016E+02  0.11454710622E+03  0.78537874077E+02 0.  0.
          6    2    1    2  501    0 -0.27223092958E+02  0.56987288256E+02 -0.25728863752E+03  0.31612457900E+03  0.17247799465E+03 0.  0.
         24    2    5    5    0    0 -0.20776327169E+02  0.20397222132E+02 -0.38298182434E+02  0.93955042055E+02  0.80703758948E+02 0.  0.
          5    1    5    5  501    0 -0.64467657890E+01  0.36590066124E+02 -0.21899045509E+03  0.22216953695E+03  0.47000000000E+01 0. -1.
        -11    1    6    6    0    0 -0.30560283130E+02 -0.43996647176E+01 -0.54587854883E+02  0.62714606396E+02  0.00000000000E+00 0.  1.
         12    1    6    6    0    0  0.97839559616E+01  0.24796886849E+02  0.16289672449E+02  0.31240435659E+02  0.00000000000E+00 0. -1.
         -5    1    3    3    0  503 -0.51572532096E+02 -0.34366549506E+02  0.29833677227E+02  0.68941454065E+02  0.47000000000E+01 0.  1.
         11    1    4    4    0    0  0.58668770093E+02 -0.39396756345E+02 -0.37649290987E+02  0.80072455355E+02  0.00000000000E+00 0. -1.
        -12    1    4    4    0    0  0.20126854961E+02  0.16776017595E+02  0.22404831971E+02  0.34474650870E+02  0.00000000000E+00 0.  1.
</event>
<event>
12    1  0.8417180E-002  0.1792459E+03  0.7818608E-02  0.1168941E+00
         21   -1    0    0  501  502  0.00000000000E+00  0.00000000000E+00  0.49039079228E+02  0.49039079228E+02  0.00000000000E+00 0. -1.
         21   -1    0    0  502  503 -0.00000000000E+00 -0.00000000000E+00 -0.64911458234E+03  0.64911458234E+03  0.00000000000E+00 0. -1.
         -6    2    1    2    0  503  0.46246839697E+01  0.47749122906E+02 -0.30151158706E+03  0.35076819290E+03  0.17270703974E+03 0.  0.
        -24    2    3    3    0    0  0.62813723193E+02  0.16040085115E+02 -0.23454890797E+03  0.25644153837E+03  0.80908740070E+02 0.  0.
          6    2    1    2  501    0 -0.46246839697E+01 -0.47749122906E+02 -0.29856391605E+03  0.34738546867E+03  0.17098212022E+03 0.  0.
         24    2    5    5    0    0 -0.15476766016E+02  0.20603270179E+02 -0.72815342621E+02  0.11121958263E+03  0.80023099229E+02 0.  0.
          5    1    5    5  501    0  0.10852082046E+02 -0.68352393085E+02 -0.22574857343E+03  0.23616588604E+03  0.47000000000E+01 0. -1.
        -13    1    6    6    0    0 -0.19624764525E+02 -0.95659015953E+01 -0.77402953351E+02  0.80422975843E+02  0.00000000000E+00 0.  1.
         14    1    6    6    0    0  0.41479985088E+01  0.30169171774E+02  0.45876107299E+01  0.30796606784E+02  0.00000000000E+00 0. -1.
         -5    1    3    3    0  503 -0.58189039224E+02  0.31709037791E+02 -0.66962679097E+02  0.94326654532E+02  0.47000000000E+01 0.  1.
         11    1    4    4    0    0  0.19684887295E+02  0.37681898204E+02 -0.49721899533E+02  0.65419320795E+02  0.00000000000E+00 0. -1.
        -12    1    4    4    0    0  0.43128835898E+02 -0.21641813089E+02 -0.18482700843E+03  0.19102221757E+03  0.00000000000E+00 0.  1.
</event>
<event>
12    1  0.8417180E-002  0.2098892E+03  0.7818608E-02  0.1142258E+00
         21   -1    0    0  503  502  0.00000000000E+00  0.00000000000E+00  0.50227177787E+03  0.50227177787E+03  0.00000000000E+00 0.  1.
         21   -1    0    0  501  503 -0.00000000000E+00 -0.00000000000E+00 -0.90790775466E+02  0.90790775466E+02  0.00000000000E+00 0. -1.
          6    2    1    2  501    0 -0.12158802252E+02 -0.12023394760E+03  0.27202070973E+03  0.34358220861E+03  0.17160835914E+03 0.  0.
         24    2    3    3    0    0 -0.57387557601E+01 -0.84803202627E+02  0.28273900448E+03  0.30572026824E+03  0.79366373633E+02 0.  0.
         -6    2    1    2    0  502  0.12158802252E+02  0.12023394760E+03  0.13946029268E+03  0.24948034473E+03  0.16789053143E+03 0.  0.
        -24    2    5    5    0    0 -0.23532470637E+02  0.86100101798E+02  0.29853013099E+02  0.12916894823E+03  0.88467000020E+02 0.  0.
          5    1    3    3  501    0 -0.64200464921E+01 -0.35430744969E+02 -0.10718294756E+02  0.37861940369E+02  0.47000000000E+01 0. -1.
        -13    1    4    4    0    0 -0.18623549702E+02 -0.11801756952E+02  0.16583470287E+03  0.16729395311E+03  0.00000000000E+00 0.  1.
         14    1    4    4    0    0  0.12884793942E+02 -0.73001445675E+02  0.11690430161E+03  0.13842631513E+03  0.00000000000E+00 0. -1.
         -5    1    5    5    0  502  0.35691272889E+02  0.34133845798E+02  0.10960727958E+03  0.12031139650E+03  0.47000000000E+01 0.  1.
         13    1    6    6    0    0 -0.72798625784E+01 -0.15880360024E+02 -0.79584089635E+01  0.19196835856E+02  0.00000000000E+00 0. -1.
        -14    1    6    6    0    0 -0.16252608059E+02  0.10198046182E+03  0.37811422062E+02  0.10997211238E+03  0.00000000000E+00 0.  1.
</event>
<event>
12    1  0.8417180E-002  0.3192393E+03  0.7818608E-02  0.1076089E+00
         21   -1    0    0  503  502  0.00000000000E+00  0.00000000000E+00  0.88982954002E+02  0.88982954002E+02  0.00000000000E+00 0. -1.
         21   -1    0    0  501  503 -0.00000000000E+00 -0.00000000000E+00 -0.13198132158E+04  0.13198132158E+04  0.00000000000E+00 0.  1.
          6    2    1    2  501    0  0.11748653987E+02 -0.26790192598E+03 -0.87420926077E+03  0.93067477328E+03  0.17321728895E+03 0.  0.
         24    2    3    3    0    0  0.74442217273E+02 -0.18600730978E+03 -0.61305055554E+03  0.64984890133E+03  0.79575422757E+02 0.  0.
         -6    2    1    2    0  502 -0.11748653987E+02  0.26790192598E+03 -0.35662100102E+03  0.47812139652E+03  0.17179074080E+03 0.  0.
        -24    2    5    5    0    0  0.41194040109E+02  0.23806758947E+03 -0.32281155110E+03  0.40842071218E+03  0.65015802072E+02 0.  0.
          5    1    3    3  501    0 -0.62693563286E+02 -0.81894616197E+02 -0.26115870523E+03  0.28082587196E+03  0.47000000000E+01 0. -1.
        -13    1    4    4    0    0  0.38366002364E+01 -0.38468660807E+02 -0.23168209044E+03  0.23488539417E+03  0.00000000000E+00 0.  1.
         14    1    4    4    0    0  0.70605617036E+02 -0.14753864897E+03 -0.38136846510E+03  0.41496350715E+03  0.00000000000E+00 0. -1.
         -5    1    5    5    0  502 -0.52942694095E+02  0.29834336508E+02 -0.33809449927E+02  0.69700684339E+02  0.47000000000E+01 0.  1.
         13    1    6    6    0    0  0.17794796523E+02  0.19792176076E+03 -0.22538173053E+03  0.30047729136E+03  0.00000000000E+00 0. -1.
        -14    1    6    6    0    0  0.23399243585E+02  0.40145828714E+02 -0.97429820563E+02  0.10794342082E+03  0.00000000000E+00 0.  1.
</event>
<event>
12    1  0.8417180E-002  0.1835013E+03  0.7818608E-02  0.1164471E+00
         21   -1    0    0  503  502  0.00000000000E+00  0.00000000000E+00  0.68040473145E+02  0.68040473145E+02  0.00000000000E+00 0.  1.
         21   -1    0    0  501  503 -0.00000000000E+00 -0.00000000000E+00 -0.10051129011E+04  0.10051129011E+04  0.00000000000E+00 0. -1.
          6    2    1    2  501    0  0.51276068505E+02  0.40823635035E+02 -0.85093490314E+03  0.87049578876E+03  0.17139692086E+03 0.  0.
         24    2    3    3    0    0  0.24105749006E+02  0.24550385726E+01 -0.18529396681E+03  0.20318003023E+03  0.79756856752E+02 0.  0.
         -6    2    1    2    0  502 -0.51276068505E+02 -0.40823635035E+02 -0.86137524808E+02  0.20265758548E+03  0.17133189836E+03 0.  0.
        -24    2    5    5    0    0  0.23109261460E+02 -0.15273005961E+02  0.11957441374E+01  0.85034450749E+02  0.80387345608E+02 0.  0.
          5    1    3    3  501    0  0.27170319499E+02  0.38368596462E+02 -0.66564093633E+03  0.66731575853E+03  0.47000000000E+01 0. -1.
        -11    1    4    4    0    0  0.42791499154E+02  0.16461366678E-01 -0.46816664337E+02  0.63426435581E+02  0.00000000000E+00 0.  1.
         12    1    4    4    0    0 -0.18685750149E+02  0.24385772059E+01 -0.13847730247E+03  0.13975359465E+03  0.00000000000E+00 0. -1.
         -5    1    5    5    0  502 -0.74385329965E+02 -0.25550629074E+02 -0.87333268945E+02  0.11762313473E+03  0.47000000000E+01 0.  1.
         13    1    6    6    0    0  0.43598022158E+01 -0.32723451854E+02 -0.30043665909E+02  0.44636913400E+02  0.00000000000E+00 0. -1.
        -14    1    6    6    0    0  0.18749459244E+02  0.17450445893E+02  0.31239410046E+02  0.40397537349E+02  0.00000000000E+00 0.  1.
</event>
<event>
12    1  0.8417180E-002  0.2002451E+03  0.7818608E-02  0.1149744E+00
         21   -1    0    0  501  502  0.00000000000E+00  0.00000000000E+00  0.44219065299E+02  0.44219065299E+02  0.00000000000E+00 0.  1.
         21   -1    0    0  502  503 -0.00000000000E+00 -0.00000000000E+00 -0.15975187030E+04  0.15975187030E+04  0.00000000000E+00 0.  1.
         -6    2    1    2    0  503  0.29598825552E+02 -0.97966105587E+02 -0.13170741634E+04  0.13320595654E+04  0.17095287503E+03 0.  0.
        -24    2    3    3    0    0  0.58811677217E+02 -0.12253058269E+03 -0.11354822153E+04  0.11464402511E+04  0.80825929453E+02 0.  0.
          6    2    1    2  501    0 -0.29598825552E+02  0.97966105587E+02 -0.23622547432E+03  0.30967820295E+03  0.17211817552E+03 0.  0.
         24    2    5    5    0    0 -0.43014432307E+02  0.46339606153E+02 -0.23480551471E+03  0.25611160670E+03  0.80386098704E+02 0.  0.
          5    1    5    5  501    0  0.13415606754E+02  0.51626499433E+02 -0.14199596157E+01  0.53566596248E+02  0.47000000000E+01 0. -1.
        -11    1    6    6    0    0 -0.43001822957E+02  0.38420428688E+02 -0.68172000283E+02  0.89290020388E+02  0.00000000000E+00 0.  1.
         12    1    6    6    0    0 -0.12609349974E-01  0.79191774650E+01 -0.16663351442E+03  0.16682158631E+03  0.00000000000E+00 0. -1.
         -5    1    3    3    0  503 -0.29212851665E+02  0.24564477100E+02 -0.18159194808E+03  0.18561931431E+03  0.47000000000E+01 0.  1.
         13    1    4    4    0    0 -0.18671722700E+02 -0.16251784432E+02 -0.25340828381E+03  0.25461443799E+03  0.00000000000E+00 0. -1.
        -14    1    4    4    0    0  0.77483399917E+02 -0.10627879825E+03 -0.88207393150E+03  0.89182581307E+03  0.00000000000E+00 0.  1.
</event>
<event>
12    1  0.8417180E-002  0.2139601E+03  0.7818608E-02  0.1138672E+00
         21   -1    0    0  503  502  0.00000000000E+00  0.00000000000E+00  0.92477461817E+02  0.92477461817E+02  0.00000000000E+00 0.  1.
         21   -1    0    0  501  503 -0.00000000000E+00 -0.00000000000E+00 -0.50198274273E+03  0.50198274273E+03  0.00000000000E+00 0.  1.
          6    2    1    2  501    0  0.30494083829E+02  0.12211354931E+03 -0.16360514705E+03  0.26850655400E+03  0.17171929806E+03 0.  0.
         24    2    3    3    0    0  0.58887339137E+02  0.35991781341E+02 -0.13935031379E+03  0.17451973151E+03  0.79218051596E+02 0.  0.
         -6    2    1    2    0  502 -0.30494083829E+02 -0.12211354931E+03 -0.24590013387E+03  0.32595365055E+03  0.17302398214E+03 0.  0.
        -24    2    5    5    0    0  0.46280886150E+02 -0.47871632386E+02 -0.15072530105E+03  0.18282225272E+03  0.79197513230E+02 0.  0.
          5    1    3    3  501    0 -0.28393255308E+02  0.86121767968E+02 -0.24254833255E+02  0.93986822486E+02  0.47000000000E+01 0. -1.
        -13    1    4    4    0    0 -0.65831336751E+01  0.13670337753E+02 -0.85561197355E+02  0.86896111973E+02  0.00000000000E+00 0.  1.
         14    1    4    4    0    0  0.65470472812E+02  0.22321443588E+02 -0.53789116435E+02  0.87623619538E+02  0.00000000000E+00 0. -1.
         -5    1    5    5    0  502 -0.76774969979E+02 -0.74241916922E+02 -0.95174832820E+02  0.14313139783E+03  0.47000000000E+01 0.  1.
         13    1    6    6    0    0  0.16767846061E+02 -0.40112395023E+02 -0.14550705757E+03  0.15186332242E+03  0.00000000000E+00 0. -1.
        -14    1    6    6    0    0  0.29513040089E+02 -0.77592373629E+01 -0.52182434810E+01  0.30958930291E+02  0.00000000000E+00 0.  1.
</event>
<event>
12    1  0.8417180E-002  0.2138733E+03  0.7818608E-02  0.1139188E+00
         21   -1    0    0  501  502  0.00000000000E+00  0.00000000000E+00  0.11262355707E+04  0.11262355707E+04  0.00000000000E+00 0.  1.
         21   -1    0    0  502  503 -0.00000000000E+00 -0.00000000000E+00 -0.52868186718E+02  0.52868186718E+02  0.00000000000E+00 0.  1.
         -6    2    1    2    0  503  0.12585482069E+03 -0.14830455532E+02  0.24241041148E+03  0.32106454781E+03  0.16810787599E+03 0.  0.
        -24    2    3    3    0    0  0.39669166070E+02  0.46490762075E+02  0.88362135358E+02  0.13413884020E+03  0.80313932734E+02 0.  0.
          6    2    1    2  501    0 -0.12585482069E+03  0.14830455532E+02  0.83095697252E+03  0.85803920962E+03  0.17228585769E+03 0.  0.
         24    2    5    5    0    0 -0.49815404452E+02 -0.44737910110E+02  0.27732081001E+03  0.29602010545E+03  0.78981111958E+02 0.  0.
          5    1    5    5  501    0 -0.76039416235E+02  0.59568365643E+02  0.55363616251E+03  0.56201910417E+03  0.47000000000E+01 0. -1.
        -11    1    6    6    0    0 -0.29236069075E+02 -0.67011397227E+02  0.20199733945E+03  0.21482132166E+03  0.00000000000E+00 0.  1.
         12    1    6    6    0    0 -0.20579335376E+02  0.22273487117E+02  0.75323470555E+02  0.81198783792E+02  0.00000000000E+00 0. -1.
         -5    1    3    3    0  503  0.86185654616E+02 -0.61321217608E+02  0.15404827612E+03  0.18692570761E+03  0.47000000000E+01 0.  1.
         11    1    4    4    0    0  0.39799981811E+02  0.10231128459E+02  0.27749719090E+01  0.41187558932E+02  0.00000000000E+00 0. -1.
        -12    1    4    4    0    0 -0.13081574086E+00  0.36259633616E+02  0.85587163449E+02  0.92951281272E+02  0.00000000000E+00 0.  1.
</event>
<event>
12    1  0.8417180E-002  0.2317328E+03  0.7818608E-02  0.1125981E+00
         21   -1    0    0  501  502  0.00000000000E+00  0.00000000000E+00  0.99808349534E+02  0.99808349534E+02  0.00000000000E+00 0.  1.
         21   -1    0    0  502  503 -0.00000000000E+00 -0.00000000000E+00 -0.65441300472E+03  0.65441300472E+03  0.00000000000E+00 0. -1.
         -6    2    1    2    0  503  0.73325243896E+02 -0.13093384775E+03 -0.43971080041E+03  0.49556964511E+03  0.17240481804E+03 0.  0.
        -24    2    3    3    0    0  0.66704655961E+02 -0.67431687215E+01 -0.17867194920E+03  0.20638021104E+03  0.78575725421E+02 0.  0.
          6    2    1    2  501    0 -0.73325243896E+02  0.13093384775E+03 -0.11489385478E+03  0.25865170914E+03  0.17657815521E+03 0.  0.
         24    2    5    5    0    0  0.24010860308E+02  0.37148388770E+02 -0.20511791836E+02  0.93727201253E+02  0.80047051472E+02 0.  0.
          5    1    5    5  501    0 -0.97336104204E+02  0.93785458978E+02 -0.94382062945E+02  0.16492450789E+03  0.47000000000E+01 0. -1.
        -11    1    6    6    0    0  0.36993976383E+01  0.25561760494E+02  0.29082977773E+02  0.38896127552E+02  0.00000000000E+00 0.  1.
         12    1    6    6    0    0  0.20311462670E+02  0.11586628277E+02 -0.49594769609E+02  0.54831073701E+02  0.00000000000E+00 0. -1.
         -5    1    3    3    0  503  0.66205879350E+01 -0.12419067903E+03 -0.26103885120E+03  0.28918943407E+03  0.47000000000E+01 0.  1.
         13    1    4    4    0    0  0.73799834535E+02 -0.29308656890E+02 -0.14324395673E+03  0.16378108586E+03  0.00000000000E+00 0. -1.
        -14    1    4    4    0    0 -0.70951785742E+01  0.22565488169E+02 -0.35427992471E+02  0.42599125177E+02  0.00000000000E+00 0.  1.
</event>
<event>
12    1  0.8417180E-002  0.1778451E+03  0.7818608E-02  0.1170055E+00
         21   -1    0    0  501  502  0.00000000000E+00  0.00000000000E+00  0.34433876785E+02  0.34433876785E+02  0.00000000000E+00 0. -1.
         21   -1    0    0  502  503 -0.00000000000E+00 -0.00000000000E+00 -0.14991247923E+04  0.14991247923E+04  0.00000000000E+00 0. -1.
         -6    2    1    2    0  503 -0.38589712983E+02 -0.10495420143E+02 -0.12115870442E+04  0.12245701489E+04  0.17329040377E+03 0.  0.
        -24    2    3    3    0    0 -0.59813591577E+02  0.20051684841E+02 -0.38124599055E+03  0.39338308568E+03  0.73634305744E+02 0.  0.
          6    2    1    2  501    0  0.38589712983E+02  0.10495420143E+02 -0.25310387126E+03  0.30898852016E+03  0.17266446117E+03 0.  0.
         24    2    5    5    0    0 -0.18839439969E+02  0.71993885830E+00 -0.45619086808E+02  0.93429494783E+02  0.79325447392E+02 0.  0.
          5    1    5    5  501    0  0.57429152951E+02  0.97754812851E+01 -0.20748478445E+03  0.21555902538E+03  0.47000000000E+01 0. -1.
        -13    1    6    6    0    0 -0.47418392547E+01  0.19750563478E+02 -0.61597480911E+02  0.64859998858E+02  0.00000000000E+00 0.  1.
         14    1    6    6    0    0 -0.14097600714E+02 -0.19030624619E+02  0.15978394103E+02  0.28569495925E+02  0.00000000000E+00 0. -1.
         -5    1    3    3    0  503  0.21223878594E+02 -0.30547104985E+02 -0.83034105369E+03  0.83118706324E+03  0.47000000000E+01 0.  1.
         13    1    4    4    0    0 -0.43543695115E+02  0.47773999723E+02 -0.26561601860E+03  0.27336839205E+03  0.00000000000E+00 0. -1.
        -14    1    4    4    0    0 -0.16269896461E+02 -0.27722314882E+02 -0.11562997195E+03  0.12001469362E+03  0.00000000000E+00 0.  1.
</event>
<event>
12    1  0.8417180E-002  0.1948045E+03  0.7818608E-02  0.1154244E+00
         21   -1    0    0  503  502  0.00000000000E+00  0.00000000000E+00  0.54881008488E+02  0.54881008488E+02  0.00000000000E+00 0. -1.
         21   -1    0    0  501  503 -0.00000000000E+00 -0.00000000000E+00 -0.72984392501E+03  0.72984392501E+03  0.00000000000E+00 0. -1.
          6    2    1    2  501    0  0.45159575506E+02 -0.82355761545E+02 -0.42814804479E+03  0.47029467478E+03  0.17042439422E+03 0.  0.
         24    2    3    3    0    0  0.56389134168E+02 -0.14988135114E+02 -0.36284956691E+03  0.37568769146E+03  0.77955465886E+02 0.  0.
         -6    2    1    2    0  502 -0.45159575506E+02  0.82355761545E+02 -0.24681487173E+03  0.31443025872E+03  0.17066618872E+03 0.  0.
        -24    2    5    5    0    0  0.29116889239E+02  0.63511579294E+02 -0.87882067474E+02  0.13792580357E+03  0.80117136515E+02 0.  0.
          5    1    3    3  501    0 -0.11229558662E+02 -0.67367626431E+02 -0.65298477883E+02  0.94606983318E+02  0.47000000000E+01 0. -1.
        -11    1    4    4    0    0  0.73841409624E+02 -0.14299578525E+02 -0.23744285981E+03  0.24907055907E+03  0.00000000000E+00 0.  1.
         12    1    4    4    0    0 -0.17452275456E+02 -0.68855658942E+00 -0.12540670709E+03  0.12661713238E+03  0.00000000000E+00 0. -1.
         -5    1    5    5    0  502 -0.74276464745E+02  0.18844182252E+02 -0.15893280425E+03  0.17650445515E+03  0.47000000000E+01 0.  1.
         11    1    6    6    0    0  0.23447480138E+02  0.68141014899E+02 -0.10030474180E+03  0.12350717981E+03  0.00000000000E+00 0. -1.
        -12    1    6    6    0    0  0.56694091009E+01 -0.46294356058E+01  0.12422674330E+02  0.14418623759E+02  0.00000000000E+00 0.  1.
</event>
<event>
12    1  0.8417180E-002  0.2585995E+03  0.7818608E-02  0.1108039E+00
         21   -1    0    0  501  502  0.00000000000E+00  0.00000000000E+00  0.10858424050E+04  0.10858424050E+04  0.00000000000E+00 0. -1.
         21   -1    0    0  502  503 -0.00000000000E+00 -0.00000000000E+00 -0.67221065658E+02  0.67221065658E+02  0.00000000000E+00 0.  1.
         -6    2    1    2    0  503 -0.13000202939E+03  0.14204575103E+03  0.34151766960E+03  0.42837838358E+03  0.17261575200E+03 0.  0.
        -24    2    3    3    0    0 -0.10545035580E+03  0.20615573051E+02  0.14940525460E+03  0.19973599294E+03  0.77638633321E+02 0.  0.
          6    2    1    2  501    0  0.13000202939E+03 -0.14204575103E+03  0.67710366970E+03  0.72468508704E+03  0.17210918867E+03 0.  0.
         24    2    5    5    0    0  0.11234873397E+03 -0.17286261346E+03  0.55901150736E+03  0.60127857726E+03  0.80860008374E+02 0.  0.
          5    1    5    5  501    0  0.17653295424E+02  0.30816862434E+02  0.11809216234E+03  0.12340650978E+03  0.47000000000E+01 0. -1.
        -11    1    6    6    0    0  0.12141938496E+03 -0.13759062382E+03  0.43748654815E+03  0.47441366614E+03  0.00000000000E+00 0.  1.
         12    1    6    6    0    0 -0.90706509933E+01 -0.35271989644E+02  0.12152495921E+03  0.12686491112E+03  0.00000000000E+00 0. -1.
         -5    1    3    3    0  503 -0.24551673596E+02  0.12143017798E+03  0.19211241500E+03  0.22864239064E+03  0.47000000000E+01 0.  1.
         13    1    4    4    0    0 -0.88583541473E+02  0.44739759047E+02  0.13329068709E+03  0.16617790805E+03  0.00000000000E+00 0. -1.
        -14    1    4    4    0    0 -0.16866814323E+02 -0.24124185996E+02  0.16114567513E+02  0.33558084891E+02  0.00000000000E+00 0.  1.
</event>
<event>
12    1  0.8417180E-002  0.1733764E+03  0.7818608E-02  0.1174924E+00
         21   -1    0    0  503  502  0.00000000000E+00  0.00000000000E+00  0.98419187944E+03  0.98419187944E+03  0.00000000000E+00 0.  1.
         21   -1    0    0  501  503 -0.00000000000E+00 -0.00000000000E+00 -0.39036109706E+02  0.39036109706E+02  0.00000000000E+00 0.  1.
          6    2    1    2  501    0 -0.10482473636E+01 -0.14547171988E+02  0.23095090394E+03  0.28878659926E+03  0.17276186167E+03 0.  0.
         24    2    3    3    0    0 -0.24188568073E+02  0.12854098898E+02  0.50943686253E+02  0.10518106419E+03  0.87849202684E+02 0.  0.
         -6    2    1    2    0  502  0.10482473636E+01  0.14547171988E+02  0.71420486579E+03  0.73444138988E+03  0.17059556212E+03 0.  0.
        -24    2    5    5    0    0  0.38810826838E+02  0.50040522557E+02  0.29819746121E+03  0.31519201181E+03  0.80087104210E+02 0.  0.
          5    1    3    3  501    0  0.23140320709E+02 -0.27401270886E+02  0.18000721768E+03  0.18360553507E+03  0.47000000000E+01 0. -1.
        -11    1    4    4    0    0 -0.30078653028E+02 -0.28353132153E+02  0.48153374453E+02  0.63461586350E+02  0.00000000000E+00 0.  1.
         12    1    4    4    0    0  0.58900849554E+01  0.41207231051E+02  0.27903117999E+01  0.41719477844E+02  0.00000000000E+00 0. -1.
         -5    1    5    5    0  502 -0.37762579475E+02 -0.35493350569E+02  0.41600740459E+03  0.41924937807E+03  0.47000000000E+01 0.  1.
         11    1    6    6    0    0  0.50156946260E+02  0.48452205709E+02  0.29523341331E+03  0.30335804560E+03  0.00000000000E+00 0. -1.
        -12    1    6    6    0    0 -0.11346119422E+02  0.15883168479E+01  0.29640478995E+01  0.11833966211E+02  0.00000000000E+00 0.  1.
</event>
<event>
12    1  0.8417180E-002  0.2053310E+03  0.7818608E-02  0.1146079E+00
         21   -1    0    0  503  502  0.00000000000E+00  0.00000000000E+00  0.98118898348E+02  0.98118898348E+02  0.00000000000E+00 0. -1.
         21   -1    0    0  501  503 -0.00000000000E+00 -0.00000000000E+00 -0.42265453343E+03  0.42265453343E+03  0.00000000000E+00 0. -1.
          6    2    1    2  501    0  0.90582874432E+02  0.57213898391E+02 -0.17115038375E+03  0.26447699363E+03  0.17081258440E+03 0.  0.
         24    2    3    3    0    0  0.99705997722E+02  0.23186814094E+02 -0.18532548208E+03  0.22621346978E+03  0.79674872267E+02 0.  0.
         -6    2    1    2    0  502 -0.90582874432E+02 -0.57213898391E+02 -0.15338525133E+03  0.25629643815E+03  0.17516318555E+03 0.  0.
        -24    2    5    5    0    0 -0.48229284884E+02 -0.11200150676E+02 -0.16810841220E+03  0.19187630937E+03  0.78131764025E+02 0.  0.
          5    1    3    3  501    0 -0.91231232896E+01  0.34027084298E+02  0.14175098333E+02  0.38263523846E+02  0.47000000000E+01 0. -1.
        -11    1    4    4    0    0  0.61574439552E+02  0.34106828936E+02 -0.16945294545E+03  0.18349111180E+03  0.00000000000E+00 0.  1.
         12    1    4    4    0    0  0.38131558170E+02 -0.10920014842E+02 -0.15872536634E+02  0.42722357985E+02  0.00000000000E+00 0. -1.
         -5    1    5    5    0  502 -0.42353589548E+02 -0.46013747715E+02  0.14723160867E+02  0.64420128782E+02  0.47000000000E+01 0.  1.
         13    1    6    6    0    0 -0.36810466747E+02 -0.40904888883E+02 -0.13580302104E+03  0.14652877165E+03  0.00000000000E+00 0. -1.
        -14    1    6    6    0    0 -0.11418818138E+02  0.29704738207E+02 -0.32305391156E+02  0.45347537721E+02  0.00000000000E+00 0.  1.
</event>
<event>
12    1  0.8417180E-002  0.1909104E+03  0.7818608E-02  0.1157883E+00
         21   -1    0    0  501  502  0.00000000000E+00  0.00000000000E+00  0.69189403781E+03  0.69189403781E+03  0.00000000000E+00 0. -1.
         21   -1    0    0  502  503 -0.00000000000E+00 -0.00000000000E+00 -0.72003529286E+02  0.72003529286E+02  0.00000000000E+00 0. -1.
         -6    2    1    2    0  503 -0.18095296723E+02 -0.78552762820E+02  0.11119534795E+03  0.22093250719E+03  0.17305719001E+03 0.  0.
        -24    2    3    3    0    0  0.41524659185E+02 -0.74000796712E+02  0.11022803913E+03  0.16094679869E+03  0.80952060887E+02 0.  0.
          6    2    1    2  501    0  0.18095296723E+02  0.78552762820E+02  0.50869516058E+03  0.54296505991E+03  0.17187877583E+03 0.  0.
         24    2    5    5    0    0  0.12846720863E+02  0.13063827414E+01  0.40599373125E+03  0.41426298390E+03  0.81339812781E+02 0.  0.
          5    1    5    5  501    0  0.52485758600E+01  0.77246380079E+02  0.10270142932E+03  0.12870207601E+03  0.47000000000E+01 0. -1.
        -11    1    6    6    0    0 -0.57464577449E+01 -0.37491047209E+02  0.22870541645E+03  0.23182917830E+03  0.00000000000E+00 0.  1.
         12    1    6    6    0    0  0.18593178608E+02  0.38797429951E+02  0.17728831480E+03  0.18243380560E+03  0.00000000000E+00 0. -1.
         -5    1    3    3    0  503 -0.59619955908E+02 -0.45519661085E+01  0.96730881665E+00  0.59985708500E+02  0.47000000000E+01 0.  1.
         11    1    4    4    0    0  0.24062052028E+02  0.64220033849E+01  0.20016799645E+01  0.24984619228E+02  0.00000000000E+00 0. -1.
        -12    1    4    4    0    0  0.17462607157E+02 -0.80422800096E+02  0.10822635917E+03  0.13596217946E+03  0.00000000000E+00 0.  1.
</event>
<event>
12    1  0.8417180E-002  0.1746546E+03  0.7818608E-02  0.1173553E+00
         21   -1    0    0  503  502  0.00000000000E+00  0.00000000000E+00  0.41226021660E+02  0.41226021660E+02  0.00000000000E+00 0. -1.
         21   -1    0    0  501  503 -0.00000000000E+00 -0.00000000000E+00 -0.85205886620E+03  0.85205886620E+03  0.00000000000E+00 0.  1.
          6    2    1    2  501    0  0.24321068344E+02 -0.20300914148E+02 -0.57493527807E+03  0.60087835435E+03  0.17175733254E+03 0.  0.
         24    2    3    3    0    0  0.75010989749E+02 -0.29577880909E+02 -0.29741082601E+03  0.31857100104E+03  0.80825637351E+02 0.  0.
         -6    2    1    2    0  502 -0.24321068344E+02  0.20300914148E+02 -0.23589756647E+03  0.29240653351E+03  0.16985369437E+03 0.  0.
        -24    2    5    5    0    0  0.21831668164E+01 -0.59557206219E+01 -0.33753571373E+02  0.86794836113E+02  0.79710746891E+02 0.  0.
          5    1    3    3  501    0 -0.50689921405E+02  0.92769667602E+01 -0.27752445206E+03  0.28230735331E+03  0.47000000000E+01 0. -1.
        -11    1    4    4    0    0  0.15907804115E+02  0.15001440704E+02 -0.16852064470E+03  0.16993324909E+03  0.00000000000E+00 0.  1.
         12    1    4    4    0    0  0.59103185634E+02 -0.44579321613E+02 -0.12889018131E+03  0.14863775195E+03  0.00000000000E+00 0. -1.
         -5    1    5    5    0  502 -0.26504235160E+02  0.26256634770E+02 -0.20214399510E+03  0.20561169739E+03  0.47000000000E+01 0.  1.
         13    1    6    6    0    0 -0.38049075811E+02 -0.88484692084E+00 -0.84147694122E+01  0.38978500079E+02  0.00000000000E+00 0. -1.
        -14    1    6    6    0    0  0.40232242627E+02 -0.50708737010E+01 -0.25338801961E+02  0.47816336034E+02  0.00000000000E+00 0.  1.
</event>
<event>
12    1  0.8417180E-002  0.2050769E+03  0.7818608E-02  0.1145532E+00
         21   -1    0    0  501  502  0.00000000000E+00  0.00000000000E+00  0.10219703992E+03  0.10219703992E+03  0.00000000000E+00 0. -1.
         21   -1    0    0  502  503 -0.00000000000E+00 -0.00000000000E+00 -0.53021676286E+03  0.53021676286E+03  0.00000000000E+00 0.  1.
         -6    2    1    2    0  503 -0.82114711606E+02  0.76419861903E+02 -0.64371486445E+02  0.21494233592E+03  0.17167905623E+03 0.  0.
        -24    2    3    3    0    0  0.11537600187E+02 -0.12172275263E+01 -0.36529747852E+01  0.78901530214E+02  0.77958382387E+02 0.  0.
          6    2    1    2  501    0  0.82114711606E+02 -0.76419861903E+02 -0.36364823650E+03  0.41747146686E+03  0.17163788794E+03 0.  0.
         24    2    5    5    0    0  0.11881021069E+03 -0.46659831911E+02 -0.22244478616E+03  0.26849924319E+03  0.79480529845E+02 0.  0.
          5    1    5    5  501    0 -0.36695499081E+02 -0.29760029992E+02 -0.14120345034E+03  0.14897222367E+03  0.47000000000E+01 0. -1.
        -13    1    6    6    0    0  0.91045457578E+02 -0.61379211153E+02 -0.20500522570E+03  0.23255929453E+03  0.00000000000E+00 0.  1.
         14    1    6    6    0    0  0.27764753109E+02  0.14719379242E+02 -0.17439560459E+02  0.35939948657E+02  0.00000000000E+00 0. -1.
         -5    1    3    3    0  503 -0.93652311793E+02  0.77637089429E+02 -0.60718511660E+02  0.13604080571E+03  0.47000000000E+01 0.  1.
         13    1    4    4    0    0 -0.20766239506E+02 -0.12992761641E+02  0.24363743378E+02  0.34549103457E+02  0.00000000000E+00 0. -1.
        -14    1    4    4    0    0  0.32303839693E+02  0.11775534114E+02 -0.28016718164E+02  0.44352426757E+02  0.00000000000E+00 0.  1.
</event>
<event>
12    1  0.8417180E-002  0.2790678E+03  0.7818608E-02  0.1098084E+00
         21   -1    0    0  503  502  0.00000000000E+00  0.00000000000E+00  0.74862195052E+03  0.74862195052E+03  0.00000000000E+00 0.  1.
         21   -1    0    0  501  503 -0.00000000000E+00 -0.00000000000E+00 -0.12136446688E+03  0.12136446688E+03  0.00000000000E+00 0. -1.
          6    2    1    2  501    0  0.13301838870E+03  0.14968187398E+03  0.49360741509E+03  0.56056569000E+03  0.17460543360E+03 0.  0.
         24    2    3    3    0    0  0.68875086758E+02  0.88585892841E+02  0.43045411358E+03  0.45167348832E+03  0.78274888469E+02 0.  0.
         -6    2    1    2    0  502 -0.13301838870E+03 -0.14968187398E+03  0.13365006855E+03  0.30942072741E+03  0.19437152723E+03 0.  0.
        -24    2    5    5    0    0 -0.19765074412E+02  0.14294785803E+01  0.62488986504E+01  0.81574063703E+02  0.78883316102E+02 0.  0.
          5    1    3    3  501    0  0.64143301938E+02  0.61095981144E+02  0.63153301509E+02  0.10889220168E+03  0.47000000000E+01 0. -1.
        -11    1    4    4    0    0  0.52573118057E+02  0.97835365774E+02  0.30037979167E+03  0.32025569594E+03  0.00000000000E+00 0.  1.
         12    1    4    4    0    0  0.16301968701E+02 -0.92494729323E+01  0.13007432191E+03  0.13141779238E+03  0.00000000000E+00 0. -1.
         -5    1    5    5    0  502 -0.11325331428E+03 -0.15111135257E+03  0.12740116990E+03  0.22784666371E+03  0.47000000000E+01 0.  1.
         13    1    6    6    0    0 -0.39465833780E+02 -0.15867767817E+02  0.25002566725E+02  0.49340312466E+02  0.00000000000E+00 0. -1.
        -14    1    6    6    0    0  0.19700759368E+02  0.17297246397E+02 -0.18753668074E+02  0.32233751237E+02  0.00000000000E+00 0.  1.
</event>
<event>
12    1  0.8417180E-002  0.1958261E+03  0.7818608E-02  0.1154535E+00
         21   -1    0    0  503  502  0.00000000000E+00  0.00000000000E+00  0.35626621822E+03  0.35626621822E+03  0.00000000000E+00 0. -1.
         21   -1    0    0  501  503 -0.00000000000E+00 -0.00000000000E+00 -0.10853736698E+03  0.10853736698E+03  0.00000000000E+00 0. -1.
          6    2    1    2  501    0  0.68935122342E+02  0.40540613281E+02  0.81321718828E+02  0.21204024803E+03  0.17875192982E+03 0.  0.
         24    2    3    3    0    0  0.10441083039E+03 -0.36974742884E+01  0.28981614509E+02  0.13472847161E+03  0.79978336229E+02 0.  0.
         -6    2    1    2    0  502 -0.68935122342E+02 -0.40540613281E+02  0.16640713242E+03  0.25276333716E+03  0.17263365395E+03 0.  0.
        -24    2    5    5    0    0  0.23754805447E+02 -0.43942988680E+02  0.71064874826E+02  0.11966474606E+03  0.82305273093E+02 0.  0.
          5    1    3    3  501    0 -0.35475708044E+02  0.44238087569E+02  0.52340104319E+02  0.77311776419E+02  0.47000000000E+01 0. -1.
        -11    1    4    4    0    0  0.37326458837E+02 -0.38654149924E+02  0.24197584540E+02  0.58931578404E+02  0.00000000000E+00 0.  1.
         12    1    4    4    0    0  0.67084371549E+02  0.34956675635E+02  0.47840299695E+01  0.75796893211E+02  0.00000000000E+00 0. -1.
         -5    1    5    5    0  502 -0.92689927789E+02  0.34023753993E+01  0.95342257593E+02  0.13309859111E+03  0.47000000000E+01 0.  1.
         11    1    6    6    0    0 -0.30714740236E+02 -0.17466576920E+02  0.31387534383E+02  0.47261547708E+02  0.00000000000E+00 0. -1.
        -12    1    6    6    0    0  0.54469545683E+02 -0.26476411760E+02  0.39677340442E+02  0.72403198349E+02  0.00000000000E+00 0.  1.
</event>
<event>
12    1  0.8417180E-002  0.1815759E+03  0.7818608E-02  0.1166739E+00
         21   -1    0    0  501  502  0.00000000000E+00  0.00000000000E+00  0.27100900812E+03  0.27100900812E+03  0.00000000000E+00 0.  1.
         21   -1    0    0  502  503 -0.00000000000E+00 -0.00000000000E+00 -0.31109700281E+03  0.31109700281E+03  0.00000000000E+00 0.  1.
         -6    2    1    2    0  503  0.18087572129E+02  0.53104782072E+02 -0.24795916374E+03  0.30733299465E+03  0.17269205127E+03 0.  0.
        -24    2    3    3    0    0  0.42665685781E+02 -0.15277478630E+02 -0.75358851142E+02  0.12000126974E+03  0.81655288849E+02 0.  0.
          6    2    1    2  501    0 -0.18087572129E+02 -0.53104782072E+02  0.20787116904E+03  0.27477301628E+03  0.17071177291E+03 0.  0.
         24    2    5    5    0    0 -0.83998374660E+01  0.16990500941E+02  0.52326919305E+02  0.10382476525E+03  0.87648394186E+02 0.  0.
          5    1    5    5  501    0 -0.96877346627E+01 -0.70095283013E+02  0.15554424974E+03  0.17094825103E+03  0.47000000000E+01 0. -1.
        -11    1    6    6    0    0 -0.42872420497E+02  0.68007933942E+01  0.52182873052E+02  0.67877444486E+02  0.00000000000E+00 0.  1.
         12    1    6    6    0    0  0.34472583031E+02  0.10189707547E+02  0.14404625301E+00  0.35947320763E+02  0.00000000000E+00 0. -1.
         -5    1    3    3    0  503 -0.24578113653E+02  0.68382260702E+02 -0.17260031260E+03  0.18733172491E+03  0.47000000000E+01 0.  1.
         11    1    4    4    0    0 -0.16859605065E+02 -0.27844319319E+02 -0.26305444733E+02  0.41851270278E+02  0.00000000000E+00 0. -1.
        -12    1    4    4    0    0  0.59525290847E+02  0.12566840690E+02 -0.49053406409E+02  0.78149999460E+02  0.00000000000E+00 0.  1.
</event>
<event>
12    1  0.8417180E-002  0.2434763E+03  0.7818608E-02  0.1117535E+00
         21   -1    0    0  503  502  0.00000000000E+00  0.00000000000E+00  0.39264650630E+02  0.39264650630E+02  0.00000000000E+00 0.  1.
         21   -1    0    0  501  503 -0.00000000000E+00 -0.00000000000E+00 -0.15198360184E+04  0.15198360184E+04  0.00000000000E+00 0. -1.
          6    2    1    2  501    0 -0.68784942097E+02 -0.15873252294E+03 -0.67299062260E+03  0.71567946739E+03  0.17132816418E+03 0.  0.
         24    2    3    3    0    0 -0.78861341950E+02 -0.64557594521E+02 -0.24484628228E+03  0.27715909486E+03  0.80502594083E+02 0.  0.
         -6    2    1    2    0  502  0.68784942097E+02  0.15873252294E+03 -0.80758074515E+03  0.84342120162E+03  0.17101251797E+03 0.  0.
        -24    2    5    5    0    0  0.99136225504E+02  0.15932939480E+03 -0.60224505032E+03  0.63580040731E+03  0.79556332468E+02 0.  0.
          5    1    3    3  501    0  0.10076399853E+02 -0.94174928417E+02 -0.42814434032E+03  0.43852037253E+03  0.47000000000E+01 0. -1.
        -11    1    4    4    0    0 -0.33668630494E+01 -0.49833919410E+02 -0.12660806803E+03  0.13610421809E+03  0.00000000000E+00 0.  1.
         12    1    4    4    0    0 -0.75494478901E+02 -0.14723675110E+02 -0.11823821425E+03  0.14105487677E+03  0.00000000000E+00 0. -1.
         -5    1    5    5    0  502 -0.30351283407E+02 -0.59687186403E+00 -0.20533569483E+03  0.20762079432E+03  0.47000000000E+01 0.  1.
         11    1    6    6    0    0  0.96677064784E+02  0.82903956390E+02 -0.37680442487E+03  0.39774501309E+03  0.00000000000E+00 0. -1.
        -12    1    6    6    0    0  0.24591607200E+01  0.76425438412E+02 -0.22544062546E+03  0.23805539421E+03  0.00000000000E+00 0.  1.
</event>
<event>
12    1  0.8417180E-002  0.1859860E+03  0.7818608E-02  0.1162264E+00
         21   -1    0    0  501  502  0.00000000000E+00  0.00000000000E+00  0.14264591309E+03  0.14264591309E+03  0.00000000000E+00 0.  1.
         21   -1    0    0  502  503 -0.00000000000E+00 -0.00000000000E+00 -0.48775962412E+03  0.48775962412E+03  0.00000000000E+00 0.  1.
         -6    2    1    2    0  503  0.36166259343E+02 -0.59528949473E+02 -0.39627707291E+03  0.43751052066E+03  0.17183783935E+03 0.  0.
        -24    2    3    3    0    0  0.77842837697E+02 -0.46175741153E+02 -0.18027727762E+03  0.21707176064E+03  0.80178213923E+02 0.  0.
          6    2    1    2  501    0 -0.36166259343E+02  0.59528949473E+02  0.51163361885E+02  0.19289501655E+03  0.17245029333E+03 0.  0.
         24    2    5    5    0    0  0.79451243910E+01 -0.33132847846E+02  0.29323404940E+02  0.87865989243E+02  0.75496088511E+02 0.  0.
          5    1    5    5  501    0 -0.44111383735E+02  0.92661797319E+02  0.21839956945E+02  0.10502902731E+03  0.47000000000E+01 0. -1.
        -13    1    6    6    0    0 -0.54953959565E+01  0.81515178568E+00  0.46981161290E+02  0.47308491471E+02  0.00000000000E+00 0.  1.
         14    1    6    6    0    0  0.13440520348E+02 -0.33947999632E+02 -0.17657756350E+02  0.40557497772E+02  0.00000000000E+00 0. -1.
         -5    1    3    3    0  503 -0.41676578354E+02 -0.13353208321E+02 -0.21599979529E+03  0.22043876002E+03  0.47000000000E+01 0.  1.
         13    1    4    4    0    0  0.74543235854E+02 -0.17307974167E+02 -0.16968924498E+03  0.18614698451E+03  0.00000000000E+00 0. -1.
        -14    1    4    4    0    0  0.32996018435E+01 -0.28867766986E+02 -0.10588032639E+02  0.30924776123E+02  0.00000000000E+00 0.  1.
</event>
<event>
12    1  0.8417180E-002  0.1777855E+03  0.7818608E-02  0.1170199E+00
         21   -1    0    0  501  502  0.00000000000E+00  0.00000000000E+00  0.19386943277E+04  0.19386943277E+04  0.00000000000E+00 0. -1.
         21   -1    0    0  502  503 -0.00000000000E+00 -0.00000000000E+00 -0.83674939268E+02  0.83674939268E+02  0.00000000000E+00 0. -1.
         -6    2    1    2    0  503  0.10378006445E+02 -0.47971748956E+02  0.19096357664E+02  0.17785820765E+03  0.16988195736E+03 0.  0.
        -24    2    3    3    0    0  0.62202227870E+02 -0.66891817135E+02  0.92484591675E+01  0.12161951980E+03  0.79763031843E+02 0.  0.
          6    2    1    2  501    0 -0.10378006445E+02  0.47971748956E+02  0.18359230308E+04  0.18445110593E+04  0.17087621636E+03 0.  0.
         24    2    5    5    0    0 -0.46927130567E+02 -0.17692427329E+02  0.12721968119E+04  0.12757782905E+04  0.81304001467E+02 0.  0.
          5    1    5    5  501    0  0.36549124122E+02  0.65664176285E+02  0.56372621889E+03  0.56873276887E+03  0.47000000000E+01 0. -1.
        -11    1    6    6    0    0 -0.27244180688E+02 -0.39704226321E+02  0.37280877877E+03  0.37590564839E+03  0.00000000000E+00 0.  1.
         12    1    6    6    0    0 -0.19682949879E+02  0.22011798992E+02  0.89938803315E+03  0.89987264209E+03  0.00000000000E+00 0. -1.
         -5    1    3    3    0  503 -0.51824221425E+02  0.18920068179E+02  0.98478984968E+01  0.56238687849E+02  0.47000000000E+01 0.  1.
         13    1    4    4    0    0 -0.69265664916E+01  0.11050914212E+02 -0.90072940173E+01  0.15850279928E+02  0.00000000000E+00 0. -1.
        -14    1    4    4    0    0  0.69128794362E+02 -0.77942731346E+02  0.18255753185E+02  0.10576923988E+03  0.00000000000E+00 0.  1.
</event>
<event>
12    1  0.8417180E-002  0.1868718E+03  0.7818608E-02  0.1161328E+00
         21   -1    0    0  503  502  0.00000000000E+00  0.00000000000E+00  0.21493950147E+03  0.21493950147E+03  0.00000000000E+00 0. -1.
         21   -1    0    0  501  503 -0.00000000000E+00 -0.00000000000E+00 -0.16245474875E+03  0.16245474875E+03  0.00000000000E+00 0.  1.
          6    2    1    2  501    0 -0.28367000904E+02  0.68625171427E+02  0.29218754149E+02  0.18914224781E+03  0.17148455738E+03 0.  0.
         24    2    3    3    0    0  0.47159456583E+02  0.22680589993E+02 -0.32382826281E+01  0.94851741499E+02  0.79043930085E+02 0.  0.
         -6    2    1    2    0  502  0.28367000904E+02 -0.68625171427E+02  0.23265998574E+02  0.18825200241E+03  0.17141589433E+03 0.  0.
        -24    2    5    5    0    0  0.54913079464E+02  0.11769673984E+02 -0.19459633672E+02  0.93301514754E+02  0.71920259946E+02 0.  0.
          5    1    3    3  501    0 -0.75526457488E+02  0.45944581434E+02  0.32457036777E+02  0.94290506310E+02  0.47000000000E+01 0. -1.
        -11    1    4    4    0    0  0.33659367687E+01 -0.27337318656E+02  0.45482239886E+01  0.27916748792E+02  0.00000000000E+00 0.  1.
         12    1    4    4    0    0  0.43793519815E+02  0.50017908649E+02 -0.77865066167E+01  0.66934992707E+02  0.00000000000E+00 0. -1.
         -5    1    5    5    0  502 -0.26546078560E+02 -0.80394845411E+02  0.42725632246E+02  0.94950487657E+02  0.47000000000E+01 0.  1.
         11    1    6    6    0    0  0.51929103166E+02  0.57041689213E+01  0.17985768174E+02  0.55250856604E+02  0.00000000000E+00 0. -1.
        -12    1    6    6    0    0  0.29839762986E+01  0.60655050626E+01 -0.37445401846E+02  0.38050658149E+02  0.00000000000E+00 0.  1.
</event>
<event>
12    1  0.8417180E-002  0.1955029E+03  0.7818608E-02  0.1153653E+00
         21   -1    0    0  503  502  0.00000000000E+00  0.00000000000E+00  0.52077669862E+02  0.52077669862E+02  0.00000000000E+00 0. -1.
         21   -1    0    0  501  503 -0.00000000000E+00 -0.00000000000E+00 -0.73557205370E+03  0.73557205370E+03  0.00000000000E+00 0. -1.
          6    2    1    2  501    0  0.81346260935E+02 -0.42094815057E+02 -0.36602564210E+03  0.41496522995E+03  0.17271995765E+03 0.  0.
         24    2    3    3    0    0  0.73899317001E+02 -0.37121294504E+02 -0.11132341610E+03  0.16006229390E+03  0.79924560659E+02 0.  0.
         -6    2    1    2    0  502 -0.81346260935E+02  0.42094815057E+02 -0.31746874174E+03  0.37268449361E+03  0.17238950715E+03 0.  0.
        -24    2    5    5    0    0 -0.62190287379E+02  0.22838568755E+02 -0.32727729081E+03  0.34342612764E+03  0.80261123798E+02 0.  0.
          5    1    3    3  501    0  0.74469439331E+01 -0.49735205530E+01 -0.25470222599E+03  0.25490293605E+03  0.47000000000E+01 0. -1.
        -11    1    4    4    0    0 -0.15919386359E+02  0.10475388415E+01 -0.76911822094E+01  0.17710970709E+02  0.00000000000E+00 0.  1.
         12    1    4    4    0    0  0.89818703360E+02 -0.38168833345E+02 -0.10363223389E+03  0.14235132319E+03  0.00000000000E+00 0. -1.
         -5    1    5    5    0  502 -0.19155973555E+02  0.19256246302E+02  0.98085490762E+01  0.29258365974E+02  0.47000000000E+01 0.  1.
         11    1    6    6    0    0 -0.42090686738E+02 -0.42868698557E+01 -0.56671217461E+02  0.70722203386E+02  0.00000000000E+00 0. -1.
        -12    1    6    6    0    0 -0.20099600641E+02  0.27125438610E+02 -0.27060607335E+03  0.27270392425E+03  0.00000000000E+00 0.  1.
</event>
<event>
12    1  0.8417180E-002  0.2318342E+03  0.7818608E-02  0.1125492E+00
         21   -1    0    0  503  502  0.00000000000E+00  0.00000000000E+00  0.22538082781E+03  0.22538082781E+03  0.00000000000E+00 0. -1.
         21   -1    0    0  501  503 -0.00000000000E+00 -0.00000000000E+00 -0.31597826245E+03  0.31597826245E+03  0.00000000000E+00 0. -1.
          6    2    1    2  501    0  0.10988797127E+03  0.11008842656E+03 -0.17999425582E+03  0.29288596553E+03  0.17084914042E+03 0.  0.
         24    2    3    3    0    0  0.44913121310E+02  0.35963966499E+02 -0.11593904378E+02  0.97701603775E+02  0.78106269975E+02 0.  0.
         -6    2    1    2    0  502 -0.10988797127E+03 -0.11008842656E+03  0.89396821180E+02  0.24847312472E+03  0.17190774904E+03 0.  0.
        -24    2    5    5    0    0 -0.14527664552E+03 -0.10323083527E+03  0.67944877428E+02  0.20626340174E+03  0.78524998871E+02 0.  0.
          5    1    3    3  501    0  0.64974849963E+02  0.74124460062E+02 -0.16840035144E+03  0.19518436175E+03  0.47000000000E+01 0. -1.
        -13    1    4    4    0    0  0.65759292492E+02  0.16542766982E+02 -0.13529639509E+02  0.69144767219E+02  0.00000000000E+00 0.  1.
         14    1    4    4    0    0 -0.20846171182E+02  0.19421199516E+02  0.19357351317E+01  0.28556836556E+02  0.00000000000E+00 0. -1.
         -5    1    5    5    0  502  0.35388674246E+02 -0.68575912957E+01  0.21451943752E+02  0.42209722979E+02  0.47000000000E+01 0.  1.
         13    1    6    6    0    0 -0.12389089946E+03 -0.11604527749E+03  0.57389747272E+02  0.17918996760E+03  0.00000000000E+00 0. -1.
        -14    1    6    6    0    0 -0.21385746056E+02  0.12814442220E+02  0.10555130156E+02  0.27073434145E+02  0.00000000000E+00 0.  1.
</event>
<event>
12    1  0.8417180E-002  0.1752827E+03  0.7818608E-02  0.1173195E+00
         21   -1    0    0  503  502  0.00000000000E+00  0.00000000000E+00  0.39726016594E+03  0.39726016594E+03  0.00000000000E+00 0. -1.
         21   -1    0    0  501  503 -0.00000000000E+00 -0.00000000000E+00 -0.10056926495E+03  0.10056926495E+03  0.00000000000E+00 0. -1.
          6    2    1    2  501    0  0.20809670441E+02  0.25645828221E+02  0.24468717006E+02  0.17405644763E+03  0.16913360979E+03 0.  0.
         24    2    3    3    0    0 -0.11161862486E+01  0.75492108778E+02 -0.61596088535E+01  0.11140200468E+03  0.81683300040E+02 0.  0.
         -6    2    1    2    0  502 -0.20809670441E+02 -0.25645828221E+02  0.27222218399E+03  0.32377298326E+03  0.17214318559E+03 0.  0.
        -24    2    5    5    0    0  0.20697227740E+02 -0.38221129611E+02  0.26422054115E+03  0.27942124046E+03  0.79840498929E+02 0.  0.
          5    1    3    3  501    0  0.21925856690E+02 -0.49846280557E+02  0.30628325860E+02  0.62654442954E+02  0.47000000000E+01 0. -1.
        -13    1    4    4    0    0 -0.21680347454E+02 -0.87830651053E+01  0.50562373820E+01  0.23932096332E+02  0.00000000000E+00 0.  1.
         14    1    4    4    0    0  0.20564161206E+02  0.84275173883E+02 -0.11215846235E+02  0.87469908345E+02  0.00000000000E+00 0. -1.
         -5    1    5    5    0  502 -0.41506898181E+02  0.12575301390E+02  0.80016428414E+01  0.44351742805E+02  0.47000000000E+01 0.  1.
         11    1    6    6    0    0  0.23160254628E+02  0.20508404515E+02  0.70735036596E+02  0.77203869414E+02  0.00000000000E+00 0. -1.
        -12    1    6    6    0    0 -0.24630268874E+01 -0.58729534126E+02  0.19348550455E+03  0.20221737104E+03  0.00000000000E+00 0.  1.
</event>
<event>
12    1  0.8417180E-002  0.1737496E+03  0.7818608E-02  0.1174048E+00
         21   -1    0    0  503  502  0.00000000000E+00  0.00000000000E+00  0.69520636334E+03  0.69520636334E+03  0.00000000000E+00 0. -1.
         21   -1    0    0  501  503 -0.00000000000E+00 -0.00000000000E+00 -0.46662577845E+02  0.46662577845E+02  0.00000000000E+00 0. -1.
          6    2    1    2  501    0 -0.10640879710E+02  0.25794538333E+02  0.22593213492E+03  0.28501623989E+03  0.17149443398E+03 0.  0.
         24    2    3    3    0    0 -0.64531846985E+01 -0.18938366853E+02  0.33975219025E+02  0.87815537171E+02  0.78466220306E+02 0.  0.
         -6    2    1    2    0  502  0.10640879710E+02 -0.25794538333E+02  0.42261165058E+03  0.45685270129E+03  0.17127520820E+03 0.  0.
        -24    2    5    5    0    0 -0.15371015881E+01 -0.82623069317E+02  0.30250955222E+03  0.32334468957E+03  0.78808786486E+02 0.  0.
          5    1    3    3  501    0 -0.41876950117E+01  0.44732905187E+02  0.19195691589E+03  0.19720070272E+03  0.47000000000E+01 0. -1.
        -13    1    4    4    0    0 -0.25777312528E+02 -0.42971997841E+02  0.22139869543E+02  0.54783540074E+02  0.00000000000E+00 0.  1.
         14    1    4    4    0    0  0.19324127830E+02  0.24033630988E+02  0.11835349482E+02  0.33031997097E+02  0.00000000000E+00 0. -1.
         -5    1    5    5    0  502  0.12177981298E+02  0.56828530983E+02  0.12010209836E+03  0.13350801172E+03  0.47000000000E+01 0.  1.
         11    1    6    6    0    0 -0.31418611072E+02 -0.12911728114E+02  0.56664627784E+02  0.66066041856E+02  0.00000000000E+00 0. -1.
        -12    1    6    6    0    0  0.29881509484E+02 -0.69711341203E+02  0.24584492443E+03  0.25727864772E+03  0.00000000000E+00 0.  1.
</event>
<event>
12    1  0.8417180E-002  0.1915788E+03  0.7818608E-02  0.1157079E+00
         21   -1    0    0  503  502  0.00000000000E+00  0.00000000000E+00  0.57351565707E+03  0.57351565707E+03  0.00000000000E+00 0.  1.
         21   -1    0    0  501  503 -0.00000000000E+00 -0.00000000000E+00 -0.64250970737E+02  0.64250970737E+02  0.00000000000E+00 0. -1.
          6    2    1    2  501    0 -0.53275924899E+02  0.65160185932E+02  0.23252198008E+03  0.30118238974E+03  0.17193076126E+03 0.  0.
         24    2    3    3    0    0 -0.64291463057E+02 -0.19789385498E+02  0.10927113279E+03  0.15101370751E+03  0.79623786609E+02 0.  0.
         -6    2    1    2    0  502  0.53275924899E+02 -0.65160185932E+02  0.27674270626E+03  0.33658423807E+03  0.17209953470E+03 0.  0.
        -24    2    5    5    0    0  0.93477800891E+02 -0.44630369739E+02  0.13849864677E+03  0.19108106226E+03  0.81241172039E+02 0.  0.
          5    1    3    3  501    0  0.11015538157E+02  0.84949571431E+02  0.12325084728E+03  0.15016868223E+03  0.47000000000E+01 0. -1.
        -11    1    4    4    0    0  0.11377840282E+02 -0.25595777745E+02  0.24264321182E+02  0.37058823110E+02  0.00000000000E+00 0.  1.
         12    1    4    4    0    0 -0.75669303338E+02  0.58063922466E+01  0.85006811610E+02  0.11395488440E+03  0.00000000000E+00 0. -1.
         -5    1    5    5    0  502 -0.40201875992E+02 -0.20529816193E+02  0.13824405949E+03  0.14550317581E+03  0.47000000000E+01 0.  1.
         11    1    6    6    0    0  0.71828573180E+02  0.83122932272E+01  0.60033613148E+02  0.93981236699E+02  0.00000000000E+00 0. -1.
        -12    1    6    6    0    0  0.21649227711E+02 -0.52942662966E+02  0.78465033624E+02  0.97099825561E+02  0.00000000000E+00 0.  1.
</event>
<event>
12    1  0.8417180E-002  0.1926962E+03  0.7818608E-02  0.1156569E+00
         21   -1    0    0  501  502  0.00000000000E+00  0.00000000000E+00  0.20041564376E+03  0.20041564376E+03  0.00000000000E+00 0.  1.
         21   -1    0    0  502  503 -0.00000000000E+00 -0.00000000000E+00 -0.19036187714E+03  0.19036187714E+03  0.00000000000E+00 0.  1.
         -6    2    1    2    0  503  0.22500214500E+02  0.77357965960E+02 -0.33297411134E+02  0.19326510570E+03  0.17248817045E+03 0.  0.
        -24    2    3    3    0    0  0.34158497591E+02  0.77050358367E+02  0.37103118611E+02  0.12175052834E+03  0.79642884544E+02 0.  0.
          6    2    1    2  501    0 -0.22500214500E+02 -0.77357965960E+02  0.43351177749E+02  0.19751241520E+03  0.17504660806E+03 0.  0.
         24    2    5    5    0    0 -0.76184142148E+02 -0.55606028719E+02 -0.18996045015E+01  0.12385894172E+03  0.80258177158E+02 0.  0.
          5    1    5    5  501    0  0.53683927648E+02 -0.21751937241E+02  0.45250782251E+02  0.73653473481E+02  0.47000000000E+01 0. -1.
        -11    1    6    6    0    0 -0.53971645703E+02 -0.64212016101E+02  0.25385096970E+02  0.87638602795E+02  0.00000000000E+00 0.  1.
         12    1    6    6    0    0 -0.22212496445E+02  0.86059873815E+01 -0.27284701472E+02  0.36220338920E+02  0.00000000000E+00 0. -1.
         -5    1    3    3    0  503 -0.11658283091E+02  0.30760759351E+00 -0.70400529745E+02  0.71514577363E+02  0.47000000000E+01 0.  1.
         11    1    4    4    0    0 -0.19717812993E+02  0.52756179350E+02  0.12252111374E+02  0.57637842100E+02  0.00000000000E+00 0. -1.
        -12    1    4    4    0    0  0.53876310584E+02  0.24294179017E+02  0.24851007237E+02  0.64112686240E+02  0.00000000000E+00 0.  1.
</event>
<event>
12    1  0.8417180E-002  0.1882556E+03  0.7818608E-02  0.1160183E+00
         21   -1    0    0  503  502  0.00000000000E+00  0.00000000000E+00  0.12168845414E+03  0.12168845414E+03  0.00000000000E+00 0. -1.
         21   -1    0    0  501  503 -0.00000000000E+00 -0.00000000000E+00 -0.31170755323E+03  0.31170755323E+03  0.00000000000E+00 0. -1.
          6    2    1    2  501    0 -0.65196755516E+02 -0.42065183175E+02 -0.15165889865E+03  0.24127185320E+03  0.17085546243E+03 0.  0.
         24    2    3    3    0    0 -0.86014476630E+02 -0.60510914667E+02 -0.15470503399E+03  0.21289948173E+03  0.10164881108E+03 0.  0.
         -6    2    1    2    0  502  0.65196755516E+02  0.42065183175E+02 -0.38360200444E+02  0.19212415417E+03  0.17152285292E+03 0.  0.
        -24    2    5    5    0    0  0.47038471733E+02  0.29786430290E+02  0.43865942409E+02  0.10689669609E+03  0.80017707287E+02 0.  0.
          5    1    3    3  501    0  0.20817721114E+02  0.18445731492E+02  0.30461353395E+01  0.28372371476E+02  0.47000000000E+01 0. -1.
        -13    1    4    4    0    0 -0.29606250458E+02 -0.27543795495E+02  0.46180017392E+01  0.40700327720E+02  0.00000000000E+00 0.  1.
         14    1    4    4    0    0 -0.56408226172E+02 -0.32967119172E+02 -0.15932303573E+03  0.17219915401E+03  0.00000000000E+00 0. -1.
         -5    1    5    5    0  502  0.18158283783E+02  0.12278752885E+02 -0.82226142853E+02  0.85227458080E+02  0.47000000000E+01 0.  1.
         11    1    6    6    0    0 -0.12469636393E+02  0.23793108547E+02 -0.76813850909E+01  0.27939354377E+02  0.00000000000E+00 0. -1.
        -12    1    6    6    0    0  0.59508108126E+02  0.59933217435E+01  0.51547327500E+02  0.78957341715E+02  0.00000000000E+00 0.  1.
</event>
<event>
12    1  0.8417180E-002  0.1846338E+03  0.7818608E-02  0.1163886E+00
         21   -1    0    0  501  502  0.00000000000E+00  0.00000000000E+00  0.14905734001E+03  0.14905734001E+03  0.00000000000E+00 0.  1.
         21   -1    0    0  502  503 -0.00000000000E+00 -0.00000000000E+00 -0.25568670637E+03  0.25568670637E+03  0.00000000000E+00 0.  1.
         -6    2    1    2    0  503  0.19726364372E+02 -0.59083720403E+02 -0.12187232088E+03  0.21948212604E+03  0.17157950223E+03 0.  0.
        -24    2    3    3    0    0  0.77029529687E+01 -0.74180998216E+02 -0.14699016339E+02  0.11048351401E+03  0.80177239946E+02 0.  0.
          6    2    1    2  501    0 -0.19726364372E+02  0.59083720403E+02  0.15242954516E+02  0.18526192035E+03  0.17380913670E+03 0.  0.
         24    2    5    5    0    0  0.18994561066E+02  0.12822464113E+02  0.73022959769E+02  0.10159572104E+03  0.66814137302E+02 0.  0.
          5    1    5    5  501    0 -0.38720925438E+02  0.46261256290E+02 -0.57780005253E+02  0.83666199312E+02  0.47000000000E+01 0. -1.
        -13    1    6    6    0    0 -0.30693576635E+01  0.37424856713E+02  0.37178046068E+02  0.52841725614E+02  0.00000000000E+00 0.  1.
         14    1    6    6    0    0  0.22063918730E+02 -0.24602392600E+02  0.35844913701E+02  0.48753995422E+02  0.00000000000E+00 0. -1.
         -5    1    3    3    0  503  0.12023411404E+02  0.15097277813E+02 -0.10717330454E+03  0.10899861203E+03  0.47000000000E+01 0.  1.
         11    1    4    4    0    0  0.13526777345E+02  0.44648953016E+01  0.19812194703E+02  0.24401476479E+02  0.00000000000E+00 0. -1.
        -12    1    4    4    0    0 -0.58238243764E+01 -0.78645893517E+02 -0.34511211042E+02  0.86082037529E+02  0.00000000000E+00 0.  1.
</event>
<event>
12    1  0.8417180E-002  0.1763483E+03  0.7818608E-02  0.1171436E+00
         21   -1    0    0  503  502  0.00000000000E+00  0.00000000000E+00  0.64342505794E+03  0.64342505794E+03  0.00000000000E+00 0.  1.
         21   -1    0    0  501  503 -0.00000000000E+00 -0.00000000000E+00 -0.21003840488E+03  0.21003840488E+03  0.00000000000E+00 0. -1.
          6    2    1    2  501    0  0.30030177124E+02 -0.26326735516E+02 -0.15777056657E+03  0.23662263943E+03  0.17176674088E+03 0.  0.
         24    2    3    3    0    0  0.62182589294E+02  0.44895203392E+01 -0.16333708424E+03  0.19149509404E+03  0.78131541342E+02 0.  0.
         -6    2    1    2    0  502 -0.30030177124E+02  0.26326735516E+02  0.59115721963E+03  0.61684082339E+03  0.17155417380E+03 0.  0.
        -24    2    5    5    0    0 -0.26344319533E+02  0.69063081292E+02  0.53863203239E+03  0.54886313521E+03  0.75249867149E+02 0.  0.
          5    1    3    3  501    0 -0.32152412170E+02 -0.30816255855E+02  0.55665176666E+01  0.45127545382E+02  0.47000000000E+01 0. -1.
        -11    1    4    4    0    0  0.53151516641E+01  0.21312480113E+02 -0.51555022203E+01  0.22562177398E+02  0.00000000000E+00 0.  1.
         12    1    4    4    0    0  0.56867437630E+02 -0.16822959774E+02 -0.15818158202E+03  0.16893291665E+03  0.00000000000E+00 0. -1.
         -5    1    5    5    0  502 -0.36858575911E+01 -0.42736345776E+02  0.52525187233E+02  0.67977688180E+02  0.47000000000E+01 0.  1.
         11    1    6    6    0    0 -0.10000415251E+02  0.54466633991E+02  0.15481581428E+03  0.16442189293E+03  0.00000000000E+00 0. -1.
        -12    1    6    6    0    0 -0.16343904281E+02  0.14596447301E+02  0.38381621811E+03  0.38444124228E+03  0.00000000000E+00 0.  1.
</event>
<event>
12    1  0.8417180E-002  0.1867748E+03  0.7818608E-02  0.1162057E+00
         21   -1    0    0  501  502  0.00000000000E+00  0.00000000000E+00  0.10439985559E+03  0.10439985559E+03  0.00000000000E+00 0. -1.
         21   -1    0    0  502  503 -0.00000000000E+00 -0.00000000000E+00 -0.34612867803E+03  0.34612867803E+03  0.00000000000E+00 0. -1.
         -6    2    1    2    0  503  0.50122909611E+02 -0.43201105545E+02 -0.16990747302E+03  0.25042073383E+03  0.17164892355E+03 0.  0.
        -24    2    3    3    0    0  0.30393906046E+02 -0.93386468609E+02 -0.13174691138E+03  0.18419292463E+03  0.83216361253E+02 0.  0.
          6    2    1    2  501    0 -0.50122909611E+02  0.43201105545E+02 -0.71821349414E+02  0.20010779979E+03  0.17466019500E+03 0.  0.
         24    2    5    5    0    0 -0.21775640739E+02  0.84656053822E+02 -0.74850368962E+01  0.11835615456E+03  0.79443864250E+02 0.  0.
          5    1    5    5  501    0 -0.28347268872E+02 -0.41454948277E+02 -0.64336312518E+02  0.81751645228E+02  0.47000000000E+01 0. -1.
        -13    1    6    6    0    0 -0.36920738318E+02  0.12608321851E+02 -0.19735010989E+02  0.43721634880E+02  0.00000000000E+00 0.  1.
         14    1    6    6    0    0  0.15145097579E+02  0.72047731971E+02  0.12249974093E+02  0.74634519681E+02  0.00000000000E+00 0. -1.
         -5    1    3    3    0  503  0.19729003565E+02  0.50185363064E+02 -0.38160561638E+02  0.66227809205E+02  0.47000000000E+01 0.  1.
         11    1    4    4    0    0 -0.14916150637E+02  0.25776074718E+01 -0.43872347485E+02  0.46410327342E+02  0.00000000000E+00 0. -1.
        -12    1    4    4    0    0  0.45310056684E+02 -0.95964076081E+02 -0.87874563895E+02  0.13778259728E+03  0.00000000000E+00 0.  1.
</event>
<event>
12    1  0.8417180E-002  0.1828977E+03  0.7818608E-02  0.1165106E+00
         21   -1    0    0  501  502  0.00000000000E+00  0.00000000000E+00  0.79023093635E+02  0.79023093635E+02  0.00000000000E+00 0. -1.
         21   -1    0    0  502  503 -0.00000000000E+00 -0.00000000000E+00 -0.90407811880E+03  0.90407811880E+03  0.00000000000E+00 0. -1.
         -6    2    1    2    0  503 -0.51519290161E+02 -0.34982726692E+02 -0.77109024262E+03  0.79240837969E+03  0.17161832512E+03 0.  0.
        -24    2    3    3    0    0 -0.18116063272E+02 -0.70352557699E+02 -0.68932895365E+03  0.69715188970E+03  0.74623567633E+02 0.  0.
          6    2    1    2  501    0  0.51519290161E+02  0.34982726692E+02 -0.53964782544E+02  0.19069283274E+03  0.17196956207E+03 0.  0.
         24    2    5    5    0    0  0.87993694130E+01 -0.43887934760E+02 -0.18981197379E+02  0.94300332527E+02  0.80800291715E+02 0.  0.
          5    1    5    5  501    0  0.42719920748E+02  0.78870661452E+02 -0.34983585165E+02  0.96392500214E+02  0.47000000000E+01 0. -1.
        -11    1    6    6    0    0 -0.73037830218E+01 -0.39454368242E+02 -0.46927729134E+02  0.61743049662E+02  0.00000000000E+00 0.  1.
         12    1    6    6    0    0  0.16103152435E+02 -0.44335665176E+01  0.27946531755E+02  0.32557282865E+02  0.00000000000E+00 0. -1.
         -5    1    3    3    0  503 -0.33403226888E+02  0.35369831007E+02 -0.81761288970E+02  0.95256489994E+02  0.47000000000E+01 0.  1.
         13    1    4    4    0    0 -0.15002495143E+02 -0.28604703568E-01 -0.36332803059E+03  0.36363764037E+03  0.00000000000E+00 0. -1.
        -14    1    4    4    0    0 -0.31135681297E+01 -0.70323952995E+02 -0.32600092305E+03  0.33351424933E+03  0.00000000000E+00 0.  1.
</event>
<event>
12    1  0.8417180E-002  0.2169056E+03  0.7818608E-02  0.1136269E+00
         21   -1    0    0  503  502  0.00000000000E+00  0.00000000000E+00  0.11372775307E+04  0.11372775307E+04  0.00000000000E+00 0.  1.
         21   -1    0    0  501  503 -0.00000000000E+00 -0.00000000000E+00 -0.45390158782E+02  0.45390158782E+02  0.00000000000E+00 0. -1.
          6    2    1    2  501    0 -0.12685981809E+03 -0.32048131750E+02  0.36832823462E+03  0.42729633355E+03  0.17261509798E+03 0.  0.
         24    2    3    3    0    0 -0.61151354459E+02 -0.82547018398E+02  0.18716532486E+03  0.22802307990E+03  0.80063523150E+02 0.  0.
         -6    2    1    2    0  502  0.12685981809E+03  0.32048131750E+02  0.72355913730E+03  0.75537135594E+03  0.17299584967E+03 0.  0.
        -24    2    5    5    0    0  0.14886719831E+03 -0.11000342647E+02  0.56821344452E+03  0.59260812238E+03  0.77687952130E+02 0.  0.
          5    1    3    3  501    0 -0.65708463635E+02  0.50498886648E+02  0.18116290976E+03  0.19927325365E+03  0.47000000000E+01 0. -1.
        -13    1    4    4    0    0  0.51603728612E+01 -0.37600440607E+02  0.11168015754E+03  0.11795287267E+03  0.00000000000E+00 0.  1.
         14    1    4    4    0    0 -0.66311727321E+02 -0.44946577791E+02  0.75485167314E+02  0.11007020723E+03  0.00000000000E+00 0. -1.
         -5    1    5    5    0  502 -0.22007380218E+02  0.43048474397E+02  0.15534569278E+03  0.16276323355E+03  0.47000000000E+01 0.  1.
         13    1    6    6    0    0  0.19964056243E+02 -0.14583715543E+02  0.28620374259E+02  0.37820287194E+02  0.00000000000E+00 0. -1.
        -14    1    6    6    0    0  0.12890314207E+03  0.35833728966E+01  0.53959307026E+03  0.55478783519E+03  0.00000000000E+00 0.  1.
</event>
<event>
12    1  0.8417180E-002  0.2827557E+03  0.7818608E-02  0.1094194E+00
         21   -1    0    0  501  502  0.00000000000E+00  0.00000000000E+00  0.19687419870E+03  0.19687419870E+03  0.00000000000E+00 0. -1.
         21   -1    0    0  502  503 -0.00000000000E+00 -0.00000000000E+00 -0.58022722486E+03  0.58022722486E+03  0.00000000000E+00 0.  1.
         -6    2    1    2    0  503  0.11963139231E+03 -0.18949798594E+03 -0.40453937011E+03  0.49356143406E+03  0.17242282481E+03 0.  0.
        -24    2    3    3    0    0  0.56242695816E+01 -0.91349724468E+02 -0.11882777840E+03  0.17063124206E+03  0.81354626658E+02 0.  0.
          6    2    1    2  501    0 -0.11963139231E+03  0.18949798594E+03  0.21186343950E+02  0.28353998950E+03  0.17240912903E+03 0.  0.
         24    2    5    5    0    0 -0.25483104171E+02  0.46625464999E+02 -0.39252829014E+02  0.10201467163E+03  0.77736002320E+02 0.  0.
          5    1    5    5  501    0 -0.94148288142E+02  0.14287252094E+03  0.60439172964E+02  0.18152531787E+03  0.47000000000E+01 0. -1.
        -13    1    6    6    0    0  0.51692942078E+00 -0.17619359473E+02  0.67005370491E+01  0.18857524785E+02  0.00000000000E+00 0.  1.
         14    1    6    6    0    0 -0.26000033592E+02  0.64244824471E+02 -0.45953366063E+02  0.83157146841E+02  0.00000000000E+00 0. -1.
         -5    1    3    3    0  503  0.11400712273E+03 -0.98148261472E+02 -0.28571159171E+03  0.32293019200E+03  0.47000000000E+01 0.  1.
         13    1    4    4    0    0  0.42597216550E+02 -0.38757619769E+02 -0.64429350576E+02  0.86416532930E+02  0.00000000000E+00 0. -1.
        -14    1    4    4    0    0 -0.36972946968E+02 -0.52592104699E+02 -0.54398427824E+02  0.84214709130E+02  0.00000000000E+00 0.  1.
</event>
<event>
12    1  0.8417180E-002  0.2210523E+03  0.7818608E-02  0.1133699E+00
         21   -1    0    0  501  502  0.00000000000E+00  0.00000000000E+00  0.18491960310E+03  0.18491960310E+03  0.00000000000E+00 0. -1.
         21   -1    0    0  502  503 -0.00000000000E+00 -0.00000000000E+00 -0.11559303443E+04  0.11559303443E+04  0.00000000000E+00 0.  1.
         -6    2    1    2    0  503 -0.13407940359E+03 -0.32660773593E+02 -0.10763891201E+04  0.10988528853E+04  0.17268501136E+03 0.  0.
        -24    2    3    3    0    0 -0.13620527645E+03 -0.62685172194E+02 -0.10242249598E+04  0.10384444963E+04  0.82758053813E+02 0.  0.
          6    2    1    2  501    0  0.13407940359E+03  0.32660773593E+02  0.10537837894E+03  0.24199706201E+03  0.16856441699E+03 0.  0.
         24    2    5    5    0    0  0.95582071604E+02 -0.17066495804E+02  0.89076385775E+01  0.12674282288E+03  0.80976536330E+02 0.  0.
          5    1    5    5  501    0  0.38497331988E+02  0.49727269397E+02  0.96470740362E+02  0.11525423913E+03  0.47000000000E+01 0. -1.
        -11    1    6    6    0    0  0.49908169700E+02 -0.38434500363E+02  0.32713884043E+02  0.70980521484E+02  0.00000000000E+00 0.  1.
         12    1    6    6    0    0  0.45673901904E+02  0.21368004560E+02 -0.23806245466E+02  0.55762301398E+02  0.00000000000E+00 0. -1.
         -5    1    3    3    0  503  0.21258728588E+01  0.30024398601E+02 -0.52164160311E+02  0.60408389051E+02  0.47000000000E+01 0.  1.
         13    1    4    4    0    0 -0.88890067234E+02 -0.69000058238E+02 -0.52395490004E+03  0.53590221997E+03  0.00000000000E+00 0. -1.
        -14    1    4    4    0    0 -0.47315209216E+02  0.63148860436E+01 -0.50027005975E+03  0.50254227633E+03  0.00000000000E+00 0.  1.
</event>
<event>
12    1  0.8417180E-002  0.2186796E+03  0.7818608E-02  0.1136101E+00
         21   -1    0    0  503  502  0.00000000000E+00  0.00000000000E+00  0.63998316554E+03  0.63998316554E+03  0.00000000000E+00 0. -1.
         21   -1    0    0  501  503 -0.00000000000E+00 -0.00000000000E+00 -0.12596395510E+03  0.12596395510E+03  0.00000000000E+00 0. -1.
          6    2    1    2  501    0 -0.64629107015E+02 -0.10803317400E+03  0.53976546153E+01  0.21230766478E+03  0.17087223792E+03 0.  0.
         24    2    3    3    0    0 -0.22422097697E+02 -0.48076782598E+01 -0.29748857669E+02  0.95285009151E+02  0.87569253742E+02 0.  0.
         -6    2    1    2    0  502  0.64629107015E+02  0.10803317400E+03  0.50862155583E+03  0.55363945586E+03  0.17880903743E+03 0.  0.
        -24    2    5    5    0    0 -0.61375687006E+01  0.10468544134E+03  0.41970169532E+03  0.43985034698E+03  0.79511655159E+02 0.  0.
          5    1    3    3  501    0 -0.42207009318E+02 -0.10322549574E+03  0.35146512285E+02  0.11702265563E+03  0.47000000000E+01 0. -1.
        -13    1    4    4    0    0 -0.11031208701E+02 -0.25985268153E+02  0.23581961829E+02  0.36783564946E+02  0.00000000000E+00 0.  1.
         14    1    4    4    0    0 -0.11390888995E+02  0.21177589894E+02 -0.53330819498E+02  0.58501444206E+02  0.00000000000E+00 0. -1.
         -5    1    5    5    0  502  0.70766675715E+02  0.33477326566E+01  0.88919860516E+02  0.11378910888E+03  0.47000000000E+01 0.  1.
         11    1    6    6    0    0 -0.15251395166E+02  0.80643317322E+02  0.39748554722E+03  0.40587031172E+03  0.00000000000E+00 0. -1.
        -12    1    6    6    0    0  0.91138264652E+01  0.24042124017E+02  0.22216148095E+02  0.33980035260E+02  0.00000000000E+00 0.  1.
</event>
<event>
12    1  0.8417180E-002  0.1899150E+03  0.7818608E-02  0.1158635E+00
         21   -1    0    0  501  502  0.00000000000E+00  0.00000000000E+00  0.23399420921E+03  0.23399420921E+03  0.00000000000E+00 0.  1.
         21   -1    0    0  502  503 -0.00000000000E+00 -0.00000000000E+00 -0.46393483648E+03  0.46393483648E+03  0.00000000000E+00 0. -1.
         -6    2    1    2    0  503  0.16634591086E+02 -0.78421255566E+02 -0.40024792886E+03  0.44283635666E+03  0.17169458723E+03 0.  0.
        -24    2    3    3    0    0  0.53110762889E+02 -0.21159687959E+02 -0.33345703663E+03  0.34748169491E+03  0.79255583334E+02 0.  0.
          6    2    1    2  501    0 -0.16634591086E+02  0.78421255566E+02  0.17030730158E+03  0.25509268902E+03  0.17216590857E+03 0.  0.
         24    2    5    5    0    0  0.10262339402E+02  0.69923551302E+02  0.19164687694E+03  0.21941183528E+03  0.80114976030E+02 0.  0.
          5    1    5    5  501    0 -0.26896930488E+02  0.84977042642E+01 -0.21339575352E+02  0.35680853740E+02  0.47000000000E+01 0. -1.
        -13    1    6    6    0    0  0.25466075048E+02  0.67224939736E+02  0.83557559173E+02  0.11022512960E+03  0.00000000000E+00 0.  1.
         14    1    6    6    0    0 -0.15203735647E+02  0.26986115661E+01  0.10808931776E+03  0.10918670568E+03  0.00000000000E+00 0. -1.
         -5    1    3    3    0  503 -0.36476171803E+02 -0.57261567607E+02 -0.66790892226E+02  0.95354661756E+02  0.47000000000E+01 0.  1.
         13    1    4    4    0    0  0.32985868634E+01 -0.24337413390E+02 -0.24240609693E+03  0.24364709355E+03  0.00000000000E+00 0. -1.
        -14    1    4    4    0    0  0.49812176026E+02  0.31777254315E+01 -0.91050939696E+02  0.10383460136E+03  0.00000000000E+00 0.  1.
</event>
<event>
12    1  0.8417180E-002  0.2241635E+03  0.7818608E-02  0.1131002E+00
         21   -1    0    0  501  502  0.00000000000E+00  0.00000000000E+00  0.87744767726E+02  0.87744767726E+02  0.00000000000E+00 0.  1.
         21   -1    0    0  502  503 -0.00000000000E+00 -0.00000000000E+00 -0.74842363871E+03  0.74842363871E+03  0.00000000000E+00 0. -1.
         -6    2    1    2    0  503  0.11806210001E+02  0.14364652349E+03 -0.53500368399E+03  0.58006742046E+03  0.17168447831E+03 0.  0.
        -24    2    3    3    0    0  0.31786775469E+02  0.12876713542E+03 -0.53261099299E+03  0.55460305014E+03  0.79490245337E+02 0.  0.
          6    2    1    2  501    0 -0.11806210001E+02 -0.14364652349E+03 -0.12567518699E+03  0.25610098597E+03  0.17035184790E+03 0.  0.
         24    2    5    5    0    0  0.19539471380E+02 -0.16057793565E+03 -0.12609591572E+03  0.22016365898E+03  0.80029946962E+02 0.  0.
          5    1    5    5  501    0 -0.31345681381E+02  0.16931412160E+02  0.42072872920E+00  0.35937326996E+02  0.47000000000E+01 0. -1.
        -11    1    6    6    0    0  0.44635202356E+02 -0.73526161535E+02 -0.38826178966E+02  0.94370916561E+02  0.00000000000E+00 0.  1.
         12    1    6    6    0    0 -0.25095730976E+02 -0.87051774120E+02 -0.87269736757E+02  0.12579274242E+03  0.00000000000E+00 0. -1.
         -5    1    3    3    0  503 -0.19980565468E+02  0.14879388077E+02 -0.23926909959E+01  0.25464370328E+02  0.47000000000E+01 0.  1.
         11    1    4    4    0    0  0.46830687266E+02  0.85439971139E+02 -0.25037503271E+03  0.26866477056E+03  0.00000000000E+00 0. -1.
        -12    1    4    4    0    0 -0.15043911797E+02  0.43327164278E+02 -0.28223596029E+03  0.28593827957E+03  0.00000000000E+00 0.  1.
</event>
<event>
12    1  0.8417180E-002  0.2348158E+03  0.7818608E-02  0.1123372E+00
         21   -1    0    0  501  502  0.00000000000E+00  0.00000000000E+00  0.95869422517E+02  0.95869422517E+02  0.00000000000E+00 0.  1.
         21   -1    0    0  502  503 -0.00000000000E+00 -0.00000000000E+00 -0.67172139157E+03  0.67172139157E+03  0.00000000000E+00 0. -1.
         -6    2    1    2    0  503 -0.63310885467E+02  0.14597747800E+03 -0.43450437676E+03  0.49389525483E+03  0.17268693355E+03 0.  0.
        -24    2    3    3    0    0 -0.37950068338E+02  0.14747429460E+03 -0.43478637770E+03  0.46805766535E+03  0.82764174677E+02 0.  0.
          6    2    1    2  501    0  0.63310885467E+02 -0.14597747800E+03 -0.14134759230E+03  0.27369555926E+03  0.17208261100E+03 0.  0.
         24    2    5    5    0    0  0.54170117749E+02 -0.10626460895E+03 -0.18592244021E+02  0.14426746674E+03  0.78999124362E+02 0.  0.
          5    1    5    5  501    0  0.91407677181E+01 -0.39712869054E+02 -0.12275534827E+03  0.12942809252E+03  0.47000000000E+01 0. -1.
        -11    1    6    6    0    0 -0.17363875795E+02 -0.42957271287E+01 -0.68606925280E+01  0.19157937158E+02  0.00000000000E+00 0.  1.
         12    1    6    6    0    0  0.71533993544E+02 -0.10196888182E+03 -0.11731551493E+02  0.12510952958E+03  0.00000000000E+00 0. -1.
         -5    1    3    3    0  503 -0.25360817129E+02 -0.14968165973E+01  0.28200094109E+00  0.25837589475E+02  0.47000000000E+01 0.  1.
         11    1    4    4    0    0 -0.55475143920E+02  0.91288214958E+02 -0.20887764059E+03  0.23460796773E+03  0.00000000000E+00 0. -1.
        -12    1    4    4    0    0  0.17525075582E+02  0.56186079640E+02 -0.22590873710E+03  0.23344969762E+03  0.00000000000E+00 0.  1.
</event>
<event>
12    1  0.8417180E-002  0.2016625E+03  0.7818608E-02  0.1148452E+00
         21   -1    0    0  503  502  0.00000000000E+00  0.00000000000E+00  0.72011517647E+02  0.72011517647E+02  0.00000000000E+00 0. -1.
         21   -1    0    0  501  503 -0.00000000000E+00 -0.00000000000E+00 -0.73002200589E+03  0.73002200589E+03  0.00000000000E+00 0.  1.
          6    2    1    2  501    0  0.34354354906E+02 -0.99240851976E+02 -0.52098217911E+03  0.55865032966E+03  0.17215920387E+03 0.  0.
         24    2    3    3    0    0  0.69429038758E+02 -0.11935437053E+03 -0.43488138304E+03  0.46341260520E+03  0.81015851282E+02 0.  0.
         -6    2    1    2    0  502 -0.34354354906E+02  0.99240851976E+02 -0.13702830913E+03  0.24338319387E+03  0.17155073056E+03 0.  0.
        -24    2    5    5    0    0  0.26431930393E+02  0.77971575406E+00 -0.69930192646E+02  0.10954069292E+03  0.80060456284E+02 0.  0.
          5    1    3    3  501    0 -0.35074683852E+02  0.20113518551E+02 -0.86100796070E+02  0.95237724457E+02  0.47000000000E+01 0. -1.
        -11    1    4    4    0    0  0.32001188542E+02  0.29991919267E+01 -0.87706562511E+02  0.93410450849E+02  0.00000000000E+00 0.  1.
         12    1    4    4    0    0  0.37427850216E+02 -0.12235356245E+03 -0.34717482053E+03  0.37000215435E+03  0.00000000000E+00 0. -1.
         -5    1    5    5    0  502 -0.60786285299E+02  0.98461136221E+02 -0.67098116481E+02  0.13384250095E+03  0.47000000000E+01 0.  1.
         11    1    6    6    0    0 -0.91806143273E+01 -0.21560065893E+02  0.46854713513E+01  0.23897149674E+02  0.00000000000E+00 0. -1.
        -12    1    6    6    0    0  0.35612544720E+02  0.22339781647E+02 -0.74615663998E+02  0.85643543244E+02  0.00000000000E+00 0.  1.
</event>
<event>
12    1  0.8417180E-002  0.1905825E+03  0.7818608E-02  0.1158186E+00
         21   -1    0    0  501  502  0.00000000000E+00  0.00000000000E+00  0.16056668509E+03  0.16056668509E+03  0.00000000000E+00 0. -1.
         21   -1    0    0  502  503 -0.00000000000E+00 -0.00000000000E+00 -0.28227996472E+03  0.28227996472E+03  0.00000000000E+00 0.  1.
         -6    2    1    2    0  503  0.17847273311E+02 -0.79612429597E+02  0.39115453320E+02  0.19347226138E+03  0.17101120760E+03 0.  0.
        -24    2    3    3    0    0  0.66703118713E+02 -0.37030090110E+02  0.10102563347E+02  0.12231056487E+03  0.95064603681E+02 0.  0.
          6    2    1    2  501    0 -0.17847273311E+02  0.79612429597E+02 -0.16082873295E+03  0.24937438843E+03  0.17223542073E+03 0.  0.
         24    2    5    5    0    0 -0.18588393249E+02  0.10562329050E+03 -0.61363640209E+02  0.14645447385E+03  0.78623207212E+02 0.  0.
          5    1    5    5  501    0  0.74111993730E+00 -0.26010860901E+02 -0.99465092738E+02  0.10291991458E+03  0.47000000000E+01 0. -1.
        -11    1    6    6    0    0 -0.13675943509E+02  0.65315588338E+01 -0.42951626186E+02  0.45547062295E+02  0.00000000000E+00 0.  1.
         12    1    6    6    0    0 -0.49124497394E+01  0.99091731664E+02 -0.18412014022E+02  0.10090741156E+03  0.00000000000E+00 0. -1.
         -5    1    3    3    0  503 -0.48855845401E+02 -0.42582339487E+02  0.29012889972E+02  0.71161696513E+02  0.47000000000E+01 0.  1.
         11    1    4    4    0    0  0.49493070219E+02 -0.17831306926E+02  0.51449186764E+02  0.73583546565E+02  0.00000000000E+00 0. -1.
        -12    1    4    4    0    0  0.17210048494E+02 -0.19198783184E+02 -0.41346623417E+02  0.48727018305E+02  0.00000000000E+00 0.  1.
</event>
<event>
12    1  0.8417180E-002  0.1735078E+03  0.7818608E-02  0.1174246E+00
         21   -1    0    0  501  502  0.00000000000E+00  0.00000000000E+00  0.27348301165E+03  0.27348301165E+03  0.00000000000E+00 0.  1.
         21   -1    0    0  502  503 -0.00000000000E+00 -0.00000000000E+00 -0.16926494603E+03  0.16926494603E+03  0.00000000000E+00 0.  1.
         -6    2    1    2    0  503 -0.24502840430E+02 -0.10190802674E+01 -0.78816585140E+02  0.19054439889E+03  0.17173725903E+03 0.  0.
        -24    2    3    3    0    0  0.33089188989E+02  0.59409886673E+01  0.91189517075E+01  0.85092831554E+02  0.77636621045E+02 0.  0.
          6    2    1    2  501    0  0.24502840430E+02  0.10190802674E+01  0.18303465076E+03  0.25220355879E+03  0.17176589875E+03 0.  0.
         24    2    5    5    0    0  0.40525225877E+02  0.53612885454E+02  0.67297486541E+02  0.12398497059E+03  0.79540466542E+02 0.  0.
          5    1    5    5  501    0 -0.16022385447E+02 -0.52593805187E+02  0.11573716422E+03  0.12821858820E+03  0.47000000000E+01 0. -1.
        -11    1    6    6    0    0  0.29892630282E+01 -0.11997063376E+01  0.56605273531E+02  0.56696842771E+02  0.00000000000E+00 0.  1.
         12    1    6    6    0    0  0.37535962849E+02  0.54812591792E+02  0.10692213010E+02  0.67288127816E+02  0.00000000000E+00 0. -1.
         -5    1    3    3    0  503 -0.57592029420E+02 -0.69600689347E+01 -0.87935536847E+02  0.10545156733E+03  0.47000000000E+01 0.  1.
         11    1    4    4    0    0 -0.19436308816E+01  0.19868431333E+02  0.34349451276E+02  0.39729297346E+02  0.00000000000E+00 0. -1.
        -12    1    4    4    0    0  0.35032819871E+02 -0.13927442666E+02 -0.25230499569E+02  0.45363534207E+02  0.00000000000E+00 0.  1.
</event>
<event>
12    1  0.8417180E-002  0.2474972E+03  0.7818608E-02  0.1115211E+00
         21   -1    0    0  503  502  0.00000000000E+00  0.00000000000E+00  0.90838331933E+02  0.90838331933E+02  0.00000000000E+00 0. -1.
         21   -1    0    0  501  503 -0.00000000000E+00 -0.00000000000E+00 -0.66922663266E+03  0.66922663266E+03  0.00000000000E+00 0. -1.
          6    2    1    2  501    0 -0.15868512428E+03 -0.79157387510E+02 -0.29725023463E+03  0.38679783853E+03  0.17264995000E+03 0.  0.
         24    2    3    3    0    0 -0.13358810337E+03 -0.11127918460E+01 -0.14804269437E+03  0.21648694798E+03  0.84278939358E+02 0.  0.
         -6    2    1    2    0  502  0.15868512428E+03  0.79157387510E+02 -0.28113806610E+03  0.37326712607E+03  0.16983190079E+03 0.  0.
        -24    2    5    5    0    0  0.72591834909E+02  0.88449374987E+02 -0.93325819423E+02  0.16640019901E+03  0.76723211803E+02 0.  0.
          5    1    3    3  501    0 -0.25097020913E+02 -0.78044595664E+02 -0.14920754026E+03  0.17031089055E+03  0.47000000000E+01 0. -1.
        -11    1    4    4    0    0 -0.20090436009E+02  0.32799250908E+02 -0.47457299381E+02  0.61086919580E+02  0.00000000000E+00 0.  1.
         12    1    4    4    0    0 -0.11349766736E+03 -0.33912042754E+02 -0.10058539499E+03  0.15540002840E+03  0.00000000000E+00 0. -1.
         -5    1    5    5    0  502  0.86093289375E+02 -0.92919874776E+01 -0.18781224668E+03  0.20686692706E+03  0.47000000000E+01 0.  1.
         13    1    6    6    0    0  0.87967316526E+02  0.82431017378E+02 -0.87217274934E+02  0.14879507535E+03  0.00000000000E+00 0. -1.
        -14    1    6    6    0    0 -0.15375481616E+02  0.60183576090E+01 -0.61085444883E+01  0.17605123658E+02  0.00000000000E+00 0.  1.
</event>
<event>
12    1  0.8417180E-002  0.1853769E+03  0.7818608E-02  0.1162935E+00
         21   -1    0    0  501  502  0.00000000000E+00  0.00000000000E+00  0.24504153144E+03  0.24504153144E+03  0.00000000000E+00 0.  1.
         21   -1    0    0  502  503 -0.00000000000E+00 -0.00000000000E+00 -0.26774565022E+03  0.26774565022E+03  0.00000000000E+00 0.  1.
         -6    2    1    2    0  503 -0.30195932061E+02 -0.59330015354E+02 -0.18883167141E+03  0.26461666589E+03  0.17301079360E+03 0.  0.
        -24    2    3    3    0    0 -0.50507369521E+02  0.13107488648E+02 -0.53963951922E+02  0.11011379136E+03  0.80561394636E+02 0.  0.
          6    2    1    2  501    0  0.30195932061E+02  0.59330015354E+02  0.16612755263E+03  0.24817051576E+03  0.17192555399E+03 0.  0.
         24    2    5    5    0    0 -0.35869525582E+02  0.32436127197E+02  0.14653592885E+03  0.17405002173E+03  0.80510287582E+02 0.  0.
          5    1    5    5  501    0  0.66065457643E+02  0.26893888157E+02  0.19591623781E+02  0.74120494036E+02  0.47000000000E+01 0. -1.
        -13    1    6    6    0    0 -0.10217556825E+02 -0.21386299877E+02  0.85504647223E+02  0.88728896007E+02  0.00000000000E+00 0.  1.
         14    1    6    6    0    0 -0.25651968757E+02  0.53822427074E+02  0.61031281627E+02  0.85321125721E+02  0.00000000000E+00 0. -1.
         -5    1    3    3    0  503  0.20311437460E+02 -0.72437504002E+02 -0.13486771949E+03  0.15450287453E+03  0.47000000000E+01 0.  1.
         11    1    4    4    0    0 -0.59244478134E+02 -0.10289891550E+02 -0.12056128245E+02  0.61328136167E+02  0.00000000000E+00 0. -1.
        -12    1    4    4    0    0  0.87371086131E+01  0.23397380198E+02 -0.41907823677E+02  0.48785655191E+02  0.00000000000E+00 0.  1.
</event>
<event>
12    1  0.8417180E-002  0.1889901E+03  0.7818608E-02  0.1159381E+00
         21   -1    0    0  501  502  0.00000000000E+00  0.00000000000E+00  0.98562076086E+03  0.98562076086E+03  0.00000000000E+00 0. -1.
         21   -1    0    0  502  503 -0.00000000000E+00 -0.00000000000E+00 -0.49615916100E+02  0.49615916100E+02  0.00000000000E+00 0.  1.
         -6    2    1    2    0  503 -0.77144994127E+02 -0.12491077183E+02  0.19920132904E+03  0.27458772158E+03  0.17207518770E+03 0.  0.
        -24    2    3    3    0    0 -0.72162839373E+02 -0.89515356544E+01  0.22348993804E+03  0.24910484994E+03  0.82570384988E+02 0.  0.
          6    2    1    2  501    0  0.77144994127E+02  0.12491077183E+02  0.73680351572E+03  0.76064895538E+03  0.17204660827E+03 0.  0.
         24    2    5    5    0    0  0.74606703178E+02 -0.45633700459E+02  0.35226526486E+03  0.37170591447E+03  0.80161557181E+02 0.  0.
          5    1    5    5  501    0  0.25382909489E+01  0.58124777642E+02  0.38453825086E+03  0.38894304091E+03  0.47000000000E+01 0. -1.
        -11    1    6    6    0    0  0.33558350403E+02  0.21016950351E+02  0.13896341701E+03  0.14449465856E+03  0.00000000000E+00 0.  1.
         12    1    6    6    0    0  0.41048352775E+02 -0.66650650810E+02  0.21330184785E+03  0.22721125591E+03  0.00000000000E+00 0. -1.
         -5    1    3    3    0  503 -0.49821547538E+01 -0.35395415285E+01 -0.24288609001E+02  0.25482871648E+02  0.47000000000E+01 0.  1.
         13    1    4    4    0    0 -0.28551285884E+02 -0.23912668391E+02  0.18596648345E+03  0.18965896921E+03  0.00000000000E+00 0. -1.
        -14    1    4    4    0    0 -0.43611553489E+02  0.14961132737E+02  0.37523454596E+02  0.59445880726E+02  0.00000000000E+00 0.  1.
</event>
<event>
12    1  0.8417180E-002  0.2012422E+03  0.7818608E-02  0.1149239E+00
         21   -1    0    0  503  502  0.00000000000E+00  0.00000000000E+00  0.11206328279E+04  0.11206328279E+04  0.00000000000E+00 0. -1.
         21   -1    0    0  501  503 -0.00000000000E+00 -0.00000000000E+00 -0.67670325189E+02  0.67670325189E+02  0.00000000000E+00 0. -1.
          6    2    1    2  501    0  0.97492038929E+02  0.31443134352E+02  0.11974232387E+03  0.23417227933E+03  0.17321969845E+03 0.  0.
         24    2    3    3    0    0  0.88241425752E+02  0.44417836431E+01  0.15063220745E+03  0.19185299659E+03  0.79443260996E+02 0.  0.
         -6    2    1    2    0  502 -0.97492038929E+02 -0.31443134352E+02  0.93322017882E+03  0.95413087373E+03  0.17021296573E+03 0.  0.
        -24    2    5    5    0    0 -0.97942497106E+02 -0.70674112221E+02  0.54361556381E+03  0.56252760692E+03  0.79573013386E+02 0.  0.
          5    1    3    3  501    0  0.92506131773E+01  0.27001350709E+02 -0.30889883583E+02  0.42319282745E+02  0.47000000000E+01 0. -1.
        -11    1    4    4    0    0  0.65326840631E+02 -0.13556046504E+02  0.40762613634E+02  0.78185376983E+02  0.00000000000E+00 0.  1.
         12    1    4    4    0    0  0.22914585121E+02  0.17997830147E+02  0.10986959382E+03  0.11366761961E+03  0.00000000000E+00 0. -1.
         -5    1    5    5    0  502  0.45045817741E+00  0.39230977869E+02  0.38960461501E+03  0.39160326681E+03  0.47000000000E+01 0.  1.
         11    1    6    6    0    0 -0.64248219494E+02 -0.20810831590E+02  0.41585274271E+03  0.42130087590E+03  0.00000000000E+00 0. -1.
        -12    1    6    6    0    0 -0.33694277612E+02 -0.49863280631E+02  0.12776282110E+03  0.14122673102E+03  0.00000000000E+00 0.  1.
</event>
<event>
12    1  0.8417180E-002  0.1888803E+03  0.7818608E-02  0.1159589E+00
         21   -1    0    0  503  502  0.00000000000E+00  0.00000000000E+00  0.53975933753E+02  0.53975933753E+02  0.00000000000E+00 0. -1.
         21   -1    0    0  501  503 -0.00000000000E+00 -0.00000000000E+00 -0.71655378103E+03  0.71655378103E+03  0.00000000000E+00 0. -1.
          6    2    1    2  501    0  0.54811477811E+02 -0.54241791671E+02 -0.44068173204E+03  0.47945401734E+03  0.17242185396E+03 0.  0.
         24    2    3    3    0    0  0.22062114858E+02  0.35205337227E+02 -0.26263159429E+03  0.27747072299E+03  0.79300032267E+02 0.  0.
         -6    2    1    2    0  502 -0.54811477811E+02  0.54241791671E+02 -0.22189611524E+03  0.29107569744E+03  0.17187409817E+03 0.  0.
        -24    2    5    5    0    0 -0.34345396837E+02 -0.35570807549E+02 -0.12379149328E+03  0.15642143535E+03  0.81844016256E+02 0.  0.
          5    1    3    3  501    0  0.32749362954E+02 -0.89447128898E+02 -0.17805013775E+03  0.20198329435E+03  0.47000000000E+01 0. -1.
        -11    1    4    4    0    0 -0.29445176696E+02  0.14406545215E+02 -0.12022375116E+03  0.12461266917E+03  0.00000000000E+00 0.  1.
         12    1    4    4    0    0  0.51507291554E+02  0.20798792012E+02 -0.14240784313E+03  0.15285805382E+03  0.00000000000E+00 0. -1.
         -5    1    5    5    0  502 -0.20466080974E+02  0.89812599221E+02 -0.98104621959E+02  0.13465426209E+03  0.47000000000E+01 0.  1.
         13    1    6    6    0    0 -0.21797748994E+02  0.27342841803E+01  0.40828056076E+01  0.22344741503E+02  0.00000000000E+00 0. -1.
        -14    1    6    6    0    0 -0.12547647843E+02 -0.38305091730E+02 -0.12787429888E+03  0.13407669385E+03  0.00000000000E+00 0.  1.
</event>
<event>
12    1  0.8417180E-002  0.1731021E+03  0.7818608E-02  0.1175404E+00
         21   -1    0    0  501  502  0.00000000000E+00  0.00000000000E+00  0.95840507297E+02  0.95840507297E+02  0.00000000000E+00 0.  1.
         21   -1    0    0  502  503 -0.00000000000E+00 -0.00000000000E+00 -0.32999114994E+03  0.32999114994E+03  0.00000000000E+00 0.  1.
         -6    2    1    2    0  503  0.73251236653E+01  0.85479214216E+01 -0.17188235247E+03  0.24187056724E+03  0.16979724323E+03 0.  0.
        -24    2    3    3    0    0  0.81908462679E+01 -0.46242368070E+02 -0.15946447190E+03  0.18548777682E+03  0.82288218974E+02 0.  0.
          6    2    1    2  501    0 -0.73251236653E+01 -0.85479214216E+01 -0.62268290171E+02  0.18396109000E+03  0.17273568906E+03 0.  0.
         24    2    5    5    0    0  0.11209025028E+02 -0.23401247639E+02  0.27932690660E+02  0.90567070325E+02  0.82151679147E+02 0.  0.
          5    1    5    5  501    0 -0.18534148693E+02  0.14853326217E+02 -0.90200980832E+02  0.93394019672E+02  0.47000000000E+01 0. -1.
        -11    1    6    6    0    0  0.20707450913E+02  0.24400097200E+02 -0.40740189413E+01  0.32260826044E+02  0.00000000000E+00 0.  1.
         12    1    6    6    0    0 -0.94984258850E+01 -0.47801344839E+02  0.32006709601E+02  0.58306244282E+02  0.00000000000E+00 0. -1.
         -5    1    3    3    0  503 -0.86572260261E+00  0.54790289491E+02 -0.12417880569E+02  0.56382790424E+02  0.47000000000E+01 0.  1.
         11    1    4    4    0    0 -0.75001196244E+01  0.21937002005E+02 -0.26269684341E+02  0.35036840136E+02  0.00000000000E+00 0. -1.
        -12    1    4    4    0    0  0.15690965892E+02 -0.68179370075E+02 -0.13319478756E+03  0.15045093668E+03  0.00000000000E+00 0.  1.
</event>
<event>
12    1  0.8417180E-002  0.1944385E+03  0.7818608E-02  0.1154868E+00
         21   -1    0    0  503  502  0.00000000000E+00  0.00000000000E+00  0.47538993087E+02  0.47538993087E+02  0.00000000000E+00 0. -1.
         21   -1    0    0  501  503 -0.00000000000E+00 -0.00000000000E+00 -0.85816969980E+03  0.85816969980E+03  0.00000000000E+00 0. -1.
          6    2    1    2  501    0 -0.87585861822E+02  0.10417611445E+02 -0.53562990254E+03  0.56982954631E+03  0.17328159028E+03 0.  0.
         24    2    3    3    0    0 -0.11823034588E+03 -0.18354799357E+02 -0.47542520324E+03  0.49625215953E+03  0.76953028676E+02 0.  0.
         -6    2    1    2    0  502  0.87585861822E+02 -0.10417611445E+02 -0.27500080417E+03  0.33587914658E+03  0.17149212516E+03 0.  0.
        -24    2    5    5    0    0  0.11037977997E+03 -0.46089174333E+02 -0.17113655839E+03  0.22362098583E+03  0.80066946162E+02 0.  0.
          5    1    3    3  501    0  0.30644484058E+02  0.28772410802E+02 -0.60204699309E+02  0.73577386780E+02  0.47000000000E+01 0. -1.
        -11    1    4    4    0    0 -0.54019758329E+02 -0.42585150536E+02 -0.30213774222E+03  0.30986907657E+03  0.00000000000E+00 0.  1.
         12    1    4    4    0    0 -0.64210587551E+02  0.24230351179E+02 -0.17328746101E+03  0.18638308297E+03  0.00000000000E+00 0. -1.
         -5    1    5    5    0  502 -0.22793918149E+02  0.35671562888E+02 -0.10386424578E+03  0.11225816075E+03  0.47000000000E+01 0.  1.
         13    1    6    6    0    0  0.52720738678E+02 -0.50527906724E+02 -0.14010016793E+03  0.15798924868E+03  0.00000000000E+00 0. -1.
        -14    1    6    6    0    0  0.57659041293E+02  0.44387323909E+01 -0.31036390459E+02  0.65631737146E+02  0.00000000000E+00 0.  1.
</event>
<event>
12    1  0.8417180E-002  0.1795111E+03  0.7818608E-02  0.1170193E+00
         21   -1    0    0  503  502  0.00000000000E+00  0.00000000000E+00  0.27542637113E+02  0.27542637113E+02  0.00000000000E+00 0.  1.
         21   -1    0    0  501  503 -0.00000000000E+00 -0.00000000000E+00 -0.15753487821E+04  0.15753487821E+04  0.00000000000E+00 0.  1.
          6    2    1    2  501    0  0.46453745954E+02 -0.30295559912E+02 -0.35530591199E+03  0.39807856088E+03  0.17072925371E+03 0.  0.
         24    2    3    3    0    0  0.31750561509E+02 -0.44442235572E+02 -0.89915883359E+02  0.13186385549E+03  0.79498426695E+02 0.  0.
         -6    2    1    2    0  502 -0.46453745954E+02  0.30295559912E+02 -0.11925002329E+04  0.12048128583E+04  0.16260826071E+03 0.  0.
        -24    2    5    5    0    0  0.16529284612E+02 -0.25400604991E+02 -0.48786294664E+03  0.49516173261E+03  0.79097906107E+02 0.  0.
          5    1    3    3  501    0  0.14703184445E+02  0.14146675659E+02 -0.26539002863E+03  0.26621470538E+03  0.47000000000E+01 0. -1.
        -13    1    4    4    0    0 -0.19724085623E+02 -0.33895920343E+02 -0.18929162441E+02  0.43546367934E+02  0.00000000000E+00 0.  1.
         14    1    4    4    0    0  0.51474647132E+02 -0.10546315229E+02 -0.70986720918E+02  0.88317487560E+02  0.00000000000E+00 0. -1.
         -5    1    5    5    0  502 -0.62983030566E+02  0.55696164903E+02 -0.70463728631E+03  0.70965112568E+03  0.47000000000E+01 0.  1.
         11    1    6    6    0    0  0.36307008304E+02 -0.25046268960E+02 -0.45248100762E+03  0.45462575454E+03  0.00000000000E+00 0. -1.
        -12    1    6    6    0    0 -0.19777723693E+02 -0.35433603053E+00 -0.35381939023E+02  0.40535978063E+02  0.00000000000E+00 0.  1.
</event>
<event>
12    1  0.8417180E-002  0.2271248E+03  0.7818608E-02  0.1129429E+00
         21   -1    0    0  503  502  0.00000000000E+00  0.00000000000E+00  0.86085044945E+03  0.86085044945E+03  0.00000000000E+00 0.  1.
         21   -1    0    0  501  503 -0.00000000000E+00 -0.00000000000E+00 -0.72032465836E+02  0.72032465836E+02  0.00000000000E+00 0. -1.
          6    2    1    2  501    0 -0.69565096070E+02 -0.13211750150E+03  0.59701930757E+03  0.63876267072E+03  0.17114718548E+03 0.  0.
         24    2    3    3    0    0 -0.11237862383E+03 -0.94280265576E+02  0.48304872062E+03  0.51118508933E+03  0.80351761007E+02 0.  0.
         -6    2    1    2    0  502  0.69565096070E+02  0.13211750150E+03  0.19179867604E+03  0.29412024456E+03  0.16560691210E+03 0.  0.
        -24    2    5    5    0    0  0.40750768832E+02  0.90527135847E+01  0.46577630967E+02  0.10154182051E+03  0.79991804719E+02 0.  0.
          5    1    3    3  501    0  0.42813527760E+02 -0.37837235923E+02  0.11397058695E+03  0.12757758139E+03  0.47000000000E+01 0. -1.
        -13    1    4    4    0    0 -0.74040935446E+02 -0.10223224551E+03  0.39842326884E+03  0.41794089690E+03  0.00000000000E+00 0.  1.
         14    1    4    4    0    0 -0.38337688384E+02  0.79519799299E+01  0.84625451773E+02  0.93244192437E+02  0.00000000000E+00 0. -1.
         -5    1    5    5    0  502  0.28814327238E+02  0.12306478791E+03  0.14522104507E+03  0.19257842405E+03  0.47000000000E+01 0.  1.
         11    1    6    6    0    0  0.58925093612E+02 -0.12001108607E+02  0.42011484655E+02  0.73356377418E+02  0.00000000000E+00 0. -1.
        -12    1    6    6    0    0 -0.18174324780E+02  0.21053822191E+02  0.45661463121E+01  0.28185443091E+02  0.00000000000E+00 0.  1.
</event>
<event>
12    1  0.8417180E-002  0.2013329E+03  0.7818608E-02  0.1148690E+00
         21   -1    0    0  503  502  0.00000000000E+00  0.00000000000E+00  0.21966849123E+03  0.21966849123E+03  0.00000000000E+00 0.  1.
         21   -1    0    0  501  503 -0.00000000000E+00 -0.00000000000E+00 -0.20554700686E+03  0.20554700686E+03  0.00000000000E+00 0.  1.
          6    2    1    2  501    0  0.75452402459E+02 -0.73015607342E+02 -0.61427821881E+02  0.21017450995E+03  0.17139312524E+03 0.  0.
         24    2    3    3    0    0  0.19502189024E+02 -0.70095113753E+02 -0.96395195228E+02  0.14396451928E+03  0.78358718719E+02 0.  0.
         -6    2    1    2    0  502 -0.75452402459E+02  0.73015607342E+02  0.75549306259E+02  0.21504098814E+03  0.17178645159E+03 0.  0.
        -24    2    5    5    0    0 -0.26793055076E+02 -0.52372101234E+01  0.86941681659E+02  0.12207265081E+03  0.81225487962E+02 0.  0.
          5    1    3    3  501    0  0.55950213435E+02 -0.29204935887E+01  0.34967373347E+02  0.66209990674E+02  0.47000000000E+01 0. -1.
        -13    1    4    4    0    0  0.31571972969E+02 -0.85405486181E+01 -0.49587668747E+01  0.33080505086E+02  0.00000000000E+00 0.  1.
         14    1    4    4    0    0 -0.12069783945E+02 -0.61554565135E+02 -0.91436428353E+02  0.11088401419E+03  0.00000000000E+00 0. -1.
         -5    1    5    5    0  502 -0.48659347383E+02  0.78252817465E+02 -0.11392375400E+02  0.92968337331E+02  0.47000000000E+01 0.  1.
         11    1    6    6    0    0 -0.24488297522E+01 -0.36312239119E+02  0.13733411387E+02  0.38899640941E+02  0.00000000000E+00 0. -1.
        -12    1    6    6    0    0 -0.24344225324E+02  0.31075028996E+02  0.73208270271E+02  0.83173009864E+02  0.00000000000E+00 0.  1.
</event>
<event>
12    1  0.8417180E-002  0.1815943E+03  0.7818608E-02  0.1166576E+00
         21   -1    0    0  501  502  0.00000000000E+00  0.00000000000E+00  0.80049427080E+03  0.80049427080E+03  0.00000000000E+00 0. -1.
         21   -1    0    0  502  503 -0.00000000000E+00 -0.00000000000E+00 -0.49635646453E+02  0.49635646453E+02  0.00000000000E+00 0. -1.
         -6    2    1    2    0  503 -0.47811584663E+02  0.28440269157E+02  0.19607692708E+03  0.26638407507E+03  0.17152118697E+03 0.  0.
        -24    2    3    3    0    0  0.24366336440E+02 -0.29067918500E+01  0.43165051207E+02  0.94347967490E+02  0.80225616441E+02 0.  0.
          6    2    1    2  501    0  0.47811584663E+02 -0.28440269157E+02  0.55478169726E+03  0.58374584218E+03  0.17286318320E+03 0.  0.
         24    2    5    5    0    0 -0.11376229728E+02 -0.66462257169E+02  0.27379676097E+03  0.29405032380E+03  0.83392304071E+02 0.  0.
          5    1    5    5  501    0  0.59187814391E+02  0.38021988012E+02  0.28098493629E+03  0.28969551838E+03  0.47000000000E+01 0. -1.
        -11    1    6    6    0    0  0.17151362854E+01  0.19348546662E+02  0.36005756650E+02  0.40911153276E+02  0.00000000000E+00 0.  1.
         12    1    6    6    0    0 -0.13091366014E+02 -0.85810803831E+02  0.23779100432E+03  0.25313917052E+03  0.00000000000E+00 0. -1.
         -5    1    3    3    0  503 -0.72177921104E+02  0.31347061007E+02  0.15291187587E+03  0.17203610758E+03  0.47000000000E+01 0.  1.
         11    1    4    4    0    0 -0.14504296063E+02 -0.22265100853E+02 -0.75088984685E+01  0.27613273556E+02  0.00000000000E+00 0. -1.
        -12    1    4    4    0    0  0.38870632504E+02  0.19358309003E+02  0.50673949675E+02  0.66734693933E+02  0.00000000000E+00 0.  1.
</event>
<event>
12    1  0.8417180E-002  0.1726113E+03  0.7818608E-02  0.1175302E+00
         21   -1    0    0  503  502  0.00000000000E+00  0.00000000000E+00  0.43251294345E+03  0.43251294345E+03  0.00000000000E+00 0. -1.
         21   -1    0    0  501  503 -0.00000000000E+00 -0.00000000000E+00 -0.75391740520E+02  0.75391740520E+02  0.00000000000E+00 0. -1.
          6    2    1    2  501    0  0.18394372404E+02  0.11356219859E+00  0.10235702204E+03  0.20017192572E+03  0.17103646995E+03 0.  0.
         24    2    3    3    0    0 -0.44686871162E+02  0.33918234786E+02  0.82717513790E+02  0.12580930431E+03  0.76409625424E+02 0.  0.
         -6    2    1    2    0  502 -0.18394372404E+02 -0.11356219859E+00  0.25476418089E+03  0.30773275826E+03  0.17162836830E+03 0.  0.
        -24    2    5    5    0    0 -0.66420669679E+02 -0.34406945049E+02  0.19369153806E+03  0.22267678234E+03  0.80454920587E+02 0.  0.
          5    1    3    3  501    0  0.63081243567E+02 -0.33804672587E+02  0.19639508252E+02  0.74362621410E+02  0.47000000000E+01 0. -1.
        -11    1    4    4    0    0 -0.35817884016E+01  0.48700426587E+02  0.29860704913E+02  0.57238295361E+02  0.00000000000E+00 0.  1.
         12    1    4    4    0    0 -0.41105082761E+02 -0.14782191802E+02  0.52856808876E+02  0.68571008946E+02  0.00000000000E+00 0. -1.
         -5    1    5    5    0  502  0.48026297275E+02  0.34293382850E+02  0.61072642828E+02  0.85055975917E+02  0.47000000000E+01 0.  1.
         13    1    6    6    0    0  0.17837169992E+02  0.14530978063E+01  0.39072433177E+02  0.42975936999E+02  0.00000000000E+00 0. -1.
        -14    1    6    6    0    0 -0.84257839671E+02 -0.35860042855E+02  0.15461910489E+03  0.17970084534E+03  0.00000000000E+00 0.  1.
</event>
<event>
12    1  0.8417180E-002  0.1783372E+03  0.7818608E-02  0.1169819E+00
         21   -1    0    0  501  502  0.00000000000E+00  0.00000000000E+00  0.22886544880E+04  0.22886544880E+04  0.00000000000E+00 0.  1.
         21   -1    0    0  502  503 -0.00000000000E+00 -0.00000000000E+00 -0.33927762670E+02  0.33927762670E+02  0.00000000000E+00 0.  1.
         -6    2    1    2    0  503 -0.66056004110E+01 -0.48256582168E+02  0.23434128932E+03  0.29448258742E+03  0.17155705387E+03 0.  0.
        -24    2    3    3    0    0 -0.29943681618E+02 -0.33774356708E+01  0.22743712426E+03  0.24321309044E+03  0.80727509133E+02 0.  0.
          6    2    1    2  501    0  0.66056004110E+01  0.48256582168E+02  0.20203854360E+04  0.20280996632E+04  0.16987819863E+03 0.  0.
         24    2    5    5    0    0 -0.23627146903E+02  0.84351957617E+02  0.17099033830E+04  0.17140326475E+04  0.80404245536E+02 0.  0.
          5    1    5    5  501    0  0.30232747314E+02 -0.36095375449E+02  0.31048205302E+03  0.31406701575E+03  0.47000000000E+01 0. -1.
        -11    1    6    6    0    0  0.34448220896E+01  0.56088264020E+02  0.44636587765E+03  0.44988916067E+03  0.00000000000E+00 0.  1.
         12    1    6    6    0    0 -0.27071968992E+02  0.28263693597E+02  0.12635375053E+04  0.12641434868E+04  0.00000000000E+00 0. -1.
         -5    1    3    3    0  503  0.23338081207E+02 -0.44879146497E+02  0.69041650616E+01  0.51269496974E+02  0.47000000000E+01 0.  1.
         11    1    4    4    0    0  0.10777907415E+02 -0.19104533902E+01  0.18141175270E+03  0.18174167694E+03  0.00000000000E+00 0. -1.
        -12    1    4    4    0    0 -0.40721589033E+02 -0.14669822806E+01  0.46025371558E+02  0.61471413499E+02  0.00000000000E+00 0.  1.
</event>
<event>
12    1  0.8417180E-002  0.5203777E+03  0.7818608E-02  0.1008622E+00
         21   -1    0    0  503  502  0.00000000000E+00  0.00000000000E+00  0.41666635890E+03  0.41666635890E+03  0.00000000000E+00 0.  1.
         21   -1    0    0  501  503 -0.00000000000E+00 -0.00000000000E+00 -0.69275194220E+03  0.69275194220E+03  0.00000000000E+00 0.  1.
          6    2    1    2  501    0  0.48066839903E+03 -0.96991567488E+02  0.80900697432E+00  0.52037829192E+03  0.17419368019E+03 0.  0.
         24    2    3    3    0    0  0.27029867225E+03 -0.69560597454E+02 -0.66988955231E+02  0.29760815536E+03  0.78632341165E+02 0.  0.
         -6    2    1    2    0  502 -0.48066839903E+03  0.96991567488E+02 -0.27689459028E+03  0.58904000918E+03  0.17276586556E+03 0.  0.
        -24    2    5    5    0    0 -0.33345245873E+03 -0.84654018820E-01 -0.16767019582E+03  0.38155896377E+03  0.79267893049E+02 0.  0.
          5    1    3    3  501    0  0.21036972678E+03 -0.27430970034E+02  0.67797962205E+02  0.22277013656E+03  0.47000000000E+01 0. -1.
        -13    1    4    4    0    0  0.26330489346E+03 -0.50636578602E+02 -0.53712648614E+02  0.27345672169E+03  0.00000000000E+00 0.  1.
         14    1    4    4    0    0  0.69937787870E+01 -0.18924018852E+02 -0.13276306617E+02  0.24151433677E+02  0.00000000000E+00 0. -1.
         -5    1    5    5    0  502 -0.14721594030E+03  0.97076221507E+02 -0.10922439446E+03  0.20748104541E+03  0.47000000000E+01 0.  1.
         13    1    6    6    0    0 -0.18162097382E+03  0.37252151482E+02 -0.76497168956E+02  0.20056350061E+03  0.00000000000E+00 0. -1.
        -14    1    6    6    0    0 -0.15183148491E+03 -0.37336805501E+02 -0.91173026865E+02  0.18099546316E+03  0.00000000000E+00 0.  1.
</event>
<event>
12    1  0.8417180E-002  0.2197796E+03  0.7818608E-02  0.1134075E+00
         21   -1    0    0  501  502  0.00000000000E+00  0.00000000000E+00  0.28732855901E+03  0.28732855901E+03  0.00000000000E+00 0.  1.
         21   -1    0    0  502  503 -0.00000000000E+00 -0.00000000000E+00 -0.19939166844E+03  0.19939166844E+03  0.00000000000E+00 0.  1.
         -6    2    1    2    0  503  0.13528363313E+03  0.22052598380E+02  0.14052098560E+03  0.26073755072E+03  0.17160986123E+03 0.  0.
        -24    2    3    3    0    0  0.71988807445E+02  0.34573072861E+02  0.15834569425E+03  0.19363458895E+03  0.77738725139E+02 0.  0.
          6    2    1    2  501    0 -0.13528363313E+03 -0.22052598380E+02 -0.52584095034E+02  0.22598267674E+03  0.17179960608E+03 0.  0.
         24    2    5    5    0    0 -0.12735461690E+03  0.40794645094E+02 -0.33157619841E+02  0.15955886136E+03  0.80474846821E+02 0.  0.
          5    1    5    5  501    0 -0.79290162242E+01 -0.62847243474E+02 -0.19426475193E+02  0.66423815375E+02  0.47000000000E+01 0. -1.
        -11    1    6    6    0    0 -0.10704508721E+02 -0.78973322311E+01  0.18684548502E+02  0.22936144315E+02  0.00000000000E+00 0.  1.
         12    1    6    6    0    0 -0.11665010818E+03  0.48691977325E+02 -0.51842168343E+02  0.13662271705E+03  0.00000000000E+00 0. -1.
         -5    1    3    3    0  503  0.63294825683E+02 -0.12520474481E+02 -0.17824708646E+02  0.67102961766E+02  0.47000000000E+01 0.  1.
         11    1    4    4    0    0  0.13458785425E+02  0.49189335526E+02  0.67988896861E+02  0.84989527184E+02  0.00000000000E+00 0. -1.
        -12    1    4    4    0    0  0.58530022020E+02 -0.14616262665E+02  0.90356797387E+02  0.10864506177E+03  0.00000000000E+00 0.  1.
</event>
<event>
12    1  0.8417180E-002  0.3050420E+03  0.7818608E-02  0.1082749E+00
         21   -1    0    0  503  502  0.00000000000E+00  0.00000000000E+00  0.25074500868E+03  0.25074500868E+03  0.00000000000E+00 0. -1.
         21   -1    0    0  501  503 -0.00000000000E+00 -0.00000000000E+00 -0.38132428692E+03  0.38132428692E+03  0.00000000000E+00 0.  1.
          6    2    1    2  501    0  0.20786726722E+03  0.14252207855E+03 -0.13489187553E+02  0.30532668223E+03  0.17181699871E+03 0.  0.
         24    2    3    3    0    0  0.42022475029E+02  0.51720697934E+02  0.34840683105E+02  0.11011589304E+03  0.80440771373E+02 0.  0.
         -6    2    1    2    0  502 -0.20786726722E+03 -0.14252207855E+03 -0.11709009068E+03  0.32674261337E+03  0.17184092179E+03 0.  0.
        -24    2    5    5    0    0 -0.10292011313E+03 -0.46629836232E+02  0.60328711482E+01  0.13861876847E+03  0.80074191382E+02 0.  0.
          5    1    3    3  501    0  0.16584479219E+03  0.90801380615E+02 -0.48329870657E+02  0.19521078919E+03  0.47000000000E+01 0. -1.
        -11    1    4    4    0    0  0.38879726874E+02 -0.63761340662E+01 -0.48336785147E+01  0.39694492003E+02  0.00000000000E+00 0.  1.
         12    1    4    4    0    0  0.31427481555E+01  0.58096832001E+02  0.39674361620E+02  0.70421401040E+02  0.00000000000E+00 0. -1.
         -5    1    5    5    0  502 -0.10494715409E+03 -0.95892242317E+02 -0.12312296183E+03  0.18812384490E+03  0.47000000000E+01 0.  1.
         13    1    6    6    0    0 -0.93991372850E+01  0.15106951872E+02 -0.16556482762E+02  0.24303927625E+02  0.00000000000E+00 0. -1.
        -14    1    6    6    0    0 -0.93520975842E+02 -0.61736788105E+02  0.22589353910E+02  0.11431484085E+03  0.00000000000E+00 0.  1.
</event>
<event>
12    1  0.8417180E-002  0.2018758E+03  0.7818608E-02  0.1148665E+00
         21   -1    0    0  503  502  0.00000000000E+00  0.00000000000E+00  0.70598351884E+02  0.70598351884E+02  0.00000000000E+00 0.  1.
         21   -1    0    0  501  503 -0.00000000000E+00 -0.00000000000E+00 -0.16209160460E+04  0.16209160460E+04  0.00000000000E+00 0. -1.
          6    2    1    2  501    0 -0.26476000166E+02  0.10375310364E+03 -0.14543860974E+04  0.14680044263E+04  0.16832228043E+03 0.  0.
         24    2    3    3    0    0 -0.42867945651E+02  0.38614410282E+02 -0.42069740168E+03  0.43212501488E+03  0.80106124972E+02 0.  0.
         -6    2    1    2    0  502  0.26476000166E+02 -0.10375310364E+03 -0.95931596690E+02  0.22350997160E+03  0.17113781307E+03 0.  0.
        -24    2    5    5    0    0 -0.46181219424E+02 -0.79384834990E+02 -0.38539425346E+02  0.12765155827E+03  0.79843446624E+02 0.  0.
          5    1    3    3  501    0  0.16391945485E+02  0.65138693359E+02 -0.10336886958E+04  0.10358794114E+04  0.47000000000E+01 0. -1.
        -13    1    4    4    0    0 -0.30815351282E+02  0.63683108018E+02 -0.31268128036E+03  0.32058494539E+03  0.00000000000E+00 0.  1.
         14    1    4    4    0    0 -0.12052594369E+02 -0.25068697735E+02 -0.10801612132E+03  0.11154006949E+03  0.00000000000E+00 0. -1.
         -5    1    5    5    0  502  0.72657219590E+02 -0.24368268651E+02 -0.57392171344E+02  0.95858413335E+02  0.47000000000E+01 0.  1.
         13    1    6    6    0    0  0.47614972983E+01 -0.47785296985E+02 -0.46899192371E+02  0.67124069524E+02  0.00000000000E+00 0. -1.
        -14    1    6    6    0    0 -0.50942716722E+02 -0.31599538005E+02  0.83597670246E+01  0.60527488745E+02  0.00000000000E+00 0.  1.
</event>
<event>
12    1  0.8417180E-002  0.1754754E+03  0.7818608E-02  0.1173155E+00
         21   -1    0    0  503  502  0.00000000000E+00  0.00000000000E+00  0.17955884487E+03  0.17955884487E+03  0.00000000000E+00 0.  1.
         21   -1    0    0  501  503 -0.00000000000E+00 -0.00000000000E+00 -0.19023606846E+03  0.19023606846E+03  0.00000000000E+00 0.  1.
          6    2    1    2  501    0  0.69465876437E+01  0.11289005334E+02 -0.68466363075E+02  0.18504864404E+03  0.17140496220E+03 0.  0.
         24    2    3    3    0    0 -0.13867920801E+02  0.44134113851E+01 -0.11036966028E+03  0.13752503022E+03  0.80745740433E+02 0.  0.
         -6    2    1    2    0  502 -0.69465876437E+01 -0.11289005334E+02  0.57789139484E+02  0.18474626929E+03  0.17497400565E+03 0.  0.
        -24    2    5    5    0    0  0.19910077477E+01  0.43669386658E+02 -0.16105941976E+02  0.92102443129E+02  0.79451112141E+02 0.  0.
          5    1    3    3  501    0  0.20814508445E+02  0.68755939489E+01  0.41903297206E+02  0.47523613822E+02  0.47000000000E+01 0. -1.
        -13    1    4    4    0    0  0.60488094449E+01 -0.27786703612E+02 -0.90301712941E+02  0.94673588468E+02  0.00000000000E+00 0.  1.
         14    1    4    4    0    0 -0.19916730246E+02  0.32200114997E+02 -0.20067947340E+02  0.42851441748E+02  0.00000000000E+00 0. -1.
         -5    1    5    5    0  502 -0.89375953914E+01 -0.54958391992E+02  0.73895081461E+02  0.92643826161E+02  0.47000000000E+01 0.  1.
         11    1    6    6    0    0 -0.34654656607E+02  0.15918518709E+02  0.97494312864E+01  0.39362366200E+02  0.00000000000E+00 0. -1.
        -12    1    6    6    0    0  0.36645664355E+02  0.27750867949E+02 -0.25855373263E+02  0.52740076929E+02  0.00000000000E+00 0.  1.
</event>
<event>
12    1  0.8417180E-002  0.1922452E+03  0.7818608E-02  0.1156694E+00
         21   -1    0    0  501  502  0.00000000000E+00  0.00000000000E+00  0.84835383848E+03  0.84835383848E+03  0.00000000000E+00 0.  1.
         21   -1    0    0  502  503 -0.00000000000E+00 -0.00000000000E+00 -0.43412899486E+02  0.43412899486E+02  0.00000000000E+00 0. -1.
         -6    2    1    2    0  503  0.48877244001E+02 -0.67768301445E+02  0.42439271288E+03  0.46590493165E+03  0.17313781484E+03 0.  0.
        -24    2    3    3    0    0  0.17681569946E+02 -0.26596503817E+02  0.77939031698E+02  0.11559003016E+03  0.79161546723E+02 0.  0.
          6    2    1    2  501    0 -0.48877244001E+02  0.67768301445E+02  0.38054822612E+03  0.42586180632E+03  0.17192963101E+03 0.  0.
         24    2    5    5    0    0 -0.32318690073E+02 -0.12782758163E+02  0.29521882925E+03  0.30726224949E+03  0.77769120986E+02 0.  0.
          5    1    5    5  501    0 -0.16558553928E+02  0.80551059608E+02  0.85329396862E+02  0.11859955683E+03  0.47000000000E+01 0. -1.
        -13    1    6    6    0    0 -0.27402603940E+02 -0.44416177925E+02  0.20474041388E+03  0.21128733194E+03  0.00000000000E+00 0.  1.
         14    1    6    6    0    0 -0.49160861325E+01  0.31633419762E+02  0.90478415375E+02  0.95974917543E+02  0.00000000000E+00 0. -1.
         -5    1    3    3    0  503  0.31195674056E+02 -0.41171797627E+02  0.34645368118E+03  0.35031490149E+03  0.47000000000E+01 0.  1.
         11    1    4    4    0    0 -0.92640025867E+01 -0.33729117035E+02  0.23862233020E+01  0.35059508575E+02  0.00000000000E+00 0. -1.
        -12    1    4    4    0    0  0.26945572532E+02  0.71326132176E+01  0.75552808396E+02  0.80530521586E+02  0.00000000000E+00 0.  1.
</event>
<event>
12    1  0.8417180E-002  0.2271584E+03  0.7818608E-02  0.1128856E+00
         21   -1    0    0  501  502  0.00000000000E+00  0.00000000000E+00  0.17368005896E+03  0.17368005896E+03  0.00000000000E+00 0. -1.
         21   -1    0    0  502  503 -0.00000000000E+00 -0.00000000000E+00 -0.71125551967E+03  0.71125551967E+03  0.00000000000E+00 0. -1.
         -6    2    1    2    0  503  0.14095216280E+03  0.38915772716E+02 -0.60674158204E+03  0.64748057877E+03  0.17237692112E+03 0.  0.
        -24    2    3    3    0    0  0.38606659626E+02 -0.42224004117E+02 -0.24478160868E+03  0.26264895621E+03  0.76112400809E+02 0.  0.
          6    2    1    2  501    0 -0.14095216280E+03 -0.38915772716E+02  0.69166121342E+02  0.23745499986E+03  0.17383605798E+03 0.  0.
         24    2    5    5    0    0 -0.50148876127E+02  0.43637919438E+02  0.29918566587E+02  0.10852552490E+03  0.80395840313E+02 0.  0.
          5    1    5    5  501    0 -0.90803286676E+02 -0.82553692153E+02  0.39247554754E+02  0.12892947496E+03  0.47000000000E+01 0. -1.
        -11    1    6    6    0    0 -0.36446257975E+02  0.32866259253E+02  0.57688108216E+02  0.75739280081E+02  0.00000000000E+00 0.  1.
         12    1    6    6    0    0 -0.13702618151E+02  0.10771660185E+02 -0.27769541629E+02  0.32786244823E+02  0.00000000000E+00 0. -1.
         -5    1    3    3    0  503  0.10234550318E+03  0.81139776833E+02 -0.36195997337E+03  0.38483162256E+03  0.47000000000E+01 0.  1.
         13    1    4    4    0    0  0.60582314296E+02 -0.20841819686E+02 -0.17755908208E+03  0.18876394222E+03  0.00000000000E+00 0. -1.
        -14    1    4    4    0    0 -0.21975654670E+02 -0.21382184431E+02 -0.67222526595E+02  0.73885013981E+02  0.00000000000E+00 0.  1.
</event>
<event>
12    1  0.8417180E-002  0.2128017E+03  0.7818608E-02  0.1139592E+00
         21   -1    0    0  501  502  0.00000000000E+00  0.00000000000E+00  0.52418260216E+03  0.52418260216E+03  0.00000000000E+00 0.  1.
         21   -1    0    0  502  503 -0.00000000000E+00 -0.00000000000E+00 -0.19292862867E+03  0.19292862867E+03  0.00000000000E+00 0.  1.
         -6    2    1    2    0  503 -0.12118551032E+03  0.25072302384E+02 -0.10160483058E+03  0.23477183476E+03  0.17169660609E+03 0.  0.
        -24    2    3    3    0    0 -0.16751468602E+02  0.41217424693E+02 -0.84535829626E+01  0.93823691898E+02  0.82170154545E+02 0.  0.
          6    2    1    2  501    0  0.12118551032E+03 -0.25072302384E+02  0.43285880408E+03  0.48233939607E+03  0.17311845792E+03 0.  0.
         24    2    5    5    0    0 -0.60125527067E+01 -0.29507315879E+02  0.15300424982E+03  0.17486634339E+03  0.79127145207E+02 0.  0.
          5    1    5    5  501    0  0.12719806302E+03  0.44350134953E+01  0.27985455426E+03  0.30747305268E+03  0.47000000000E+01 0. -1.
        -13    1    6    6    0    0  0.30243455418E+02 -0.13328706730E+02  0.11591737642E+03  0.12053696186E+03  0.00000000000E+00 0.  1.
         14    1    6    6    0    0 -0.36256008125E+02 -0.16178609149E+02  0.37086873400E+02  0.54329381533E+02  0.00000000000E+00 0. -1.
         -5    1    3    3    0  503 -0.10443404172E+03 -0.16145122308E+02 -0.93151247621E+02  0.14094814286E+03  0.47000000000E+01 0.  1.
         13    1    4    4    0    0  0.16281403827E+02 -0.18835725378E+02 -0.27318604487E+01  0.25046591038E+02  0.00000000000E+00 0. -1.
        -14    1    4    4    0    0 -0.33032872428E+02  0.60053150071E+02 -0.57217225139E+01  0.68777100861E+02  0.00000000000E+00 0.  1.
</event>
<event>
12    1  0.8417180E-002  0.2148481E+03  0.7818608E-02  0.1137905E+00
         21   -1    0    0  501  502  0.00000000000E+00  0.00000000000E+00  0.16639101319E+03  0.16639101319E+03  0.00000000000E+00 0.  1.
         21   -1    0    0  502  503 -0.00000000000E+00 -0.00000000000E+00 -0.37862531333E+03  0.37862531333E+03  0.00000000000E+00 0.  1.
         -6    2    1    2    0  503 -0.10183245593E+03 -0.76929108795E+02 -0.24746179583E+03  0.32729933459E+03  0.17204527652E+03 0.  0.
        -24    2    3    3    0    0 -0.27955546408E+02 -0.40695448878E+02 -0.22088573790E+03  0.24070226348E+03  0.81911161031E+02 0.  0.
          6    2    1    2  501    0  0.10183245593E+03  0.76929108795E+02  0.35227495695E+02  0.21771699193E+03  0.17283453145E+03 0.  0.
         24    2    5    5    0    0 -0.15195738092E+02  0.21978629101E+02  0.11466443366E+02  0.86180567229E+02  0.81127308911E+02 0.  0.
          5    1    5    5  501    0  0.11702819402E+03  0.54950479693E+02  0.23761052330E+02  0.13153642470E+03  0.47000000000E+01 0. -1.
        -11    1    6    6    0    0  0.21510581191E+02  0.26464472388E+02  0.29450460900E+02  0.45059993888E+02  0.00000000000E+00 0.  1.
         12    1    6    6    0    0 -0.36706319282E+02 -0.44858432862E+01 -0.17984017535E+02  0.41120573342E+02  0.00000000000E+00 0. -1.
         -5    1    3    3    0  503 -0.73876909520E+02 -0.36233659917E+02 -0.26576057929E+02  0.86597071118E+02  0.47000000000E+01 0.  1.
         13    1    4    4    0    0 -0.31622219430E+02  0.18168051763E+02 -0.91930691348E+02  0.98900429111E+02  0.00000000000E+00 0. -1.
        -14    1    4    4    0    0  0.36666730218E+01 -0.58863500641E+02 -0.12895504655E+03  0.14180183437E+03  0.00000000000E+00 0.  1.
</event>
<event>
12    1  0.8417180E-002  0.2207475E+03  0.7818608E-02  0.1133422E+00
         21   -1    0    0  503  502  0.00000000000E+00  0.00000000000E+00  0.18473724903E+03  0.18473724903E+03  0.00000000000E+00 0.  1.
         21   -1    0    0  501  503 -0.00000000000E+00 -0.00000000000E+00 -0.35683304852E+03  0.35683304852E+03  0.00000000000E+00 0.  1.
          6    2    1    2  501    0  0.10366898529E+03 -0.90485139077E+02 -0.22485738202E+03  0.31510363840E+03  0.17261124465E+03 0.  0.
         24    2    3    3    0    0  0.92641038265E+02 -0.11696476620E+03 -0.11755030753E+03  0.20392952045E+03  0.74202803223E+02 0.  0.
         -6    2    1    2    0  502 -0.10366898529E+03  0.90485139077E+02  0.52761582526E+02  0.22646665915E+03  0.17195506451E+03 0.  0.
        -24    2    5    5    0    0 -0.95598169275E+02 -0.44610715885E+01  0.24067501687E+02  0.12684055180E+03  0.79689207638E+02 0.  0.
          5    1    3    3  501    0  0.11027947024E+02  0.26479627119E+02 -0.10730707449E+03  0.11117411795E+03  0.47000000000E+01 0. -1.
        -11    1    4    4    0    0  0.98317765637E+02 -0.89605903033E+02 -0.11505182787E+03  0.17587644525E+03  0.00000000000E+00 0.  1.
         12    1    4    4    0    0 -0.56767273720E+01 -0.27358863163E+02 -0.24984796628E+01  0.28053075194E+02  0.00000000000E+00 0. -1.
         -5    1    5    5    0  502 -0.80708160146E+01  0.94946210665E+02  0.28694080839E+02  0.99626107352E+02  0.47000000000E+01 0.  1.
         13    1    6    6    0    0  0.12262290236E+02 -0.95626976921E+01 -0.22144451888E+01  0.15707091280E+02  0.00000000000E+00 0. -1.
        -14    1    6    6    0    0 -0.10786045951E+03  0.51016261036E+01  0.26281946876E+02  0.11113346052E+03  0.00000000000E+00 0.  1.
</event>
<event>
12    1  0.8417180E-002  0.1750528E+03  0.7818608E-02  0.1173089E+00
         21   -1    0    0  503  502  0.00000000000E+00  0.00000000000E+00  0.60387470109E+03  0.60387470109E+03  0.00000000000E+00 0.  1.
         21   -1    0    0  501  503 -0.00000000000E+00 -0.00000000000E+00 -0.52301242811E+02  0.52301242811E+02  0.00000000000E+00 0.  1.
          6    2    1    2  501    0 -0.15595893322E+02  0.17185123088E+02  0.21242928578E+03  0.27526291970E+03  0.17350767464E+03 0.  0.
         24    2    3    3    0    0 -0.29616689228E+02 -0.24435553695E+02  0.21273837616E+03  0.23109223949E+03  0.81680853908E+02 0.  0.
         -6    2    1    2    0  502  0.15595893322E+02 -0.17185123088E+02  0.33914417250E+03  0.38091302420E+03  0.17186448709E+03 0.  0.
        -24    2    5    5    0    0  0.69120325907E+02  0.93693240189E+01  0.17558012743E+03  0.20671402770E+03  0.83886258778E+02 0.  0.
          5    1    3    3  501    0  0.14020795906E+02  0.41620676784E+02 -0.30909037627E+00  0.44170680215E+02  0.47000000000E+01 0. -1.
        -11    1    4    4    0    0  0.13372743624E+02 -0.39142438657E+02  0.70118399760E+02  0.81409770672E+02  0.00000000000E+00 0.  1.
         12    1    4    4    0    0 -0.42989432852E+02  0.14706884962E+02  0.14261997640E+03  0.14968246882E+03  0.00000000000E+00 0. -1.
         -5    1    5    5    0  502 -0.53524432586E+02 -0.26554447107E+02  0.16356404506E+03  0.17419899650E+03  0.47000000000E+01 0.  1.
         13    1    6    6    0    0  0.41635497964E+02 -0.31054604831E+02  0.12953166032E+03  0.13955770920E+03  0.00000000000E+00 0. -1.
        -14    1    6    6    0    0  0.27484827943E+02  0.40423928850E+02  0.46048467112E+02  0.67156318498E+02  0.00000000000E+00 0.  1.
</event>
<event>
12    1  0.8417180E-002  0.1821480E+03  0.7818608E-02  0.1169871E+00
         21   -1    0    0  501  502  0.00000000000E+00  0.00000000000E+00  0.55531137587E+02  0.55531137587E+02  0.00000000000E+00 0. -1.
         21   -1    0    0  502  503 -0.00000000000E+00 -0.00000000000E+00 -0.54679024017E+03  0.54679024017E+03  0.00000000000E+00 0.  1.
         -6    2    1    2    0  503 -0.55488611454E+02 -0.22787810521E+02 -0.21509587570E+03  0.27149811064E+03  0.15442382598E+03 0.  0.
        -24    2    3    3    0    0 -0.81583015456E+02 -0.99540413835E+00 -0.20444934423E+03  0.23556392735E+03  0.83869245109E+02 0.  0.
          6    2    1    2  501    0  0.55488611454E+02  0.22787810521E+02 -0.27616322688E+03  0.33082326711E+03  0.17198731312E+03 0.  0.
         24    2    5    5    0    0  0.63348323358E+02 -0.35592861368E+02 -0.23411658466E+03  0.25829680268E+03  0.81405166964E+02 0.  0.
          5    1    5    5  501    0 -0.78597119039E+01  0.58380671889E+02 -0.42046642220E+02  0.72526464435E+02  0.47000000000E+01 0. -1.
        -11    1    6    6    0    0  0.33292103302E+02  0.12911949519E+02 -0.16426166307E+03  0.16809811581E+03  0.00000000000E+00 0.  1.
         12    1    6    6    0    0  0.30056220055E+02 -0.48504810887E+02 -0.69854921586E+02  0.90198686870E+02  0.00000000000E+00 0. -1.
         -5    1    3    3    0  503  0.26094404002E+02 -0.21792406383E+02 -0.10646531475E+02  0.35934183289E+02  0.47000000000E+01 0.  1.
         13    1    4    4    0    0 -0.28271972740E+02 -0.98667726248E+01 -0.68641991743E+01  0.30720919175E+02  0.00000000000E+00 0. -1.
        -14    1    4    4    0    0 -0.53311042716E+02  0.88713684864E+01 -0.19758514505E+03  0.20484300818E+03  0.00000000000E+00 0.  1.
</event>
<event>
12    1  0.8417180E-002  0.1832328E+03  0.7818608E-02  0.1164754E+00
         21   -1    0    0  501  502  0.00000000000E+00  0.00000000000E+00  0.26549564196E+02  0.26549564196E+02  0.00000000000E+00 0.  1.
         21   -1    0    0  502  503 -0.00000000000E+00 -0.00000000000E+00 -0.20249513587E+04  0.20249513587E+04  0.00000000000E+00 0.  1.
         -6    2    1    2    0  503 -0.62699982662E+02  0.66895657298E+01 -0.16279718937E+04  0.16382303345E+04  0.17184325486E+03 0.  0.
        -24    2    3    3    0    0 -0.25656857711E+02  0.70127157153E+02 -0.10007091602E+04  0.10066631189E+04  0.79848099655E+02 0.  0.
          6    2    1    2  501    0  0.62699982662E+02 -0.66895657298E+01 -0.37042990079E+03  0.41327058834E+03  0.17204136034E+03 0.  0.
         24    2    5    5    0    0  0.45171133078E+02 -0.18117663242E+02 -0.37892673017E+03  0.39020225311E+03  0.79395532055E+02 0.  0.
          5    1    5    5  501    0  0.17528849584E+02  0.11428097512E+02  0.84968293792E+01  0.23068335223E+02  0.47000000000E+01 0. -1.
        -13    1    6    6    0    0  0.51757737715E+02 -0.23912289717E+02 -0.14068390935E+03  0.15179796891E+03  0.00000000000E+00 0.  1.
         14    1    6    6    0    0 -0.65866046365E+01  0.57946264755E+01 -0.23824282082E+03  0.23840428421E+03  0.00000000000E+00 0. -1.
         -5    1    3    3    0  503 -0.37043124951E+02 -0.63437591423E+02 -0.62726273347E+03  0.63156721567E+03  0.47000000000E+01 0.  1.
         11    1    4    4    0    0  0.88702314672E+01  0.51678023063E+02 -0.27844689317E+03  0.28334073372E+03  0.00000000000E+00 0. -1.
        -12    1    4    4    0    0 -0.34527089179E+02  0.18449134090E+02 -0.72226226706E+03  0.72332238515E+03  0.00000000000E+00 0.  1.
</event>
<event>
12    1  0.8417180E-002  0.2518897E+03  0.7818608E-02  0.1112208E+00
         21   -1    0    0  501  502  0.00000000000E+00  0.00000000000E+00  0.16068817285E+04  0.16068817285E+04  0.00000000000E+00 0. -1.
         21   -1    0    0  502  503 -0.00000000000E+00 -0.00000000000E+00 -0.70610153338E+02  0.70610153338E+02  0.00000000000E+00 0.  1.
         -6    2    1    2    0  503  0.15545942608E+03 -0.97693243759E+02  0.20995121024E+03  0.32746442719E+03  0.17158623884E+03 0.  0.
        -24    2    3    3    0    0  0.75034108905E+02  0.16488330795E+02  0.73915935621E+02  0.13244301926E+03  0.78585019311E+02 0.  0.
          6    2    1    2  501    0 -0.15545942608E+03  0.97693243759E+02  0.13263203649E+04  0.13500274547E+04  0.17244365710E+03 0.  0.
         24    2    5    5    0    0 -0.17674113040E+03  0.11212535136E+03  0.12332795510E+04  0.12533844015E+04  0.78641499226E+02 0.  0.
          5    1    5    5  501    0  0.21281704322E+02 -0.14432107597E+02  0.93040813908E+02  0.96643053145E+02  0.47000000000E+01 0. -1.
        -13    1    6    6    0    0 -0.77516151861E+02  0.51589543081E+01  0.43195854551E+03  0.43888899924E+03  0.00000000000E+00 0.  1.
         14    1    6    6    0    0 -0.99224978540E+02  0.10696639705E+03  0.80132100552E+03  0.81449540229E+03  0.00000000000E+00 0. -1.
         -5    1    3    3    0  503  0.80425317174E+02 -0.11418157455E+03  0.13603527462E+03  0.19502140793E+03  0.47000000000E+01 0.  1.
         13    1    4    4    0    0 -0.15656267479E+02  0.42074408610E+01  0.21665793482E+02  0.27059709480E+02  0.00000000000E+00 0. -1.
        -14    1    4    4    0    0  0.90690376384E+02  0.12280889934E+02  0.52250142140E+02  0.10538330978E+03  0.00000000000E+00 0.  1.
</event>
<event>
12    1  0.8417180E-002  0.2281495E+03  0.7818608E-02  0.1128395E+00
         21   -1    0    0  503  502  0.00000000000E+00  0.00000000000E+00  0.14012888591E+03  0.14012888591E+03  0.00000000000E+00 0.  1.
         21   -1    0    0  501  503 -0.00000000000E+00 -0.00000000000E+00 -0.80331213761E+03  0.80331213761E+03  0.00000000000E+00 0. -1.
          6    2    1    2  501    0  0.13141119467E+03 -0.66347623569E+02 -0.67824152932E+03  0.71479515900E+03  0.17102525544E+03 0.  0.
         24    2    3    3    0    0  0.50707654765E+02 -0.96851550583E+02 -0.48112333331E+03  0.49957149832E+03  0.78361540185E+02 0.  0.
         -6    2    1    2    0  502 -0.13141119467E+03  0.66347623569E+02  0.15058277626E+02  0.22864586451E+03  0.17430223864E+03 0.  0.
        -24    2    5    5    0    0 -0.10625829170E+02  0.61392530250E+02  0.32383079275E+02  0.10643336015E+03  0.79984031617E+02 0.  0.
          5    1    3    3  501    0  0.80703539906E+02  0.30503927014E+02 -0.19711819602E+03  0.21522366068E+03  0.47000000000E+01 0. -1.
        -13    1    4    4    0    0 -0.74939013008E+01  0.10157533323E+02 -0.50119553669E+02  0.51684656330E+02  0.00000000000E+00 0.  1.
         14    1    4    4    0    0  0.58201556066E+02 -0.10700908391E+03 -0.43100377964E+03  0.44788684199E+03  0.00000000000E+00 0. -1.
         -5    1    5    5    0  502 -0.12078536550E+03  0.49550933192E+01 -0.17324801649E+02  0.12221250436E+03  0.47000000000E+01 0.  1.
         11    1    6    6    0    0  0.80525297453E+01  0.58891814592E+02 -0.97906571434E+01  0.60240733964E+02  0.00000000000E+00 0. -1.
        -12    1    6    6    0    0 -0.18678358915E+02  0.25007156581E+01  0.42173736418E+02  0.46192626187E+02  0.00000000000E+00 0.  1.
</event>
<event>
12    1  0.8417180E-002  0.2898527E+03  0.7818608E-02  0.1090542E+00
         21   -1    0    0  503  502  0.00000000000E+00  0.00000000000E+00  0.81737018829E+03  0.81737018829E+03  0.00000000000E+00 0.  1.
         21   -1    0    0  501  503 -0.00000000000E+00 -0.00000000000E+00 -0.11240809924E+03  0.11240809924E+03  0.00000000000E+00 0.  1.
          6    2    1    2  501    0 -0.69499074301E+01  0.23195205000E+03  0.21475562825E+03  0.36074172869E+03  0.17367947559E+03 0.  0.
         24    2    3    3    0    0  0.32240292432E+01  0.14997730090E+03  0.51990996297E+02  0.17815535491E+03  0.80825006247E+02 0.  0.
         -6    2    1    2    0  502  0.69499074301E+01 -0.23195205000E+03  0.49020646080E+03  0.56903655884E+03  0.17219226571E+03 0.  0.
        -24    2    5    5    0    0 -0.33006163138E+01 -0.28829279941E+02  0.16399409702E+03  0.18458821479E+03  0.79603540962E+02 0.  0.
          5    1    3    3  501    0 -0.10173936673E+02  0.81974749096E+02  0.16276463195E+03  0.18258637378E+03  0.47000000000E+01 0. -1.
        -13    1    4    4    0    0  0.18216103904E+02  0.14758865997E+02  0.33454121431E+02  0.40851301175E+02  0.00000000000E+00 0.  1.
         14    1    4    4    0    0 -0.14992074661E+02  0.13521843491E+03  0.18536874866E+02  0.13730405373E+03  0.00000000000E+00 0. -1.
         -5    1    5    5    0  502  0.10250523744E+02 -0.20312277006E+03  0.32621236378E+03  0.38444834405E+03  0.47000000000E+01 0.  1.
         11    1    6    6    0    0  0.14700261121E+02 -0.26311982378E+02  0.13542479258E+02  0.33042651803E+02  0.00000000000E+00 0. -1.
        -12    1    6    6    0    0 -0.18000877435E+02 -0.25172975628E+01  0.15045161776E+03  0.15154556299E+03  0.00000000000E+00 0.  1.
</event>
<event>
12    1  0.8417180E-002  0.2384267E+03  0.7818608E-02  0.1122939E+00
         21   -1    0    0  503  502  0.00000000000E+00  0.00000000000E+00  0.24656300707E+03  0.24656300707E+03  0.00000000000E+00 0.  1.
         21   -1    0    0  501  503 -0.00000000000E+00 -0.00000000000E+00 -0.43166314874E+03  0.43166314874E+03  0.00000000000E+00 0. -1.
          6    2    1    2  501    0 -0.10837762911E+03  0.99837294439E+02 -0.33176271040E+03  0.40855086105E+03  0.18744096192E+03 0.  0.
         24    2    3    3    0    0 -0.10439992902E+03  0.10869482343E+03 -0.16395371662E+03  0.24039549745E+03  0.90527698407E+02 0.  0.
         -6    2    1    2    0  502  0.10837762911E+03 -0.99837294439E+02  0.14666256872E+03  0.26967529476E+03  0.17176047185E+03 0.  0.
        -24    2    5    5    0    0  0.11255399561E+03 -0.50783237474E+02  0.16132062784E+03  0.21809340609E+03  0.79328744340E+02 0.  0.
          5    1    3    3  501    0 -0.39777000873E+01 -0.88575289877E+01 -0.16780899377E+03  0.16815536360E+03  0.47000000000E+01 0. -1.
        -11    1    4    4    0    0  0.13544595059E+02  0.30268721189E+02 -0.21560853590E+02  0.39554038293E+02  0.00000000000E+00 0.  1.
         12    1    4    4    0    0 -0.11794452408E+03  0.78426102237E+02 -0.14239286303E+03  0.20084145915E+03  0.00000000000E+00 0. -1.
         -5    1    5    5    0  502 -0.41763665012E+01 -0.49054056965E+02 -0.14658059119E+02  0.51581888672E+02  0.47000000000E+01 0.  1.
         13    1    6    6    0    0  0.54035082960E+02  0.70354057113E+01  0.27569570029E+02  0.61068554229E+02  0.00000000000E+00 0. -1.
        -14    1    6    6    0    0  0.58518912648E+02 -0.57818643185E+02  0.13375105781E+03  0.15702485186E+03  0.00000000000E+00 0.  1.
</event>
<event>
12    1  0.8417180E-002  0.1927021E+03  0.7818608E-02  0.1156139E+00
         21   -1    0    0  501  502  0.00000000000E+00  0.00000000000E+00  0.19197323090E+03  0.19197323090E+03  0.00000000000E+00 0.  1.
         21   -1    0    0  502  503 -0.00000000000E+00 -0.00000000000E+00 -0.20030264542E+03  0.20030264542E+03  0.00000000000E+00 0.  1.
         -6    2    1    2    0  503  0.69457971848E+02  0.52668579761E+02 -0.41575352205E+02  0.19672694595E+03  0.17139017535E+03 0.  0.
        -24    2    3    3    0    0 -0.24796230022E+02  0.15108862993E+02 -0.81618422808E+01  0.89801085939E+02  0.84584210123E+02 0.  0.
          6    2    1    2  501    0 -0.69457971848E+02 -0.52668579761E+02  0.33245937684E+02  0.19554893037E+03  0.17185954338E+03 0.  0.
         24    2    5    5    0    0 -0.74182579043E+02 -0.89600886841E+02  0.57536613082E+02  0.15084496935E+03  0.76891930515E+02 0.  0.
          5    1    5    5  501    0  0.47246071951E+01  0.36932307080E+02 -0.24290675398E+02  0.44703961018E+02  0.47000000000E+01 0. -1.
        -11    1    6    6    0    0 -0.65161664911E+02 -0.74361221953E+02  0.91204096198E+01  0.99291569511E+02  0.00000000000E+00 0.  1.
         12    1    6    6    0    0 -0.90209141314E+01 -0.15239664888E+02  0.48416203462E+02  0.51553399843E+02  0.00000000000E+00 0. -1.
         -5    1    3    3    0  503  0.94254201870E+02  0.37559716768E+02 -0.33413509925E+02  0.10692586001E+03  0.47000000000E+01 0.  1.
         13    1    4    4    0    0 -0.19987630895E+02  0.39458522530E+02  0.23086938201E+02  0.49894760291E+02  0.00000000000E+00 0. -1.
        -14    1    4    4    0    0 -0.48085991279E+01 -0.24349659537E+02 -0.31248780481E+02  0.39906325648E+02  0.00000000000E+00 0.  1.
</event>
<event>
12    1  0.8417180E-002  0.2248805E+03  0.7818608E-02  0.1132022E+00
         21   -1    0    0  501  502  0.00000000000E+00  0.00000000000E+00  0.32960936161E+03  0.32960936161E+03  0.00000000000E+00 0. -1.
         21   -1    0    0  502  503 -0.00000000000E+00 -0.00000000000E+00 -0.14727921623E+03  0.14727921623E+03  0.00000000000E+00 0.  1.
         -6    2    1    2    0  503 -0.80560853679E+02 -0.11835988667E+03  0.96643409764E+02  0.23623641618E+03  0.16114770169E+03 0.  0.
        -24    2    3    3    0    0 -0.69113413853E+02 -0.12251379423E+02  0.72040579775E+02  0.12661229277E+03  0.76902973112E+02 0.  0.
          6    2    1    2  501    0  0.80560853679E+02  0.11835988667E+03  0.85686735615E+02  0.24065216166E+03  0.17341318384E+03 0.  0.
         24    2    5    5    0    0  0.11747511766E+03  0.12098228545E+03  0.66082925818E+02  0.19851026778E+03  0.81254271693E+02 0.  0.
          5    1    5    5  501    0 -0.36914263983E+02 -0.26223987734E+01  0.19603809797E+02  0.42141893874E+02  0.47000000000E+01 0. -1.
        -13    1    6    6    0    0  0.19864607672E+02  0.67376482154E+02  0.25280196154E+01  0.70289287012E+02  0.00000000000E+00 0.  1.
         14    1    6    6    0    0  0.97610509990E+02  0.53605803293E+02  0.63554906203E+02  0.12822098077E+03  0.00000000000E+00 0. -1.
         -5    1    3    3    0  503 -0.11447439825E+02 -0.10610850725E+03  0.24602829989E+02  0.10962412341E+03  0.47000000000E+01 0.  1.
         11    1    4    4    0    0 -0.74568222380E+00  0.24315123551E+02  0.29290618295E+02  0.38075209722E+02  0.00000000000E+00 0. -1.
        -12    1    4    4    0    0 -0.68367731629E+02 -0.36566502973E+02  0.42749961480E+02  0.88537083047E+02  0.00000000000E+00 0.  1.
</event>
<event>
12    1  0.8417180E-002  0.2290867E+03  0.7818608E-02  0.1127643E+00
         21   -1    0    0  503  502  0.00000000000E+00  0.00000000000E+00  0.11553569624E+03  0.11553569624E+03  0.00000000000E+00 0. -1.
         21   -1    0    0  501  503 -0.00000000000E+00 -0.00000000000E+00 -0.47007979225E+03  0.47007979225E+03  0.00000000000E+00 0. -1.
          6    2    1    2  501    0  0.73107060316E+02 -0.13239175050E+03 -0.23667364082E+03  0.32798364277E+03  0.16937130749E+03 0.  0.
         24    2    3    3    0    0  0.11091275660E+03 -0.68993658064E+02 -0.16452154251E+03  0.22465598875E+03  0.79631720439E+02 0.  0.
         -6    2    1    2    0  502 -0.73107060316E+02  0.13239175050E+03 -0.11787045519E+03  0.25763184572E+03  0.17207122319E+03 0.  0.
        -24    2    5    5    0    0 -0.59416200911E+02  0.15279713963E+03 -0.59815735518E+02  0.19441586662E+03  0.85687549657E+02 0.  0.
          5    1    3    3  501    0 -0.37805696284E+02 -0.63398092439E+02 -0.72152098305E+02  0.10332765402E+03  0.47000000000E+01 0. -1.
        -13    1    4    4    0    0  0.47185847711E+02 -0.58877290022E+02 -0.42434011171E+02  0.86566071925E+02  0.00000000000E+00 0.  1.
         14    1    4    4    0    0  0.63726908889E+02 -0.10116368041E+02 -0.12208753134E+03  0.13808991682E+03  0.00000000000E+00 0. -1.
         -5    1    5    5    0  502 -0.13690859405E+02 -0.20405389130E+02 -0.58054719676E+02  0.63215979099E+02  0.47000000000E+01 0.  1.
         13    1    6    6    0    0 -0.11467081961E+02 -0.68288329819E+01  0.67336837187E+01  0.14948893772E+02  0.00000000000E+00 0. -1.
        -14    1    6    6    0    0 -0.47949118950E+02  0.15962597261E+03 -0.66549419236E+02  0.17946697284E+03  0.00000000000E+00 0.  1.
</event>
<event>
12    1  0.8417180E-002  0.1797654E+03  0.7818608E-02  0.1168687E+00
         21   -1    0    0  501  502  0.00000000000E+00  0.00000000000E+00  0.61378997339E+03  0.61378997339E+03  0.00000000000E+00 0.  1.
         21   -1    0    0  502  503 -0.00000000000E+00 -0.00000000000E+00 -0.54283412237E+02  0.54283412237E+02  0.00000000000E+00 0. -1.
         -6    2    1    2    0  503  0.40682147299E+02 -0.29340722767E+02  0.20724621352E+03  0.27259525973E+03  0.16982716946E+03 0.  0.
        -24    2    3    3    0    0  0.61410026959E+02  0.14066493256E+02  0.57972824405E+02  0.11569253159E+03  0.77812954277E+02 0.  0.
          6    2    1    2  501    0 -0.40682147299E+02  0.29340722767E+02  0.35226034762E+03  0.39547812589E+03  0.17262583940E+03 0.  0.
         24    2    5    5    0    0  0.28936845277E+02  0.53965726950E+02  0.20019518549E+03  0.22636544602E+03  0.86102045029E+02 0.  0.
          5    1    5    5  501    0 -0.69618992576E+02 -0.24625004184E+02  0.15206516214E+03  0.16911267987E+03  0.47000000000E+01 0. -1.
        -13    1    6    6    0    0  0.30713205636E+02  0.75871475041E+02  0.13857824860E+03  0.16094630381E+03  0.00000000000E+00 0.  1.
         14    1    6    6    0    0 -0.17763603593E+01 -0.21905748091E+02  0.61616936890E+02  0.65419142208E+02  0.00000000000E+00 0. -1.
         -5    1    3    3    0  503 -0.20727879661E+02 -0.43407216022E+02  0.14927338912E+03  0.15690272814E+03  0.47000000000E+01 0.  1.
         11    1    4    4    0    0  0.76644114787E+02  0.12743747366E+02  0.62533543672E+02  0.99735487729E+02  0.00000000000E+00 0. -1.
        -12    1    4    4    0    0 -0.15234087828E+02  0.13227458898E+01 -0.45607192675E+01  0.15957043864E+02  0.00000000000E+00 0.  1.
</event>
<event>
12    1  0.8417180E-002  0.1909297E+03  0.7818608E-02  0.1157852E+00
         21   -1    0    0  501  502  0.00000000000E+00  0.00000000000E+00  0.34258910609E+02  0.34258910609E+02  0.00000000000E+00 0.  1.
         21   -1    0    0  502  503 -0.00000000000E+00 -0.00000000000E+00 -0.16816233720E+04  0.16816233720E+04  0.00000000000E+00 0. -1.
         -6    2    1    2    0  503 -0.17251297652E+01 -0.80669108132E+02 -0.13473174072E+04  0.13607785787E+04  0.17304237457E+03 0.  0.
        -24    2    3    3    0    0  0.16627879520E+02  0.23089884482E+02 -0.65793726116E+03  0.66337637246E+03  0.79857014563E+02 0.  0.
          6    2    1    2  501    0  0.17251297652E+01  0.80669108132E+02 -0.30004705415E+03  0.35510370387E+03  0.17192999949E+03 0.  0.
         24    2    5    5    0    0  0.30003198761E+01  0.10330115243E+03 -0.30416640565E+03  0.33158999307E+03  0.82186319826E+02 0.  0.
          5    1    5    5  501    0 -0.12751901108E+01 -0.22632044297E+02  0.41193515033E+01  0.23513710803E+02  0.47000000000E+01 0. -1.
        -13    1    6    6    0    0  0.26899684625E+02  0.13823583900E+02 -0.31697899371E+02  0.43811429208E+02  0.00000000000E+00 0.  1.
         14    1    6    6    0    0 -0.23899364748E+02  0.89477568530E+02 -0.27246850628E+03  0.28777856386E+03  0.00000000000E+00 0. -1.
         -5    1    3    3    0  503 -0.18353009286E+02 -0.10375899261E+03 -0.68938014606E+03  0.69740220625E+03  0.47000000000E+01 0.  1.
         13    1    4    4    0    0 -0.20998907631E+02  0.16518749631E+02 -0.50622959928E+03  0.50693414799E+03  0.00000000000E+00 0. -1.
        -14    1    4    4    0    0  0.37626787152E+02  0.65711348513E+01 -0.15170766188E+03  0.15644222447E+03  0.00000000000E+00 0.  1.
</event>
<event>
12    1  0.8417180E-002  0.1900817E+03  0.7818608E-02  0.1158504E+00
         21   -1    0    0  503  502  0.00000000000E+00  0.00000000000E+00  0.32138460443E+03  0.32138460443E+03  0.00000000000E+00 0. -1.
         21   -1    0    0  501  503 -0.00000000000E+00 -0.00000000000E+00 -0.12058585228E+03  0.12058585228E+03  0.00000000000E+00 0. -1.
          6    2    1    2  501    0 -0.54997575709E+02  0.55109704569E+02  0.41709427763E+02  0.19409859422E+03  0.17283742373E+03 0.  0.
         24    2    3    3    0    0  0.10553626768E+02  0.44432546225E+02 -0.29473232874E+02  0.96630532623E+02  0.79894669265E+02 0.  0.
         -6    2    1    2    0  502  0.54997575709E+02 -0.55109704569E+02  0.15908932438E+03  0.24787186248E+03  0.17340482752E+03 0.  0.
        -24    2    5    5    0    0  0.51343935315E+02  0.27465179048E+02  0.12039828832E+03  0.15648780061E+03  0.81253603961E+02 0.  0.
          5    1    3    3  501    0 -0.65551202478E+02  0.10677158344E+02  0.71182660637E+02  0.97468061599E+02  0.47000000000E+01 0. -1.
        -13    1    4    4    0    0 -0.29176804979E+02  0.43123883258E+02 -0.19915496867E+02  0.55745692851E+02  0.00000000000E+00 0.  1.
         14    1    4    4    0    0  0.39730431747E+02  0.13086629677E+01 -0.95577360074E+01  0.40884839772E+02  0.00000000000E+00 0. -1.
         -5    1    5    5    0  502  0.36536403946E+01 -0.82574883617E+02  0.38691036066E+02  0.91384061873E+02  0.47000000000E+01 0.  1.
         11    1    6    6    0    0 -0.58243701016E+01  0.40838048475E+02  0.49938401246E+02  0.64772782937E+02  0.00000000000E+00 0. -1.
        -12    1    6    6    0    0  0.57168305416E+02 -0.13372869428E+02  0.70459887069E+02  0.91715017673E+02  0.00000000000E+00 0.  1.
</event>
<event>
12    1  0.8417180E-002  0.2251283E+03  0.7818608E-02  0.1130299E+00
         21   -1    0    0  501  502  0.00000000000E+00  0.00000000000E+00  0.83537382067E+02  0.83537382067E+02  0.00000000000E+00 0. -1.
         21   -1    0    0  502  503 -0.00000000000E+00 -0.00000000000E+00 -0.64923713440E+03  0.64923713440E+03  0.00000000000E+00 0. -1.
         -6    2    1    2    0  503 -0.10469544774E+03  0.99908528610E+02 -0.37897587072E+03  0.44028766700E+03  0.17113640249E+03 0.  0.
        -24    2    3    3    0    0 -0.15377970437E+02  0.89206839164E+02 -0.12899589476E+03  0.17457312789E+03  0.75109879447E+02 0.  0.
          6    2    1    2  501    0  0.10469544774E+03 -0.99908528610E+02 -0.18672388162E+03  0.29248684947E+03  0.17245259720E+03 0.  0.
         24    2    5    5    0    0  0.26039589931E+02  0.15349177280E+02 -0.67569019377E+02  0.10893561975E+03  0.79923334419E+02 0.  0.
          5    1    5    5  501    0  0.78655857811E+02 -0.11525770589E+03 -0.11915486224E+03  0.18355122972E+03  0.47000000000E+01 0. -1.
        -13    1    6    6    0    0 -0.97984662357E+01  0.22157824318E+02 -0.68278618287E+02  0.72449629635E+02  0.00000000000E+00 0.  1.
         14    1    6    6    0    0  0.35838056167E+02 -0.68086470377E+01  0.70959891047E+00  0.36485990118E+02  0.00000000000E+00 0. -1.
         -5    1    3    3    0  503 -0.89317477305E+02  0.10701689446E+02 -0.24997997596E+03  0.26571453910E+03  0.47000000000E+01 0.  1.
         11    1    4    4    0    0 -0.36912290247E+02  0.56057557279E+02 -0.11400655410E+03  0.13229686798E+03  0.00000000000E+00 0. -1.
        -12    1    4    4    0    0  0.21534319810E+02  0.33149281884E+02 -0.14989340657E+02  0.42276259916E+02  0.00000000000E+00 0.  1.
</event>
<event>
12    1  0.8417180E-002  0.2245747E+03  0.7818608E-02  0.1130634E+00
         21   -1    0    0  501  502  0.00000000000E+00  0.00000000000E+00  0.15254165140E+03  0.15254165140E+03  0.00000000000E+00 0. -1.
         21   -1    0    0  502  503 -0.00000000000E+00 -0.00000000000E+00 -0.34348698282E+03  0.34348698282E+03  0.00000000000E+00 0. -1.
         -6    2    1    2    0  503  0.10217554125E+03  0.10222182889E+03 -0.14532267085E+03  0.26749297078E+03  0.17188562251E+03 0.  0.
        -24    2    3    3    0    0  0.59506493980E+02  0.40436501055E+02 -0.15843830660E+03  0.19112423221E+03  0.79054675351E+02 0.  0.
          6    2    1    2  501    0 -0.10217554125E+03 -0.10222182889E+03 -0.45622660571E+02  0.22853566343E+03  0.17104963832E+03 0.  0.
         24    2    5    5    0    0 -0.12330993590E+03 -0.38299057057E+02 -0.11815927791E+02  0.15305209848E+03  0.81321403313E+02 0.  0.
          5    1    5    5  501    0  0.21134394653E+02 -0.63922771830E+02 -0.33806732781E+02  0.75483564947E+02  0.47000000000E+01 0. -1.
        -13    1    6    6    0    0 -0.30538069252E+01  0.17766029219E+02 -0.94375197588E+01  0.20347587330E+02  0.00000000000E+00 0.  1.
         14    1    6    6    0    0 -0.12025612898E+03 -0.56065086276E+02 -0.23784080320E+01  0.13270451115E+03  0.00000000000E+00 0. -1.
         -5    1    3    3    0  503  0.42669047270E+02  0.61785327832E+02  0.13115635752E+02  0.76368738574E+02  0.47000000000E+01 0.  1.
         11    1    4    4    0    0  0.53292961952E+02  0.61548093065E+02 -0.14189563010E+03  0.16359302367E+03  0.00000000000E+00 0. -1.
        -12    1    4    4    0    0  0.62135320278E+01 -0.21111592011E+02 -0.16542676505E+02  0.27531208535E+02  0.00000000000E+00 0.  1.
</event>
<event>
12    1  0.8417180E-002  0.1801829E+03  0.7818608E-02  0.1167842E+00
         21   -1    0    0  501  502  0.00000000000E+00  0.00000000000E+00  0.57928067545E+02  0.57928067545E+02  0.00000000000E+00 0. -1.
         21   -1    0    0  502  503 -0.00000000000E+00 -0.00000000000E+00 -0.57080448657E+03  0.57080448657E+03  0.00000000000E+00 0.  1.
         -6    2    1    2    0  503  0.51346437437E+02 -0.86151787262E+01 -0.20816235550E+03  0.27473180747E+03  0.17156725168E+03 0.  0.
        -24    2    3    3    0    0 -0.11170836530E+02 -0.56539731365E+02 -0.13656358442E+03  0.16817831710E+03  0.79453161942E+02 0.  0.
          6    2    1    2  501    0 -0.51346437437E+02  0.86151787262E+01 -0.30471406353E+03  0.35400074664E+03  0.17249692801E+03 0.  0.
         24    2    5    5    0    0  0.68011281051E+00 -0.34634920642E+02 -0.77360794344E+02  0.11674786039E+03  0.80282813376E+02 0.  0.
          5    1    5    5  501    0 -0.52026550247E+02  0.43250099368E+02 -0.22735326918E+03  0.23725288625E+03  0.47000000000E+01 0. -1.
        -13    1    6    6    0    0 -0.27348959063E+02 -0.18729444811E+02 -0.77746639069E+02  0.84518030924E+02  0.00000000000E+00 0.  1.
         14    1    6    6    0    0  0.28029071873E+02 -0.15905475830E+02  0.38584472527E+00  0.32229829469E+02  0.00000000000E+00 0. -1.
         -5    1    3    3    0  503  0.62517273967E+02  0.47924552639E+02 -0.71598771081E+02  0.10655349037E+03  0.47000000000E+01 0.  1.
         13    1    4    4    0    0  0.21971823838E+02 -0.17590816267E+02 -0.71702549396E+01  0.29044972295E+02  0.00000000000E+00 0. -1.
        -14    1    4    4    0    0 -0.33142660368E+02 -0.38948915099E+02 -0.12939332948E+03  0.13913334481E+03  0.00000000000E+00 0.  1.
</event>
<event>
12    1  0.8417180E-002  0.2286523E+03  0.7818608E-02  0.1127678E+00
         21   -1    0    0  503  502  0.00000000000E+00  0.00000000000E+00  0.65120977635E+02  0.65120977635E+02  0.00000000000E+00 0.  1.
         21   -1    0    0  501  503 -0.00000000000E+00 -0.00000000000E+00 -0.10620634960E+04  0.10620634960E+04  0.00000000000E+00 0.  1.
          6    2    1    2  501    0 -0.12561587167E+02 -0.14817166212E+03 -0.21952271891E+03  0.31697335877E+03  0.17369297949E+03 0.  0.
         24    2    3    3    0    0 -0.72358195138E+02 -0.68874759059E+02 -0.10552248361E+03  0.16570612237E+03  0.79649755828E+02 0.  0.
         -6    2    1    2    0  502  0.12561587167E+02  0.14817166212E+03 -0.77741979947E+03  0.81021111488E+03  0.17305453228E+03 0.  0.
        -24    2    5    5    0    0 -0.16797608610E+02  0.12634663980E+03 -0.74829737519E+03  0.76321643889E+03  0.79402379228E+02 0.  0.
          5    1    3    3  501    0  0.59796607971E+02 -0.79296903062E+02 -0.11400023530E+03  0.15126723640E+03  0.47000000000E+01 0. -1.
        -11    1    4    4    0    0 -0.61924518296E+02 -0.75100163090E+02 -0.11473252436E+03  0.15046006982E+03  0.00000000000E+00 0.  1.
         12    1    4    4    0    0 -0.10433676842E+02  0.62254040306E+01  0.92100407508E+01  0.15246052552E+02  0.00000000000E+00 0. -1.
         -5    1    5    5    0  502  0.29359195778E+02  0.21825022318E+02 -0.29122424280E+02  0.46994675994E+02  0.47000000000E+01 0.  1.
         13    1    6    6    0    0 -0.39212429464E+02  0.33516401787E+02 -0.34057701359E+03  0.34446141438E+03  0.00000000000E+00 0. -1.
        -14    1    6    6    0    0  0.22414820853E+02  0.92830238016E+02 -0.40772036160E+03  0.41875502451E+03  0.00000000000E+00 0.  1.
</event>
<event>
12    1  0.8417180E-002  0.2684243E+03  0.7818608E-02  0.1102389E+00
         21   -1    0    0  501  502  0.00000000000E+00  0.00000000000E+00  0.35487506016E+03  0.35487506016E+03  0.00000000000E+00 0. -1.
         21   -1    0    0  502  503 -0.00000000000E+00 -0.00000000000E+00 -0.24934918383E+03  0.24934918383E+03  0.00000000000E+00 0.  1.
         -6    2    1    2    0  503 -0.11605027531E+03  0.16853774178E+03 -0.78817512612E+02  0.27975670441E+03  0.17372097331E+03 0.  0.
        -24    2    3    3    0    0  0.27241172155E+00  0.27117753342E+02 -0.19654088610E+02  0.87265194508E+02  0.80582158192E+02 0.  0.
          6    2    1    2  501    0  0.11605027531E+03 -0.16853774178E+03  0.18434338894E+03  0.32446753958E+03  0.17153443500E+03 0.  0.
         24    2    5    5    0    0  0.49877217101E+02 -0.18133107579E+02  0.10213684864E+03  0.14067299970E+03  0.80872805185E+02 0.  0.
          5    1    5    5  501    0  0.66173058207E+02 -0.15040463420E+03  0.82206540304E+02  0.18379453988E+03  0.47000000000E+01 0. -1.
        -13    1    6    6    0    0 -0.19845771187E+02 -0.12468933094E+02  0.11291550477E+02  0.26015918948E+02  0.00000000000E+00 0.  1.
         14    1    6    6    0    0  0.69722988289E+02 -0.56641744848E+01  0.90845298159E+02  0.11465708075E+03  0.00000000000E+00 0. -1.
         -5    1    3    3    0  503 -0.11632268703E+03  0.14141998843E+03 -0.59163424001E+02  0.19249150991E+03  0.47000000000E+01 0.  1.
         13    1    4    4    0    0 -0.17550553593E+02  0.98125392138E+01  0.27441243218E+02  0.34019548595E+02  0.00000000000E+00 0. -1.
        -14    1    4    4    0    0  0.17822965314E+02  0.17305214129E+02 -0.47095331829E+02  0.53245645913E+02  0.00000000000E+00 0.  1.
</event>
<event>
12    1  0.8417180E-002  0.1819883E+03  0.7818608E-02  0.1165922E+00
         21   -1    0    0  503  502  0.00000000000E+00  0.00000000000E+00  0.63553581768E+02  0.63553581768E+02  0.00000000000E+00 0. -1.
         21   -1    0    0  501  503 -0.00000000000E+00 -0.00000000000E+00 -0.64963485629E+03  0.64963485629E+03  0.00000000000E+00 0. -1.
          6    2    1    2  501    0  0.46630927667E+02 -0.37048529037E+02 -0.45177802625E+03  0.48700905301E+03  0.17183537410E+03 0.  0.
         24    2    3    3    0    0  0.54309770517E+02  0.38268211495E+02 -0.29298792020E+03  0.31103188457E+03  0.80528905695E+02 0.  0.
         -6    2    1    2    0  502 -0.46630927667E+02  0.37048529037E+02 -0.13430324828E+03  0.22617938506E+03  0.17196719108E+03 0.  0.
        -24    2    5    5    0    0 -0.62578681037E+02 -0.21971914052E+02 -0.12650225590E+03  0.16436766269E+03  0.81332966632E+02 0.  0.
          5    1    3    3  501    0 -0.76788428498E+01 -0.75316740531E+02 -0.15879010605E+03  0.17597716844E+03  0.47000000000E+01 0. -1.
        -13    1    4    4    0    0  0.29611839961E+02 -0.23016950988E+02 -0.88030634217E+02  0.95687165594E+02  0.00000000000E+00 0.  1.
         14    1    4    4    0    0  0.24697930556E+02  0.61285162483E+02 -0.20495728598E+03  0.21534471897E+03  0.00000000000E+00 0. -1.
         -5    1    5    5    0  502  0.15947753370E+02  0.59020443089E+02 -0.78009923744E+01  0.61811722367E+02  0.47000000000E+01 0.  1.
         11    1    6    6    0    0 -0.18388484054E+02  0.21845686847E+02 -0.66451110938E+01  0.29317705931E+02  0.00000000000E+00 0. -1.
        -12    1    6    6    0    0 -0.44190196983E+02 -0.43817600899E+02 -0.11985714481E+03  0.13504995676E+03  0.00000000000E+00 0.  1.
</event>
<event>
12    1  0.8417180E-002  0.2610320E+03  0.7818608E-02  0.1106734E+00
         21   -1    0    0  501  502  0.00000000000E+00  0.00000000000E+00  0.94108226068E+02  0.94108226068E+02  0.00000000000E+00 0.  1.
         21   -1    0    0  502  503 -0.00000000000E+00 -0.00000000000E+00 -0.72816171889E+03  0.72816171889E+03  0.00000000000E+00 0.  1.
         -6    2    1    2    0  503  0.19409284843E+03 -0.29580978743E+02 -0.36094675036E+03  0.44544389216E+03  0.17201929063E+03 0.  0.
        -24    2    3    3    0    0  0.13933151946E+03 -0.71723913423E+02 -0.31967113969E+03  0.36481761772E+03  0.79653402767E+02 0.  0.
          6    2    1    2  501    0 -0.19409284843E+03  0.29580978743E+02 -0.27310674246E+03  0.37682605280E+03  0.16989265192E+03 0.  0.
         24    2    5    5    0    0 -0.16928004704E+03 -0.35269623899E+02 -0.20120771678E+03  0.27676189504E+03  0.78822081641E+02 0.  0.
          5    1    5    5  501    0 -0.24812801385E+02  0.64850602643E+02 -0.71899025680E+02  0.10006415777E+03  0.47000000000E+01 0. -1.
        -11    1    6    6    0    0 -0.12089367970E+03  0.68975102394E+01 -0.15934534638E+03  0.20013444694E+03  0.00000000000E+00 0.  1.
         12    1    6    6    0    0 -0.48386367347E+02 -0.42167134139E+02 -0.41862370405E+02  0.76627448101E+02  0.00000000000E+00 0. -1.
         -5    1    3    3    0  503  0.54761328972E+02  0.42142934680E+02 -0.41275610665E+02  0.80626274439E+02  0.47000000000E+01 0.  1.
         13    1    4    4    0    0 -0.80811092489E+01 -0.13202221845E+02 -0.16240400453E+02  0.22435543123E+02  0.00000000000E+00 0. -1.
        -14    1    4    4    0    0  0.14741262871E+03 -0.58521691578E+02 -0.30343073924E+03  0.34238207459E+03  0.00000000000E+00 0.  1.
</event>
<event>
12    1  0.8417180E-002  0.2009784E+03  0.7818608E-02  0.1151979E+00
         21   -1    0    0  501  502  0.00000000000E+00  0.00000000000E+00  0.75003473262E+02  0.75003473262E+02  0.00000000000E+00 0. -1.
         21   -1    0    0  502  503 -0.00000000000E+00 -0.00000000000E+00 -0.50730985691E+03  0.50730985691E+03  0.00000000000E+00 0.  1.
         -6    2    1    2    0  503 -0.24034671913E+02 -0.63825772180E+02 -0.23947392523E+03  0.30378745116E+03  0.17403350244E+03 0.  0.
        -24    2    3    3    0    0 -0.23731530848E+02 -0.63760452605E+02 -0.49414876135E+02  0.11367004454E+03  0.76488353155E+02 0.  0.
          6    2    1    2  501    0  0.24034671913E+02  0.63825772180E+02 -0.19283245842E+03  0.27852587901E+03  0.18905267416E+03 0.  0.
         24    2    5    5    0    0  0.42590820259E+02  0.59180097650E+02 -0.21985644144E+03  0.24508490726E+03  0.80084299305E+02 0.  0.
          5    1    5    5  501    0 -0.18556148346E+02  0.46456745300E+01  0.27023983020E+02  0.33440971749E+02  0.47000000000E+01 0. -1.
        -13    1    6    6    0    0  0.49595494162E+02  0.62305927332E+02 -0.11461793537E+03  0.13956723373E+03  0.00000000000E+00 0.  1.
         14    1    6    6    0    0 -0.70046739028E+01 -0.31258296819E+01 -0.10523850607E+03  0.10551767353E+03  0.00000000000E+00 0. -1.
         -5    1    3    3    0  503 -0.30314106547E+00 -0.65319574713E-01 -0.19005904909E+03  0.19011740663E+03  0.47000000000E+01 0.  1.
         11    1    4    4    0    0  0.27599909473E+02 -0.16612492426E+02 -0.20682168302E+02  0.38281614297E+02  0.00000000000E+00 0. -1.
        -12    1    4    4    0    0 -0.51331440320E+02 -0.47147960179E+02 -0.28732707833E+02  0.75388430239E+02  0.00000000000E+00 0.  1.
</event>
<event>
12    1  0.8417180E-002  0.1846425E+03  0.7818608E-02  0.1163698E+00
         21   -1    0    0  503  502  0.00000000000E+00  0.00000000000E+00  0.21714121320E+03  0.21714121320E+03  0.00000000000E+00 0. -1.
         21   -1    0    0  501  503 -0.00000000000E+00 -0.00000000000E+00 -0.18622453003E+03  0.18622453003E+03  0.00000000000E+00 0. -1.
          6    2    1    2  501    0 -0.60929302225E+02 -0.22320247975E+02 -0.66010600185E+02  0.19482859156E+03  0.17143572385E+03 0.  0.
         24    2    3    3    0    0 -0.31141878019E+01 -0.69186955386E+02 -0.28671383907E+02  0.11142965396E+03  0.82449903373E+02 0.  0.
         -6    2    1    2    0  502  0.60929302225E+02  0.22320247975E+02  0.96927283358E+02  0.20853715167E+03  0.17286489530E+03 0.  0.
        -24    2    5    5    0    0  0.86057192164E+02  0.63545950600E+02  0.55707356057E+02  0.14488071589E+03  0.80269447215E+02 0.  0.
          5    1    3    3  501    0 -0.57815114423E+02  0.46866707411E+02 -0.37339216278E+02  0.83398937592E+02  0.47000000000E+01 0. -1.
        -11    1    4    4    0    0  0.17534425917E+02 -0.40895410398E+02  0.22152775258E+02  0.49705494017E+02  0.00000000000E+00 0.  1.
         12    1    4    4    0    0 -0.20648613718E+02 -0.28291544988E+02 -0.50824159166E+02  0.61724159947E+02  0.00000000000E+00 0. -1.
         -5    1    5    5    0  502 -0.25127889939E+02 -0.41225702625E+02  0.41219927301E+02  0.63656435782E+02  0.47000000000E+01 0.  1.
         11    1    6    6    0    0 -0.31117631395E+01  0.21158756657E+02  0.39375027176E+02  0.44808133393E+02  0.00000000000E+00 0. -1.
        -12    1    6    6    0    0  0.89168955303E+02  0.42387193943E+02  0.16332328881E+02  0.10007258249E+03  0.00000000000E+00 0.  1.
</event>
<event>
12    1  0.8417180E-002  0.1961530E+03  0.7818608E-02  0.1153082E+00
         21   -1    0    0  503  502  0.00000000000E+00  0.00000000000E+00  0.65001192987E+03  0.65001192987E+03  0.00000000000E+00 0.  1.
         21   -1    0    0  501  503 -0.00000000000E+00 -0.00000000000E+00 -0.60887385498E+02  0.60887385498E+02  0.00000000000E+00 0.  1.
          6    2    1    2  501    0 -0.64787135962E+02  0.68846749917E+02  0.23372267921E+03  0.30496031212E+03  0.17157288023E+03 0.  0.
         24    2    3    3    0    0 -0.72723014135E+02  0.84655249151E+02  0.97435862460E+02  0.16745004621E+03  0.78042441586E+02 0.  0.
         -6    2    1    2    0  502  0.64787135962E+02 -0.68846749917E+02  0.35540186516E+03  0.40593900325E+03  0.17186838173E+03 0.  0.
        -24    2    5    5    0    0  0.10053922978E+03 -0.20323431589E+02  0.19572016871E+03  0.23519633484E+03  0.80559002508E+02 0.  0.
          5    1    3    3  501    0  0.79358781732E+01 -0.15808499233E+02  0.13628681675E+03  0.13751026591E+03  0.47000000000E+01 0. -1.
        -13    1    4    4    0    0  0.41004076608E+01  0.10568002638E+02 -0.10648064300E+02  0.15552404832E+02  0.00000000000E+00 0.  1.
         14    1    4    4    0    0 -0.76823421796E+02  0.74087246513E+02  0.10808392676E+03  0.15189764138E+03  0.00000000000E+00 0. -1.
         -5    1    5    5    0  502 -0.35752093819E+02 -0.48523318328E+02  0.15968169645E+03  0.17074266841E+03  0.47000000000E+01 0.  1.
         13    1    6    6    0    0  0.30645685816E+02  0.97032339767E+01  0.87066792442E+01  0.33303409318E+02  0.00000000000E+00 0. -1.
        -14    1    6    6    0    0  0.69893543965E+02 -0.30026665566E+02  0.18701348946E+03  0.20189292552E+03  0.00000000000E+00 0.  1.
</event>
<event>
12    1  0.8417180E-002  0.1851769E+03  0.7818608E-02  0.1164621E+00
         21   -1    0    0  503  502  0.00000000000E+00  0.00000000000E+00  0.33055176854E+03  0.33055176854E+03  0.00000000000E+00 0.  1.
         21   -1    0    0  501  503 -0.00000000000E+00 -0.00000000000E+00 -0.20161928622E+03  0.20161928622E+03  0.00000000000E+00 0.  1.
          6    2    1    2  501    0 -0.35517756234E+01  0.45342414649E+02 -0.12534395390E+03  0.21761262454E+03  0.17197557356E+03 0.  0.
         24    2    3    3    0    0 -0.60037101339E+02 -0.89264377980E+00 -0.44618250405E+02  0.10867685514E+03  0.78832862592E+02 0.  0.
         -6    2    1    2    0  502  0.35517756234E+01 -0.45342414649E+02  0.25427643621E+03  0.31455843022E+03  0.17950473625E+03 0.  0.
        -24    2    5    5    0    0 -0.34744585458E+02 -0.87677646055E+01  0.43228046481E+02  0.96916915101E+02  0.78994711945E+02 0.  0.
          5    1    3    3  501    0  0.56485325716E+02  0.46235058429E+02 -0.80725703492E+02  0.10893576939E+03  0.47000000000E+01 0. -1.
        -11    1    4    4    0    0 -0.36364598261E+02  0.26268513507E+02 -0.55196054621E+02  0.71126811079E+02  0.00000000000E+00 0.  1.
         12    1    4    4    0    0 -0.23672503079E+02 -0.27161157287E+02  0.10577804216E+02  0.37550044064E+02  0.00000000000E+00 0. -1.
         -5    1    5    5    0  502  0.38296361081E+02 -0.36574650043E+02  0.21104838973E+03  0.21764151512E+03  0.47000000000E+01 0.  1.
         13    1    6    6    0    0  0.23113744322E+02 -0.98652900772E+01  0.76947419745E+00  0.25142816378E+02  0.00000000000E+00 0. -1.
        -14    1    6    6    0    0 -0.57858329780E+02  0.10975254717E+01  0.42458572284E+02  0.71774098722E+02  0.00000000000E+00 0.  1.
</event>
<event>
12    1  0.8417180E-002  0.1824328E+03  0.7818608E-02  0.1166176E+00
         21   -1    0    0  503  502  0.00000000000E+00  0.00000000000E+00  0.42245332923E+03  0.42245332923E+03  0.00000000000E+00 0. -1.
         21   -1    0    0  501  503 -0.00000000000E+00 -0.00000000000E+00 -0.27075450944E+03  0.27075450944E+03  0.00000000000E+00 0. -1.
          6    2    1    2  501    0 -0.53384369832E+02  0.21375821860E+02 -0.21713954809E+03  0.28171850918E+03  0.17002622847E+03 0.  0.
         24    2    3    3    0    0 -0.82010578019E+02  0.58124176822E+02 -0.13148991072E+03  0.18410779374E+03  0.80634535128E+02 0.  0.
         -6    2    1    2    0  502  0.53384369832E+02 -0.21375821860E+02  0.36883836788E+03  0.41148932950E+03  0.17313263691E+03 0.  0.
        -24    2    5    5    0    0  0.27330490910E+02  0.15828152245E+02  0.69462542515E+02  0.10865122900E+03  0.77347001326E+02 0.  0.
          5    1    3    3  501    0  0.28626208186E+02 -0.36748354963E+02 -0.85649637369E+02  0.97610715442E+02  0.47000000000E+01 0. -1.
        -13    1    4    4    0    0 -0.15453421462E+02  0.34735940114E+02 -0.37768683076E+01  0.38205477418E+02  0.00000000000E+00 0.  1.
         14    1    4    4    0    0 -0.66557156557E+02  0.23388236708E+02 -0.12771304241E+03  0.14590231632E+03  0.00000000000E+00 0. -1.
         -5    1    5    5    0  502  0.26053878922E+02 -0.37203974105E+02  0.29937582537E+03  0.30283810049E+03  0.47000000000E+01 0.  1.
         11    1    6    6    0    0  0.35553117666E+02 -0.47767280635E+01  0.14792594011E+00  0.35872875392E+02  0.00000000000E+00 0. -1.
        -12    1    6    6    0    0 -0.82226267562E+01  0.20604880309E+02  0.69314616575E+02  0.72778353611E+02  0.00000000000E+00 0.  1.
</event>
<event>
12    1  0.8417180E-002  0.1753507E+03  0.7818608E-02  0.1172920E+00
         21   -1    0    0  501  502  0.00000000000E+00  0.00000000000E+00  0.21431519930E+03  0.21431519930E+03  0.00000000000E+00 0.  1.
         21   -1    0    0  502  503 -0.00000000000E+00 -0.00000000000E+00 -0.14566843927E+03  0.14566843927E+03  0.00000000000E+00 0.  1.
         -6    2    1    2    0  503  0.16194970680E+02 -0.30286072268E+02  0.64156935286E+02  0.18671897186E+03  0.17195446740E+03 0.  0.
        -24    2    3    3    0    0  0.23487088038E+02 -0.70374026669E+02 -0.88111449070E+01  0.10301323854E+03  0.70922098851E+02 0.  0.
          6    2    1    2  501    0 -0.16194970680E+02  0.30286072268E+02  0.44898247392E+01  0.17326466671E+03  0.16976737895E+03 0.  0.
         24    2    5    5    0    0  0.30972937247E+02 -0.14179586761E+02  0.39614384353E+02  0.99387531828E+02  0.84547019538E+02 0.  0.
          5    1    5    5  501    0 -0.47167907927E+02  0.44465659029E+02 -0.35124559614E+02  0.73877134887E+02  0.47000000000E+01 0. -1.
        -11    1    6    6    0    0  0.49018791145E+02 -0.26898444374E+02  0.22149128305E+01  0.55957787964E+02  0.00000000000E+00 0.  1.
         12    1    6    6    0    0 -0.18045853898E+02  0.12718857613E+02  0.37399471522E+02  0.43429743863E+02  0.00000000000E+00 0. -1.
         -5    1    3    3    0  503 -0.72921173580E+01  0.40087954401E+02  0.72968080193E+02  0.83705733320E+02  0.47000000000E+01 0.  1.
         13    1    4    4    0    0  0.84946863558E+01 -0.64849372753E+02  0.21418162800E+02  0.68821061750E+02  0.00000000000E+00 0. -1.
        -14    1    4    4    0    0  0.14992401682E+02 -0.55246539164E+01 -0.30229307707E+02  0.34192176788E+02  0.00000000000E+00 0.  1.
</event>
<event>
12    1  0.8417180E-002  0.1846926E+03  0.7818608E-02  0.1165328E+00
         21   -1    0    0  503  502  0.00000000000E+00  0.00000000000E+00  0.93781250681E+02  0.93781250681E+02  0.00000000000E+00 0.  1.
         21   -1    0    0  501  503 -0.00000000000E+00 -0.00000000000E+00 -0.40796717391E+03  0.40796717391E+03  0.00000000000E+00 0.  1.
          6    2    1    2  501    0  0.16599708182E+01  0.30267892232E+02 -0.25052471747E+03  0.30639204165E+03  0.17376578582E+03 0.  0.
         24    2    3    3    0    0  0.51945028248E+02  0.64558219082E+01 -0.22659935997E+03  0.24564572962E+03  0.79085971862E+02 0.  0.
         -6    2    1    2    0  502 -0.16599708182E+01 -0.30267892232E+02 -0.63661205761E+02  0.19535638294E+03  0.18218799750E+03 0.  0.
        -24    2    5    5    0    0 -0.34615382264E+02 -0.18126549972E+02 -0.10751182716E+03  0.13897874258E+03  0.78927190534E+02 0.  0.
          5    1    3    3  501    0 -0.50285057429E+02  0.23812070324E+02 -0.23925357498E+02  0.60746312030E+02  0.47000000000E+01 0. -1.
        -13    1    4    4    0    0  0.33008263888E+02  0.41728485581E+02 -0.10652256581E+03  0.11907085714E+03  0.00000000000E+00 0.  1.
         14    1    4    4    0    0  0.18936764360E+02 -0.35272663673E+02 -0.12007679416E+03  0.12657487248E+03  0.00000000000E+00 0. -1.
         -5    1    5    5    0  502  0.32955411446E+02 -0.12141342261E+02  0.43850621403E+02  0.56377640363E+02  0.47000000000E+01 0.  1.
         13    1    6    6    0    0 -0.18324600713E+02  0.25134583027E+02 -0.78409682985E+02  0.84354114547E+02  0.00000000000E+00 0. -1.
        -14    1    6    6    0    0 -0.16290781551E+02 -0.43261132998E+02 -0.29102144179E+02  0.54624628032E+02  0.00000000000E+00 0.  1.
</event>
<event>
12    1  0.8417180E-002  0.1781828E+03  0.7818608E-02  0.1169756E+00
         21   -1    0    0  503  502  0.00000000000E+00  0.00000000000E+00  0.12413345997E+03  0.12413345997E+03  0.00000000000E+00 0.  1.
         21   -1    0    0  501  503 -0.00000000000E+00 -0.00000000000E+00 -0.25908781540E+03  0.25908781540E+03  0.00000000000E+00 0.  1.
          6    2    1    2  501    0  0.24684391726E+02  0.32783950327E+02 -0.42675151239E+02  0.18322194110E+03  0.17339263125E+03 0.  0.
         24    2    3    3    0    0  0.60482531457E+02  0.52045682887E+02  0.16322554972E+02  0.11142124132E+03  0.76035370051E+02 0.  0.
         -6    2    1    2    0  502 -0.24684391726E+02 -0.32783950327E+02 -0.92279204197E+02  0.19999933427E+03  0.17262727359E+03 0.  0.
        -24    2    5    5    0    0 -0.25812308787E+02 -0.51871171737E+02 -0.12642684672E+03  0.16058175307E+03  0.80286101579E+02 0.  0.
          5    1    3    3  501    0 -0.35798139731E+02 -0.19261732561E+02 -0.58997706211E+02  0.71800699771E+02  0.47000000000E+01 0. -1.
        -13    1    4    4    0    0 -0.18663708179E+01 -0.58751507113E+01  0.25121147446E+02  0.25866441288E+02  0.00000000000E+00 0.  1.
         14    1    4    4    0    0  0.62348902275E+02  0.57920833599E+02 -0.87985924739E+01  0.85554800036E+02  0.00000000000E+00 0. -1.
         -5    1    5    5    0  502  0.11279170608E+01  0.19087221410E+02  0.34147642519E+02  0.39417581200E+02  0.47000000000E+01 0.  1.
         11    1    6    6    0    0 -0.39757186806E+02  0.39581117498E+01 -0.38403995147E+02  0.55418114318E+02  0.00000000000E+00 0. -1.
        -12    1    6    6    0    0  0.13944878019E+02 -0.55829283487E+02 -0.88022851569E+02  0.10516363875E+03  0.00000000000E+00 0.  1.
</event>
<event>
12    1  0.8417180E-002  0.2451624E+03  0.7818608E-02  0.1116461E+00
         21   -1    0    0  503  502  0.00000000000E+00  0.00000000000E+00  0.33365009278E+03  0.33365009278E+03  0.00000000000E+00 0.  1.
         21   -1    0    0  501  503 -0.00000000000E+00 -0.00000000000E+00 -0.22433257368E+03  0.22433257368E+03  0.00000000000E+00 0. -1.
          6    2    1    2  501    0  0.12034528225E+03  0.12660128791E+03 -0.69582161208E+02  0.25448683168E+03  0.17149634770E+03 0.  0.
         24    2    3    3    0    0  0.62882863920E+02  0.15113796170E+02 -0.81428287133E+02  0.12841617278E+03  0.75348962008E+02 0.  0.
         -6    2    1    2    0  502 -0.12034528225E+03 -0.12660128791E+03  0.17889968031E+03  0.30349583479E+03  0.17202834958E+03 0.  0.
        -24    2    5    5    0    0 -0.12923997504E+03 -0.48027852647E+02  0.85099121022E+02  0.18072150844E+03  0.80054715258E+02 0.  0.
          5    1    3    3  501    0  0.57462418333E+02  0.11148749174E+03  0.11846125925E+02  0.12607065890E+03  0.47000000000E+01 0. -1.
        -13    1    4    4    0    0 -0.42590611276E+01  0.17240358140E+02  0.54686347543E+01  0.18581590798E+02  0.00000000000E+00 0.  1.
         14    1    4    4    0    0  0.67141925047E+02 -0.21265619701E+01 -0.86896921887E+02  0.10983458198E+03  0.00000000000E+00 0. -1.
         -5    1    5    5    0  502  0.88946927871E+01 -0.78573435267E+02  0.93800559284E+02  0.12277432635E+03  0.47000000000E+01 0.  1.
         13    1    6    6    0    0 -0.99605139551E+02 -0.29058140827E+02  0.98503801374E+02  0.14306836918E+03  0.00000000000E+00 0. -1.
        -14    1    6    6    0    0 -0.29634835488E+02 -0.18969711820E+02 -0.13404680352E+02  0.37653139262E+02  0.00000000000E+00 0.  1.
</event>
<event>
12    1  0.8417180E-002  0.2230240E+03  0.7818608E-02  0.1132174E+00
         21   -1    0    0  501  502  0.00000000000E+00  0.00000000000E+00  0.10758317852E+04  0.10758317852E+04  0.00000000000E+00 0. -1.
         21   -1    0    0  502  503 -0.00000000000E+00 -0.00000000000E+00 -0.49400309116E+02  0.49400309116E+02  0.00000000000E+00 0.  1.
         -6    2    1    2    0  503 -0.11211713595E+03  0.78425894511E+02  0.35503502019E+03  0.41776272223E+03  0.17249624175E+03 0.  0.
        -24    2    3    3    0    0 -0.33044541028E+02  0.62833511177E+02  0.30380486612E+03  0.32214778421E+03  0.80260864535E+02 0.  0.
          6    2    1    2  501    0  0.11211713595E+03 -0.78425894511E+02  0.67139645593E+03  0.70746937213E+03  0.17612165784E+03 0.  0.
         24    2    5    5    0    0  0.97438721063E+01 -0.31139599327E+02  0.14859887041E+03  0.17262763452E+03  0.81572410915E+02 0.  0.
          5    1    5    5  501    0  0.10237326384E+03 -0.47286295184E+02  0.52279758552E+03  0.53484173761E+03  0.47000000000E+01 0. -1.
        -13    1    6    6    0    0  0.13329857848E+02 -0.50917029162E+02  0.52102464661E+02  0.74060082316E+02  0.00000000000E+00 0.  1.
         14    1    6    6    0    0 -0.35859857416E+01  0.19777429835E+02  0.96496405749E+02  0.98567552202E+02  0.00000000000E+00 0. -1.
         -5    1    3    3    0  503 -0.79072594921E+02  0.15592383334E+02  0.51230154074E+02  0.95614938017E+02  0.47000000000E+01 0.  1.
         11    1    4    4    0    0  0.93165509005E+01  0.55251764949E+02  0.22987202190E+03  0.23660241356E+03  0.00000000000E+00 0. -1.
        -12    1    4    4    0    0 -0.42361091928E+02  0.75817462275E+01  0.73932844216E+02  0.85545370647E+02  0.00000000000E+00 0.  1.
</event>
<event>
12    1  0.8417180E-002  0.1766058E+03  0.7818608E-02  0.1171305E+00
         21   -1    0    0  501  502  0.00000000000E+00  0.00000000000E+00  0.13724333612E+03  0.13724333612E+03  0.00000000000E+00 0.  1.
         21   -1    0    0  502  503 -0.00000000000E+00 -0.00000000000E+00 -0.22635962786E+03  0.22635962786E+03  0.00000000000E+00 0.  1.
         -6    2    1    2    0  503 -0.40271396345E+02 -0.76362938593E+01 -0.45866459408E+02  0.18246460764E+03  0.17178330127E+03 0.  0.
        -24    2    3    3    0    0  0.80088975654E+00  0.39709887145E+02  0.19955336400E+02  0.91452562585E+02  0.79923958805E+02 0.  0.
          6    2    1    2  501    0  0.40271396345E+02  0.76362938593E+01 -0.43249832328E+02  0.18113835634E+03  0.17105688467E+03 0.  0.
         24    2    5    5    0    0  0.33146204022E+02  0.28004376382E+02  0.34920809736E+02  0.99908026831E+02  0.82941153447E+02 0.  0.
          5    1    5    5  501    0  0.71251923223E+01 -0.20368082523E+02 -0.78170642064E+02  0.81230329508E+02  0.47000000000E+01 0. -1.
        -11    1    6    6    0    0  0.49525460421E+02 -0.10873879873E+02  0.12906374267E+02  0.52321955144E+02  0.00000000000E+00 0.  1.
         12    1    6    6    0    0 -0.16379256399E+02  0.38878256255E+02  0.22014435469E+02  0.47586071687E+02  0.00000000000E+00 0. -1.
         -5    1    3    3    0  503 -0.41072286101E+02 -0.47346181005E+02 -0.65821795807E+02  0.91012045052E+02  0.47000000000E+01 0.  1.
         11    1    4    4    0    0  0.32806137238E+02  0.46111238645E+02  0.11741875194E+02  0.57795852818E+02  0.00000000000E+00 0. -1.
        -12    1    4    4    0    0 -0.32005247481E+02 -0.64013515002E+01  0.82134612064E+01  0.33656709767E+02  0.00000000000E+00 0.  1.
</event>
<event>
12    1  0.8417180E-002  0.1993212E+03  0.7818608E-02  0.1150334E+00
         21   -1    0    0  501  502  0.00000000000E+00  0.00000000000E+00  0.13442949072E+03  0.13442949072E+03  0.00000000000E+00 0.  1.
         21   -1    0    0  502  503 -0.00000000000E+00 -0.00000000000E+00 -0.40934655161E+03  0.40934655161E+03  0.00000000000E+00 0. -1.
         -6    2    1    2    0  503  0.99945756458E+02  0.11895103726E+02 -0.28088783979E+03  0.34436540993E+03  0.17192704641E+03 0.  0.
        -24    2    3    3    0    0  0.49928482997E+02 -0.24499873852E+01 -0.27649763302E+03  0.29193571225E+03  0.79225394700E+02 0.  0.
          6    2    1    2  501    0 -0.99945756458E+02 -0.11895103726E+02  0.59707789027E+01  0.19941063240E+03  0.17204157168E+03 0.  0.
         24    2    5    5    0    0 -0.11498400346E+03 -0.55815697159E+02  0.22585652885E+02  0.14987971843E+03  0.74947349387E+02 0.  0.
          5    1    5    5  501    0  0.15038247004E+02  0.43920593434E+02 -0.16614873982E+02  0.49530913963E+02  0.47000000000E+01 0. -1.
        -11    1    6    6    0    0 -0.12766663319E+02 -0.67934437321E+01  0.33007866028E+02  0.36036894841E+02  0.00000000000E+00 0.  1.
         12    1    6    6    0    0 -0.10221734014E+03 -0.49022253427E+02 -0.10422213143E+02  0.11384282359E+03  0.00000000000E+00 0. -1.
         -5    1    3    3    0  503  0.50017273461E+02  0.14345091111E+02 -0.43902067682E+01  0.52429697681E+02  0.47000000000E+01 0.  1.
         13    1    4    4    0    0  0.37959214176E+02 -0.39320918965E+02 -0.15094478787E+03  0.16053462428E+03  0.00000000000E+00 0. -1.
        -14    1    4    4    0    0  0.11969268821E+02  0.36870931580E+02 -0.12555284515E+03  0.13140108796E+03  0.00000000000E+00 0.  1.
</event>
<event>
12    1  0.8417180E-002  0.2047496E+03  0.7818608E-02  0.1146113E+00
         21   -1    0    0  503  502  0.00000000000E+00  0.00000000000E+00  0.74357401660E+03  0.74357401660E+03  0.00000000000E+00 0.  1.
         21   -1    0    0  501  503 -0.00000000000E+00 -0.00000000000E+00 -0.57732538095E+02  0.57732538095E+02  0.00000000000E+00 0.  1.
          6    2    1    2  501    0 -0.59238307246E+02  0.93394488074E+02  0.41458227737E+03  0.46238604371E+03  0.17230984086E+03 0.  0.
         24    2    3    3    0    0 -0.95376632105E+02  0.10424102144E+03  0.36860636130E+03  0.40272449270E+03  0.79708687918E+02 0.  0.
         -6    2    1    2    0  502  0.59238307246E+02 -0.93394488074E+02  0.27125920113E+03  0.33892051098E+03  0.17045190266E+03 0.  0.
        -24    2    5    5    0    0  0.53412263623E+02 -0.11713170447E+02  0.22505678988E+03  0.24477948252E+03  0.79223532659E+02 0.  0.
          5    1    3    3  501    0  0.36138324859E+02 -0.10846533369E+02  0.45975916074E+02  0.59661551008E+02  0.47000000000E+01 0. -1.
        -13    1    4    4    0    0 -0.26213597328E+02  0.85819711988E+02  0.22604132061E+03  0.24320126290E+03  0.00000000000E+00 0.  1.
         14    1    4    4    0    0 -0.69163034777E+02  0.18421309454E+02  0.14256504069E+03  0.15952322981E+03  0.00000000000E+00 0. -1.
         -5    1    5    5    0  502  0.58260436233E+01 -0.81681317627E+02  0.46202411248E+02  0.94141028456E+02  0.47000000000E+01 0.  1.
         13    1    6    6    0    0  0.48455925540E+02 -0.13555666872E+02  0.54630902909E+02  0.74271585259E+02  0.00000000000E+00 0. -1.
        -14    1    6    6    0    0  0.49563380830E+01  0.18424964256E+01  0.17042588697E+03  0.17050789726E+03  0.00000000000E+00 0.  1.
</event>
<event>
12    1  0.8417180E-002  0.2457917E+03  0.7818608E-02  0.1116017E+00
         21   -1    0    0  501  502  0.00000000000E+00  0.00000000000E+00  0.42744285160E+03  0.42744285160E+03  0.00000000000E+00 0.  1.
         21   -1    0    0  502  503 -0.00000000000E+00 -0.00000000000E+00 -0.30084713483E+03  0.30084713483E+03  0.00000000000E+00 0.  1.
         -6    2    1    2    0  503  0.40854715269E+01 -0.17600784744E+03 -0.20193326012E+03  0.31799147604E+03  0.17130698718E+03 0.  0.
        -24    2    3    3    0    0  0.22307906475E+02 -0.28022472231E+02 -0.38009100521E+02  0.96349989602E+02  0.80967444894E+02 0.  0.
          6    2    1    2  501    0 -0.40854715269E+01  0.17600784744E+03  0.32852897689E+03  0.41029851038E+03  0.17151712895E+03 0.  0.
         24    2    5    5    0    0  0.23979384678E+02  0.19016530818E+03  0.25084628456E+03  0.32636543861E+03  0.82780950208E+02 0.  0.
          5    1    5    5  501    0 -0.28064856205E+02 -0.14157460742E+02  0.77682692335E+02  0.83933071771E+02  0.47000000000E+01 0. -1.
        -13    1    6    6    0    0 -0.28835804205E+02  0.76150057966E+02  0.11939681172E+03  0.14451966503E+03  0.00000000000E+00 0.  1.
         14    1    6    6    0    0  0.52815188883E+02  0.11401525022E+03  0.13144947284E+03  0.18184577358E+03  0.00000000000E+00 0. -1.
         -5    1    3    3    0  503 -0.18222434948E+02 -0.14798537521E+03 -0.16392415960E+03  0.22164148644E+03  0.47000000000E+01 0.  1.
         13    1    4    4    0    0  0.45362960617E+02 -0.13828493821E+02 -0.48014381477E+02  0.67486341329E+02  0.00000000000E+00 0. -1.
        -14    1    4    4    0    0 -0.23055054142E+02 -0.14193978409E+02  0.10005280957E+02  0.28863648273E+02  0.00000000000E+00 0.  1.
</event>
<event>
12    1  0.8417180E-002  0.1893800E+03  0.7818608E-02  0.1159054E+00
         21   -1    0    0  503  502  0.00000000000E+00  0.00000000000E+00  0.81526792511E+02  0.81526792511E+02  0.00000000000E+00 0. -1.
         21   -1    0    0  501  503 -0.00000000000E+00 -0.00000000000E+00 -0.52693657678E+03  0.52693657678E+03  0.00000000000E+00 0. -1.
          6    2    1    2  501    0  0.55455562194E+02 -0.56417913255E+02 -0.98906753561E+02  0.21365232968E+03  0.17206531249E+03 0.  0.
         24    2    3    3    0    0 -0.24643596332E+02 -0.34886230284E+02 -0.89939455463E+02  0.13009402068E+03  0.83731670614E+02 0.  0.
         -6    2    1    2    0  502 -0.55455562194E+02  0.56417913255E+02 -0.34650303070E+03  0.39481103961E+03  0.17191016955E+03 0.  0.
        -24    2    5    5    0    0 -0.62280195372E+02 -0.29932315089E+02 -0.16922188150E+03  0.19744429110E+03  0.74655453168E+02 0.  0.
          5    1    3    3  501    0  0.80099158525E+02 -0.21531682971E+02 -0.89672980978E+01  0.83558309002E+02  0.47000000000E+01 0. -1.
        -11    1    4    4    0    0 -0.39509448259E+02  0.72049447228E+01 -0.15007845857E+02  0.42873571900E+02  0.00000000000E+00 0.  1.
         12    1    4    4    0    0  0.14865851927E+02 -0.42091175007E+02 -0.74931609606E+02  0.87220448778E+02  0.00000000000E+00 0. -1.
         -5    1    5    5    0  502  0.68246331783E+01  0.86350228344E+02 -0.17728114920E+03  0.19736674850E+03  0.47000000000E+01 0.  1.
         13    1    6    6    0    0 -0.39051661531E+02 -0.30068333925E+02 -0.33134888347E+02  0.59389037702E+02  0.00000000000E+00 0. -1.
        -14    1    6    6    0    0 -0.23228533841E+02  0.13601883595E+00 -0.13608699316E+03  0.13805525340E+03  0.00000000000E+00 0.  1.
</event>
<event>
12    1  0.8417180E-002  0.2113778E+03  0.7818608E-02  0.1140583E+00
         21   -1    0    0  503  502  0.00000000000E+00  0.00000000000E+00  0.31196430831E+03  0.31196430831E+03  0.00000000000E+00 0.  1.
         21   -1    0    0  501  503 -0.00000000000E+00 -0.00000000000E+00 -0.16357054030E+03  0.16357054030E+03  0.00000000000E+00 0. -1.
          6    2    1    2  501    0  0.27221905221E+02 -0.11932905981E+03  0.15870623890E+03  0.26390560998E+03  0.17169171230E+03 0.  0.
         24    2    3    3    0    0 -0.12462068128E+02 -0.81460764066E+02  0.17239814078E+03  0.20717480935E+03  0.80057001315E+02 0.  0.
         -6    2    1    2    0  502 -0.27221905221E+02  0.11932905981E+03 -0.10312470890E+02  0.21162923863E+03  0.17233725932E+03 0.  0.
        -24    2    5    5    0    0  0.50994700688E+02  0.66325213173E+02  0.81174963692E+01  0.11524978599E+03  0.78848754103E+02 0.  0.
          5    1    3    3  501    0  0.39683973349E+02 -0.37868295743E+02 -0.13691901877E+02  0.56730800631E+02  0.47000000000E+01 0. -1.
        -11    1    4    4    0    0  0.47872792468E+01 -0.84424968464E+02  0.92267603876E+02  0.12515512002E+03  0.00000000000E+00 0.  1.
         12    1    4    4    0    0 -0.17249347375E+02  0.29642043980E+01  0.80130536903E+02  0.82019689325E+02  0.00000000000E+00 0. -1.
         -5    1    5    5    0  502 -0.78216605909E+02  0.53003846636E+02 -0.18429967260E+02  0.96379452641E+02  0.47000000000E+01 0.  1.
         13    1    6    6    0    0  0.47637015847E+02  0.72897745527E+02  0.30040008781E+02  0.92118232231E+02  0.00000000000E+00 0. -1.
        -14    1    6    6    0    0  0.33576848407E+01 -0.65725323540E+01 -0.21922512412E+02  0.23131553763E+02  0.00000000000E+00 0.  1.
</event>
<event>
12    1  0.8417180E-002  0.2372889E+03  0.7818608E-02  0.1121769E+00
         21   -1    0    0  501  502  0.00000000000E+00  0.00000000000E+00  0.18751872503E+04  0.18751872503E+04  0.00000000000E+00 0.  1.
         21   -1    0    0  502  503 -0.00000000000E+00 -0.00000000000E+00 -0.39111738271E+02  0.39111738271E+02  0.00000000000E+00 0. -1.
         -6    2    1    2    0  503  0.13482753231E+01  0.16248131264E+03  0.45239777940E+03  0.51042218187E+03  0.17165389053E+03 0.  0.
        -24    2    3    3    0    0 -0.50206289718E+02  0.90156106885E+02  0.17517365254E+03  0.21927940749E+03  0.82151414264E+02 0.  0.
          6    2    1    2  501    0 -0.13482753231E+01 -0.16248131264E+03  0.13836777326E+04  0.14038768067E+04  0.17292780525E+03 0.  0.
         24    2    5    5    0    0  0.47111078224E+02 -0.80290274119E+02  0.10415717026E+04  0.10486834769E+04  0.78736530582E+02 0.  0.
          5    1    5    5  501    0 -0.48459353547E+02 -0.82191038517E+02  0.34210603005E+03  0.35519332983E+03  0.47000000000E+01 0. -1.
        -13    1    6    6    0    0  0.59969537394E+02 -0.88325486809E+02  0.91346934911E+03  0.91968689716E+03  0.00000000000E+00 0.  1.
         14    1    6    6    0    0 -0.12858459169E+02  0.80352126900E+01  0.12810235346E+03  0.12899657971E+03  0.00000000000E+00 0. -1.
         -5    1    3    3    0  503  0.51554565042E+02  0.72325205752E+02  0.27722412686E+03  0.29114277439E+03  0.47000000000E+01 0.  1.
         13    1    4    4    0    0 -0.40536716220E+02  0.36863280816E+01  0.32152356922E+02  0.51870882316E+02  0.00000000000E+00 0. -1.
        -14    1    4    4    0    0 -0.96695734986E+01  0.86469778803E+02  0.14302129562E+03  0.16740852517E+03  0.00000000000E+00 0.  1.
</event>
<event>
12    1  0.8417180E-002  0.2032105E+03  0.7818608E-02  0.1147261E+00
         21   -1    0    0  503  502  0.00000000000E+00  0.00000000000E+00  0.92175117130E+03  0.92175117130E+03  0.00000000000E+00 0.  1.
         21   -1    0    0  501  503 -0.00000000000E+00 -0.00000000000E+00 -0.44619481282E+02  0.44619481282E+02  0.00000000000E+00 0. -1.
          6    2    1    2  501    0  0.84819086421E+01 -0.10725336664E+03  0.42400448964E+03  0.46976338016E+03  0.17123842638E+03 0.  0.
         24    2    3    3    0    0 -0.42122746188E+02 -0.83304475689E+02  0.37635175873E+03  0.39609348650E+03  0.80842082676E+02 0.  0.
         -6    2    1    2    0  502 -0.84819086421E+01  0.10725336664E+03  0.45312720038E+03  0.49660727242E+03  0.17239285331E+03 0.  0.
        -24    2    5    5    0    0  0.58606109635E+02  0.62343040802E+02  0.21189349255E+03  0.24217942145E+03  0.80191577878E+02 0.  0.
          5    1    3    3  501    0  0.50604654830E+02 -0.23948890953E+02  0.47652730913E+02  0.73669893660E+02  0.47000000000E+01 0. -1.
        -11    1    4    4    0    0 -0.22232597446E+02 -0.86459719128E+02  0.20542444764E+03  0.22398387243E+03  0.00000000000E+00 0.  1.
         12    1    4    4    0    0 -0.19890148742E+02  0.31552434394E+01  0.17092731109E+03  0.17210961407E+03  0.00000000000E+00 0. -1.
         -5    1    5    5    0  502 -0.67088018277E+02  0.44910325839E+02  0.24123370782E+03  0.25442785098E+03  0.47000000000E+01 0.  1.
         11    1    6    6    0    0  0.44076672399E+02 -0.60123012863E+01  0.57434005668E+02  0.72646856943E+02  0.00000000000E+00 0. -1.
        -12    1    6    6    0    0  0.14529437236E+02  0.68355342088E+02  0.15445948689E+03  0.16953256450E+03  0.00000000000E+00 0.  1.
</event>
<event>
12    1  0.8417180E-002  0.2138911E+03  0.7818608E-02  0.1139429E+00
         21   -1    0    0  503  502  0.00000000000E+00  0.00000000000E+00  0.11216435143E+03  0.11216435143E+03  0.00000000000E+00 0.  1.
         21   -1    0    0  501  503 -0.00000000000E+00 -0.00000000000E+00 -0.44680702608E+03  0.44680702608E+03  0.00000000000E+00 0.  1.
          6    2    1    2  501    0 -0.82416862659E+02 -0.92698080901E+02 -0.26030830270E+03  0.33691218280E+03  0.17425249786E+03 0.  0.
         24    2    3    3    0    0 -0.89195803668E+01 -0.76889169943E+02 -0.69139264243E+02  0.13143842916E+03  0.80649361015E+02 0.  0.
         -6    2    1    2    0  502  0.82416862659E+02  0.92698080901E+02 -0.74334371955E+02  0.22205919471E+03  0.16852066237E+03 0.  0.
        -24    2    5    5    0    0 -0.21730835982E+01  0.32516165625E+02 -0.77210586867E+02  0.11809918054E+03  0.83210085926E+02 0.  0.
          5    1    3    3  501    0 -0.73497282293E+02 -0.15808910958E+02 -0.19116903846E+03  0.20547375364E+03  0.47000000000E+01 0. -1.
        -11    1    4    4    0    0 -0.11272601519E+02 -0.93490451345E+02 -0.64159888535E+02  0.11394747621E+03  0.00000000000E+00 0.  1.
         12    1    4    4    0    0  0.23530211518E+01  0.16601281402E+02 -0.49793757084E+01  0.17490952952E+02  0.00000000000E+00 0. -1.
         -5    1    5    5    0  502  0.84589946258E+02  0.60181915276E+02  0.28762149129E+01  0.10396001417E+03  0.47000000000E+01 0.  1.
         11    1    6    6    0    0 -0.40005505720E+02  0.68073344375E+01 -0.21200194165E+02  0.45784588266E+02  0.00000000000E+00 0. -1.
        -12    1    6    6    0    0  0.37832422122E+02  0.25708831188E+02 -0.56010392703E+02  0.72314592271E+02  0.00000000000E+00 0.  1.
</event>
<event>
12    1  0.8417180E-002  0.2124777E+03  0.7818608E-02  0.1140225E+00
         21   -1    0    0  501  502  0.00000000000E+00  0.00000000000E+00  0.49870833169E+03  0.49870833169E+03  0.00000000000E+00 0. -1.
         21   -1    0    0  502  503 -0.00000000000E+00 -0.00000000000E+00 -0.15542410116E+03  0.15542410116E+03  0.00000000000E+00 0. -1.
         -6    2    1    2    0  503 -0.80853964295E+02 -0.89246324373E+02 -0.42538944600E+02  0.21367095994E+03  0.17129929176E+03 0.  0.
        -24    2    3    3    0    0 -0.64439218270E+02 -0.33816641303E+02 -0.88103857683E+02  0.13991362161E+03  0.80731367471E+02 0.  0.
          6    2    1    2  501    0  0.80853964295E+02  0.89246324373E+02  0.38582317513E+03  0.44046147291E+03  0.17505575312E+03 0.  0.
         24    2    5    5    0    0  0.12133859047E+03  0.66113078027E+02  0.24886229906E+03  0.29570469892E+03  0.80092649166E+02 0.  0.
          5    1    5    5  501    0 -0.40484626170E+02  0.23133246346E+02  0.13696087607E+03  0.14475677399E+03  0.47000000000E+01 0. -1.
        -13    1    6    6    0    0  0.63643079252E+02  0.69278596737E+02  0.19592255878E+03  0.21733755897E+03  0.00000000000E+00 0.  1.
         14    1    6    6    0    0  0.57695511214E+02 -0.31655187105E+01  0.52939740280E+02  0.78367139949E+02  0.00000000000E+00 0. -1.
         -5    1    3    3    0  503 -0.16414746026E+02 -0.55429683070E+02  0.45564913083E+02  0.73757338324E+02  0.47000000000E+01 0.  1.
         13    1    4    4    0    0 -0.64055596612E+01  0.15168165836E+02 -0.54381762244E+02  0.56819719413E+02  0.00000000000E+00 0. -1.
        -14    1    4    4    0    0 -0.58033658609E+02 -0.48984807139E+02 -0.33722095439E+02  0.83093902199E+02  0.00000000000E+00 0.  1.
</event>
<event>
12    1  0.8417180E-002  0.1939832E+03  0.7818608E-02  0.1155165E+00
         21   -1    0    0  501  502  0.00000000000E+00  0.00000000000E+00  0.51894105873E+03  0.51894105873E+03  0.00000000000E+00 0. -1.
         21   -1    0    0  502  503 -0.00000000000E+00 -0.00000000000E+00 -0.81519263640E+02  0.81519263640E+02  0.00000000000E+00 0. -1.
         -6    2    1    2    0  503  0.56640281824E+02  0.68033345715E+02  0.11604787664E+03  0.22507960548E+03  0.17133902496E+03 0.  0.
        -24    2    3    3    0    0 -0.21492528820E+02  0.72503841769E+02  0.95147116692E+02  0.14393989140E+03  0.77116682079E+02 0.  0.
          6    2    1    2  501    0 -0.56640281824E+02 -0.68033345715E+02  0.32137391845E+03  0.37538071689E+03  0.17260599498E+03 0.  0.
         24    2    5    5    0    0 -0.34999134679E+02 -0.31199656210E+02  0.51133617358E+02  0.10174415087E+03  0.74423567745E+02 0.  0.
          5    1    5    5  501    0 -0.21641147144E+02 -0.36833689504E+02  0.27024030109E+03  0.27363656602E+03  0.47000000000E+01 0. -1.
        -13    1    6    6    0    0  0.18097094138E+02  0.42604876375E+01  0.28449522788E+02  0.33985760518E+02  0.00000000000E+00 0.  1.
         14    1    6    6    0    0 -0.53096228817E+02 -0.35460143848E+02  0.22684094570E+02  0.67758390350E+02  0.00000000000E+00 0. -1.
         -5    1    3    3    0  503  0.78132810644E+02 -0.44704960542E+01  0.20900759948E+02  0.81139714077E+02  0.47000000000E+01 0.  1.
         11    1    4    4    0    0 -0.15522353081E+02  0.35248975589E+02 -0.31562698219E+01  0.38644479094E+02  0.00000000000E+00 0. -1.
        -12    1    4    4    0    0 -0.59701757390E+01  0.37254866180E+02  0.98303386514E+02  0.10529541231E+03  0.00000000000E+00 0.  1.
</event>
<event>
12    1  0.8417180E-002  0.2170540E+03  0.7818608E-02  0.1136278E+00
         21   -1    0    0  501  502  0.00000000000E+00  0.00000000000E+00  0.39178801308E+02  0.39178801308E+02  0.00000000000E+00 0. -1.
         21   -1    0    0  502  503 -0.00000000000E+00 -0.00000000000E+00 -0.18862311941E+04  0.18862311941E+04  0.00000000000E+00 0.  1.
         -6    2    1    2    0  503 -0.12121921546E+03  0.53062959626E+02 -0.15066263919E+04  0.15221811679E+04  0.17205419835E+03 0.  0.
        -24    2    3    3    0    0 -0.13913904220E+03 -0.12917837814E+00 -0.11473170753E+04  0.11584837679E+04  0.79927964479E+02 0.  0.
          6    2    1    2  501    0  0.12121921546E+03 -0.53062959626E+02 -0.34042600089E+03  0.40322882754E+03  0.17086207711E+03 0.  0.
         24    2    5    5    0    0 -0.81813879020E+01 -0.18388573544E+02 -0.12420752109E+03  0.14882884678E+03  0.79482341400E+02 0.  0.
          5    1    5    5  501    0  0.12940060336E+03 -0.34674386082E+02 -0.21621847981E+03  0.25439998076E+03  0.47000000000E+01 0. -1.
        -11    1    6    6    0    0 -0.15111518826E+02 -0.25307172462E+02 -0.58295585121E+01  0.30046542757E+02  0.00000000000E+00 0.  1.
         12    1    6    6    0    0  0.69301309242E+01  0.69185989173E+01 -0.11837796257E+03  0.11878230402E+03  0.00000000000E+00 0. -1.
         -5    1    3    3    0  503  0.17919826745E+02  0.53192138005E+02 -0.35930931667E+03  0.36369740002E+03  0.47000000000E+01 0.  1.
         13    1    4    4    0    0 -0.32829213979E+02 -0.34987759685E+02 -0.29996614193E+03  0.30377884541E+03  0.00000000000E+00 0. -1.
        -14    1    4    4    0    0 -0.10630982822E+03  0.34858581307E+02 -0.84735093334E+03  0.85470492247E+03  0.00000000000E+00 0.  1.
</event>
<event>
12    1  0.8417180E-002  0.1842271E+03  0.7818608E-02  0.1167677E+00
         21   -1    0    0  501  502  0.00000000000E+00  0.00000000000E+00  0.26711603905E+03  0.26711603905E+03  0.00000000000E+00 0.  1.
         21   -1    0    0  502  503 -0.00000000000E+00 -0.00000000000E+00 -0.12324237233E+03  0.12324237233E+03  0.00000000000E+00 0.  1.
         -6    2    1    2    0  503  0.36695254152E+02 -0.39832784306E+02  0.11495130597E+03  0.20387484280E+03  0.15943009879E+03 0.  0.
        -24    2    3    3    0    0  0.48409540499E+02  0.26679241058E+02  0.87503342348E+02  0.13082311640E+03  0.80016169290E+02 0.  0.
          6    2    1    2  501    0 -0.36695254152E+02  0.39832784306E+02  0.28922360755E+02  0.18648356859E+03  0.17608641634E+03 0.  0.
         24    2    5    5    0    0 -0.92038151845E+02  0.26106867561E+02  0.19157309202E+02  0.12844320894E+03  0.83534816088E+02 0.  0.
          5    1    5    5  501    0  0.55342897693E+02  0.13725916745E+02  0.97650515526E+01  0.58040359642E+02  0.47000000000E+01 0. -1.
        -13    1    6    6    0    0 -0.15419658375E+02  0.45418225888E+02  0.59427877375E+01  0.48331126960E+02  0.00000000000E+00 0.  1.
         14    1    6    6    0    0 -0.76618493471E+02 -0.19311358326E+02  0.13214521465E+02  0.80112081983E+02  0.00000000000E+00 0. -1.
         -5    1    3    3    0  503 -0.11714286347E+02 -0.66512025364E+02  0.27447963620E+02  0.73051726397E+02  0.47000000000E+01 0.  1.
         13    1    4    4    0    0  0.60342175458E+01  0.13737985859E+01 -0.15453808307E+02  0.16646900466E+02  0.00000000000E+00 0. -1.
        -14    1    4    4    0    0  0.42375322954E+02  0.25305442472E+02  0.10295715065E+03  0.11417621593E+03  0.00000000000E+00 0.  1.
</event>
<event>
12    1  0.8417180E-002  0.2783793E+03  0.7818608E-02  0.1096755E+00
         21   -1    0    0  501  502  0.00000000000E+00  0.00000000000E+00  0.18017457612E+03  0.18017457612E+03  0.00000000000E+00 0.  1.
         21   -1    0    0  502  503 -0.00000000000E+00 -0.00000000000E+00 -0.44147515853E+03  0.44147515853E+03  0.00000000000E+00 0.  1.
         -6    2    1    2    0  503 -0.59824403356E+02  0.20620924569E+03 -0.18500400154E+03  0.33424766321E+03  0.17718297754E+03 0.  0.
        -24    2    3    3    0    0 -0.19391489935E+02  0.19950422977E+02 -0.34308032327E+02  0.91228045353E+02  0.79821462765E+02 0.  0.
          6    2    1    2  501    0  0.59824403356E+02 -0.20620924569E+03 -0.76296580867E+02  0.28740207144E+03  0.17515013608E+03 0.  0.
         24    2    5    5    0    0  0.62823247407E+02 -0.14095114837E+03 -0.11801792411E+03  0.20974659633E+03  0.79065906806E+02 0.  0.
          5    1    5    5  501    0 -0.29988440509E+01 -0.65258097323E+02  0.41721343247E+02  0.77655475108E+02  0.47000000000E+01 0. -1.
        -13    1    6    6    0    0  0.43792825910E+02 -0.10641189650E+03 -0.39113886183E+02  0.12153682327E+03  0.00000000000E+00 0.  1.
         14    1    6    6    0    0  0.19030421498E+02 -0.34539251872E+02 -0.78904037932E+02  0.88209773065E+02  0.00000000000E+00 0. -1.
         -5    1    3    3    0  503 -0.40432913421E+02  0.18625882272E+03 -0.15069596921E+03  0.24301961786E+03  0.47000000000E+01 0.  1.
         11    1    4    4    0    0 -0.26830032233E+02 -0.20121959972E+02 -0.37545283600E+02  0.50342747475E+02  0.00000000000E+00 0. -1.
        -12    1    4    4    0    0  0.74385422975E+01  0.40072382950E+02  0.32372512726E+01  0.40885297878E+02  0.00000000000E+00 0.  1.
</event>
<event>
12    1  0.8417180E-002  0.1740168E+03  0.7818608E-02  0.1173823E+00
         21   -1    0    0  501  502  0.00000000000E+00  0.00000000000E+00  0.47225514278E+03  0.47225514278E+03  0.00000000000E+00 0.  1.
         21   -1    0    0  502  503 -0.00000000000E+00 -0.00000000000E+00 -0.12279485574E+03  0.12279485574E+03  0.00000000000E+00 0.  1.
         -6    2    1    2    0  503  0.22161030324E+02  0.16561172823E+02 -0.31292181242E+02  0.17641616715E+03  0.17140034923E+03 0.  0.
        -24    2    3    3    0    0  0.37845512802E+02  0.53559215756E+02  0.26425344847E+02  0.10593027502E+03  0.78879984056E+02 0.  0.
          6    2    1    2  501    0 -0.22161030324E+02 -0.16561172823E+02  0.38075246829E+03  0.41863383137E+03  0.17180354754E+03 0.  0.
         24    2    5    5    0    0  0.34273811856E+02  0.50082617788E+01  0.10893992261E+03  0.14014813710E+03  0.81079077017E+02 0.  0.
          5    1    5    5  501    0 -0.56434842181E+02 -0.21569434602E+02  0.27181254568E+03  0.27848569427E+03  0.47000000000E+01 0. -1.
        -13    1    6    6    0    0  0.27596399586E+02 -0.27406763368E+02  0.97764071661E+02  0.10521647046E+03  0.00000000000E+00 0.  1.
         14    1    6    6    0    0  0.66774122704E+01  0.32415025146E+02  0.11175850945E+02  0.34931666639E+02  0.00000000000E+00 0. -1.
         -5    1    3    3    0  503 -0.15684482477E+02 -0.36998042933E+02 -0.57717526090E+02  0.70485892130E+02  0.47000000000E+01 0.  1.
         11    1    4    4    0    0 -0.16780619136E+02  0.11690242857E+02  0.30793136940E+02  0.36965771184E+02  0.00000000000E+00 0. -1.
        -12    1    4    4    0    0  0.54626131938E+02  0.41868972899E+02 -0.43677920924E+01  0.68964503840E+02  0.00000000000E+00 0.  1.
</event>
<event>
12    1  0.8417180E-002  0.2396962E+03  0.7818608E-02  0.1120037E+00
         21   -1    0    0  501  502  0.00000000000E+00  0.00000000000E+00  0.32011043383E+03  0.32011043383E+03  0.00000000000E+00 0.  1.
         21   -1    0    0  502  503 -0.00000000000E+00 -0.00000000000E+00 -0.17958189823E+03  0.17958189823E+03  0.00000000000E+00 0. -1.
         -6    2    1    2    0  503  0.73154144625E+02 -0.15133853398E+03  0.80204993273E+02  0.25252192595E+03  0.17052742124E+03 0.  0.
        -24    2    3    3    0    0  0.15868708921E+02 -0.15162766519E+03  0.89996470881E+02  0.19421525588E+03  0.79858850938E+02 0.  0.
          6    2    1    2  501    0 -0.73154144625E+02  0.15133853398E+03  0.60323542324E+02  0.24717040611E+03  0.17087831681E+03 0.  0.
         24    2    5    5    0    0 -0.35067175500E+02  0.15589411896E+02  0.60822266550E+02  0.10610028139E+03  0.78007596048E+02 0.  0.
          5    1    5    5  501    0 -0.38086969125E+02  0.13574912208E+03 -0.49872422599E+00  0.14107012472E+03  0.47000000000E+01 0. -1.
        -11    1    6    6    0    0 -0.41297093601E+02  0.20804730225E+02  0.15435505642E+01  0.46267367420E+02  0.00000000000E+00 0.  1.
         12    1    6    6    0    0  0.62299181014E+01 -0.52153183286E+01  0.59278715985E+02  0.59832913966E+02  0.00000000000E+00 0. -1.
         -5    1    3    3    0  503  0.57285435704E+02  0.28913120670E+00 -0.97914776082E+01  0.58306670067E+02  0.47000000000E+01 0.  1.
         11    1    4    4    0    0 -0.27491617616E+02 -0.53428660114E+02  0.11367371469E+02  0.61152497045E+02  0.00000000000E+00 0. -1.
        -12    1    4    4    0    0  0.43360326538E+02 -0.98199005074E+02  0.78629099412E+02  0.13306275884E+03  0.00000000000E+00 0.  1.
</event>
<event>
12    1  0.8417180E-002  0.3133823E+03  0.7818608E-02  0.1079623E+00
         21   -1    0    0  503  502  0.00000000000E+00  0.00000000000E+00  0.25355719500E+03  0.25355719500E+03  0.00000000000E+00 0. -1.
         21   -1    0    0  501  503 -0.00000000000E+00 -0.00000000000E+00 -0.87743165972E+03  0.87743165972E+03  0.00000000000E+00 0. -1.
          6    2    1    2  501    0 -0.25263611988E+03  0.14022816892E+02 -0.73686086941E+03  0.79786062977E+03  0.17203486624E+03 0.  0.
         24    2    3    3    0    0 -0.12462639669E+03  0.50499620434E+02 -0.26421506143E+03  0.30680747966E+03  0.78989116170E+02 0.  0.
         -6    2    1    2    0  502  0.25263611988E+03 -0.14022816892E+02  0.11298640469E+03  0.33312822495E+03  0.18489683110E+03 0.  0.
        -24    2    5    5    0    0  0.22996098377E+03  0.22916050007E+02  0.14004103972E+03  0.28181852838E+03  0.80018689844E+02 0.  0.
          5    1    3    3  501    0 -0.12800972319E+03 -0.36476803542E+02 -0.47264580798E+03  0.49105315011E+03  0.47000000000E+01 0. -1.
        -11    1    4    4    0    0  0.71088645636E+01 -0.70626420882E+01 -0.72756224705E+01  0.12383519329E+02  0.00000000000E+00 0.  1.
         12    1    4    4    0    0 -0.13173526125E+03  0.57562262523E+02 -0.25693943896E+03  0.29442396033E+03  0.00000000000E+00 0. -1.
         -5    1    5    5    0  502  0.22675136109E+02 -0.36938866899E+02 -0.27054635032E+02  0.51309696570E+02  0.47000000000E+01 0.  1.
         11    1    6    6    0    0  0.12922023261E+03 -0.26264758897E+02  0.85447596807E+02  0.15712733014E+03  0.00000000000E+00 0. -1.
        -12    1    6    6    0    0  0.10074075116E+03  0.49180808904E+02  0.54593442917E+02  0.12469119824E+03  0.00000000000E+00 0.  1.
</event>
<event>
12    1  0.8417180E-002  0.1826694E+03  0.7818608E-02  0.1166488E+00
         21   -1    0    0  503  502  0.00000000000E+00  0.00000000000E+00  0.91153327846E+03  0.91153327846E+03  0.00000000000E+00 0. -1.
         21   -1    0    0  501  503 -0.00000000000E+00 -0.00000000000E+00 -0.43654739948E+02  0.43654739948E+02  0.00000000000E+00 0. -1.
          6    2    1    2  501    0 -0.60998976210E+01  0.41078633072E+02  0.23361643447E+03  0.29655479918E+03  0.17788605234E+03 0.  0.
         24    2    3    3    0    0  0.56071612871E+02  0.66615135674E+02  0.16768500045E+03  0.20228681059E+03  0.72250206159E+02 0.  0.
         -6    2    1    2    0  502  0.60998976210E+01 -0.41078633072E+02  0.63426210404E+03  0.65863321923E+03  0.17258226444E+03 0.  0.
        -24    2    5    5    0    0 -0.75953102773E+01  0.29816466631E+02  0.49167611075E+03  0.49873784917E+03  0.77764605668E+02 0.  0.
          5    1    3    3  501    0 -0.62171510492E+02 -0.25536502602E+02  0.65931434011E+02  0.94267988590E+02  0.47000000000E+01 0. -1.
        -13    1    4    4    0    0  0.39220040130E+02 -0.34937587345E+01  0.43403869537E+02  0.58603018597E+02  0.00000000000E+00 0.  1.
         14    1    4    4    0    0  0.16851572741E+02  0.70108894408E+02  0.12428113092E+03  0.14368379199E+03  0.00000000000E+00 0. -1.
         -5    1    5    5    0  502  0.13695207898E+02 -0.70895099703E+02  0.14258599329E+03  0.15989537005E+03  0.47000000000E+01 0.  1.
         11    1    6    6    0    0 -0.10634128946E+02 -0.20448210383E+02  0.28831736309E+03  0.28923712740E+03  0.00000000000E+00 0. -1.
        -12    1    6    6    0    0  0.30388186686E+01  0.50264677014E+02  0.20335874766E+03  0.20950072178E+03  0.00000000000E+00 0.  1.
</event>
<event>
12    1  0.8417180E-002  0.2528598E+03  0.7818608E-02  0.1111828E+00
         21   -1    0    0  501  502  0.00000000000E+00  0.00000000000E+00  0.21243482854E+03  0.21243482854E+03  0.00000000000E+00 0. -1.
         21   -1    0    0  502  503 -0.00000000000E+00 -0.00000000000E+00 -0.54320545904E+03  0.54320545904E+03  0.00000000000E+00 0. -1.
         -6    2    1    2    0  503  0.96412449493E+02 -0.15411737190E+03 -0.41929917431E+03  0.48964257533E+03  0.17575701767E+03 0.  0.
        -24    2    3    3    0    0  0.45255998598E+02 -0.24782613988E+01 -0.17627428572E+03  0.19861922785E+03  0.79515575070E+02 0.  0.
          6    2    1    2  501    0 -0.96412449493E+02  0.15411737190E+03  0.88528543814E+02  0.26599771226E+03  0.17282926581E+03 0.  0.
         24    2    5    5    0    0 -0.37699228889E+02  0.13308918198E+03  0.12675138461E+01  0.15863848165E+03  0.77656931757E+02 0.  0.
          5    1    5    5  501    0 -0.58713220604E+02  0.21028189911E+02  0.87261029968E+02  0.10735923060E+03  0.47000000000E+01 0. -1.
        -11    1    6    6    0    0  0.86810511520E+01  0.37627187089E+02  0.29754483188E+02  0.48749308991E+02  0.00000000000E+00 0.  1.
         12    1    6    6    0    0 -0.46380280041E+02  0.95461994896E+02 -0.28486969342E+02  0.10988917266E+03  0.00000000000E+00 0. -1.
         -5    1    3    3    0  503  0.51156450895E+02 -0.15163911050E+03 -0.24302488859E+03  0.29102334748E+03  0.47000000000E+01 0.  1.
         13    1    4    4    0    0 -0.78547331481E+01 -0.24716918242E+02 -0.22204321802E+02  0.34141686937E+02  0.00000000000E+00 0. -1.
        -14    1    4    4    0    0  0.53110731746E+02  0.22238656843E+02 -0.15406996392E+03  0.16447754092E+03  0.00000000000E+00 0.  1.
</event>
<event>
12    1  0.8417180E-002  0.2208786E+03  0.7818608E-02  0.1133853E+00
         21   -1    0    0  501  502  0.00000000000E+00  0.00000000000E+00  0.28068399827E+03  0.28068399827E+03  0.00000000000E+00 0. -1.
         21   -1    0    0  502  503 -0.00000000000E+00 -0.00000000000E+00 -0.25268932730E+03  0.25268932730E+03  0.00000000000E+00 0. -1.
         -6    2    1    2    0  503 -0.13265483180E+03 -0.23046188193E+02 -0.13737325118E+03  0.26011301607E+03  0.17509694401E+03 0.  0.
        -24    2    3    3    0    0 -0.16537612131E+03 -0.53500329200E+01 -0.12315783477E+03  0.22001308138E+03  0.76550763312E+02 0.  0.
          6    2    1    2  501    0  0.13265483180E+03  0.23046188193E+02  0.16536792214E+03  0.27326030950E+03  0.17086900211E+03 0.  0.
         24    2    5    5    0    0  0.16337869352E+03  0.70624743150E+01  0.14780610182E+03  0.23414583236E+03  0.78962972575E+02 0.  0.
          5    1    5    5  501    0 -0.30723861723E+02  0.15983713878E+02  0.17561820327E+02  0.39114477137E+02  0.47000000000E+01 0. -1.
        -11    1    6    6    0    0  0.17917038637E+02  0.17347892200E+02 -0.20812454754E+01  0.25026010869E+02  0.00000000000E+00 0.  1.
         12    1    6    6    0    0  0.14546165488E+03 -0.10285417885E+02  0.14988734729E+03  0.20911982149E+03  0.00000000000E+00 0. -1.
         -5    1    3    3    0  503  0.32721289509E+02 -0.17696155273E+02 -0.14215416403E+02  0.40099934689E+02  0.47000000000E+01 0.  1.
         11    1    4    4    0    0 -0.79330134200E+02  0.11302240589E+02 -0.10225588338E+03  0.12991257261E+03  0.00000000000E+00 0. -1.
        -12    1    4    4    0    0 -0.86045987106E+02 -0.16652273509E+02 -0.20901951388E+02  0.90100508777E+02  0.00000000000E+00 0.  1.
</event>
<event>
12    1  0.8417180E-002  0.2522695E+03  0.7818608E-02  0.1111920E+00
         21   -1    0    0  503  502  0.00000000000E+00  0.00000000000E+00  0.27711526022E+03  0.27711526022E+03  0.00000000000E+00 0.  1.
         21   -1    0    0  501  503 -0.00000000000E+00 -0.00000000000E+00 -0.23039700417E+03  0.23039700417E+03  0.00000000000E+00 0.  1.
          6    2    1    2  501    0 -0.81988161051E+02 -0.16542165058E+03  0.39982938083E+02  0.25541831537E+03  0.17191131277E+03 0.  0.
         24    2    3    3    0    0 -0.10498988563E+02 -0.23658760873E+02 -0.20326263955E+02  0.85516259672E+02  0.78929765836E+02 0.  0.
         -6    2    1    2    0  502  0.81988161051E+02  0.16542165058E+03  0.67353179680E+01  0.25209394902E+03  0.17152146685E+03 0.  0.
        -24    2    5    5    0    0 -0.13025344761E+02  0.12483963912E+03  0.82540806977E+01  0.14865864276E+03  0.79225419636E+02 0.  0.
          5    1    3    3  501    0 -0.71489172488E+02 -0.14176288970E+03  0.60309202038E+02  0.16990205570E+03  0.47000000000E+01 0. -1.
        -13    1    4    4    0    0 -0.24250808103E+02  0.14720464395E+02  0.14534366840E+02  0.31875407215E+02  0.00000000000E+00 0.  1.
         14    1    4    4    0    0  0.13751819541E+02 -0.38379225269E+02 -0.34860630794E+02  0.53640852457E+02  0.00000000000E+00 0. -1.
         -5    1    5    5    0  502  0.95013505812E+02  0.40582011455E+02 -0.15187627297E+01  0.10343530626E+03  0.47000000000E+01 0.  1.
         13    1    6    6    0    0 -0.26329474055E+02  0.41374119487E+01 -0.23917210360E+01  0.26759665752E+02  0.00000000000E+00 0. -1.
        -14    1    6    6    0    0  0.13304129293E+02  0.12070222717E+03  0.10645801734E+02  0.12189897701E+03  0.00000000000E+00 0.  1.
</event>
<event>
12    1  0.8417180E-002  0.1765230E+03  0.7818608E-02  0.1171264E+00
         21   -1    0    0  503  502  0.00000000000E+00  0.00000000000E+00  0.46681818345E+03  0.46681818345E+03  0.00000000000E+00 0. -1.
         21   -1    0    0  501  503 -0.00000000000E+00 -0.00000000000E+00 -0.23519218422E+03  0.23519218422E+03  0.00000000000E+00 0. -1.
          6    2    1    2  501    0 -0.28974464472E+01 -0.38125944695E+02 -0.18132562423E+03  0.25291191171E+03  0.17211470079E+03 0.  0.
         24    2    3    3    0    0  0.51772409145E+02  0.15087283797E+02 -0.69844580913E+02  0.11774329917E+03  0.77956465648E+02 0.  0.
         -6    2    1    2    0  502  0.28974464472E+01  0.38125944695E+02  0.41295162345E+03  0.44909845596E+03  0.17233222850E+03 0.  0.
        -24    2    5    5    0    0  0.27654269668E+02  0.50654265919E+02  0.12372345966E+03  0.15850444387E+03  0.80532918557E+02 0.  0.
          5    1    3    3  501    0 -0.54669855592E+02 -0.53213228493E+02 -0.11148104332E+03  0.13516861254E+03  0.47000000000E+01 0. -1.
        -13    1    4    4    0    0  0.16750593269E+02  0.26223898457E+02  0.75910440797E+01  0.32029660869E+02  0.00000000000E+00 0.  1.
         14    1    4    4    0    0  0.35021815875E+02 -0.11136614660E+02 -0.77435624993E+02  0.85713638304E+02  0.00000000000E+00 0. -1.
         -5    1    5    5    0  502 -0.24756823221E+02 -0.12528321224E+02  0.28922816380E+03  0.29059401209E+03  0.47000000000E+01 0.  1.
         13    1    6    6    0    0  0.20441875597E+02 -0.18182016317E+02  0.52441401873E+02  0.59148597833E+02  0.00000000000E+00 0. -1.
        -14    1    6    6    0    0  0.72123940706E+01  0.68836282236E+02  0.71282057785E+02  0.99355846040E+02  0.00000000000E+00 0.  1.
</event>
<event>
12    1  0.8417180E-002  0.1879808E+03  0.7818608E-02  0.1160692E+00
         21   -1    0    0  501  502  0.00000000000E+00  0.00000000000E+00  0.90654882482E+03  0.90654882482E+03  0.00000000000E+00 0.  1.
         21   -1    0    0  502  503 -0.00000000000E+00 -0.00000000000E+00 -0.47642920243E+02  0.47642920243E+02  0.00000000000E+00 0.  1.
         -6    2    1    2    0  503 -0.38769358606E+02 -0.61716903649E+02  0.22346093512E+03  0.29201297818E+03  0.17327651468E+03 0.  0.
        -24    2    3    3    0    0  0.30277806320E+02 -0.53646397252E+02  0.18072526156E+03  0.21027515430E+03  0.88087109483E+02 0.  0.
          6    2    1    2  501    0  0.38769358606E+02  0.61716903649E+02  0.63544496946E+03  0.66217876689E+03  0.17140119818E+03 0.  0.
         24    2    5    5    0    0  0.33536055597E+02  0.74468755424E+02  0.63593878227E+03  0.64760718375E+03  0.91140918805E+02 0.  0.
          5    1    5    5  501    0  0.52333030085E+01 -0.12751851775E+02 -0.49381281376E+00  0.14571583139E+02  0.47000000000E+01 0. -1.
        -13    1    6    6    0    0 -0.46486445557E+01  0.72482763288E+02  0.26734840116E+03  0.27703885734E+03  0.00000000000E+00 0.  1.
         14    1    6    6    0    0  0.38184700153E+02  0.19859921356E+01  0.36859038111E+03  0.37056832641E+03  0.00000000000E+00 0. -1.
         -5    1    3    3    0  503 -0.69047164926E+02 -0.80705063973E+01  0.42735673558E+02  0.81737823877E+02  0.47000000000E+01 0.  1.
         13    1    4    4    0    0  0.37075689844E+02  0.13464409923E+00  0.13293390533E+03  0.13800742042E+03  0.00000000000E+00 0. -1.
        -14    1    4    4    0    0 -0.67978835244E+01 -0.53781041351E+02  0.47791356230E+02  0.72267733876E+02  0.00000000000E+00 0.  1.
</event>
<event>
12    1  0.8417180E-002  0.1767881E+03  0.7818608E-02  0.1171296E+00
         21   -1    0    0  503  502  0.00000000000E+00  0.00000000000E+00  0.22149309078E+03  0.22149309078E+03  0.00000000000E+00 0. -1.
         21   -1    0    0  501  503 -0.00000000000E+00 -0.00000000000E+00 -0.14826005936E+03  0.14826005936E+03  0.00000000000E+00 0. -1.
          6    2    1    2  501    0 -0.99864563521E+01  0.37057252781E+02  0.80406824528E+02  0.19421453540E+03  0.17257189526E+03 0.  0.
         24    2    3    3    0    0  0.19485098940E+02  0.50294428026E+02 -0.11667388114E+02  0.96523461018E+02  0.79192499709E+02 0.  0.
         -6    2    1    2    0  502  0.99864563521E+01 -0.37057252781E+02 -0.71737930998E+01  0.17553861474E+03  0.17114138209E+03 0.  0.
        -24    2    5    5    0    0 -0.40932820666E+02  0.23268076427E+02 -0.21960628564E+02  0.95085779994E+02  0.79637536136E+02 0.  0.
          5    1    3    3  501    0 -0.29471555292E+02 -0.13237175245E+02  0.92074212641E+02  0.97691074379E+02  0.47000000000E+01 0. -1.
        -13    1    4    4    0    0 -0.14135112877E+02  0.59166533179E+02 -0.43219277336E+01  0.60984908984E+02  0.00000000000E+00 0.  1.
         14    1    4    4    0    0  0.33620211817E+02 -0.88721051522E+01 -0.73454603802E+01  0.35538552034E+02  0.00000000000E+00 0. -1.
         -5    1    5    5    0  502  0.50919277018E+02 -0.60325329208E+02  0.14786835464E+02  0.80452834750E+02  0.47000000000E+01 0.  1.
         11    1    6    6    0    0 -0.91299464331E+00  0.13903519977E+02 -0.45593391463E+02  0.47674928128E+02  0.00000000000E+00 0. -1.
        -12    1    6    6    0    0 -0.40019826023E+02  0.93645564502E+01  0.23632762899E+02  0.47410851866E+02  0.00000000000E+00 0.  1.
</event>
<event>
12    1  0.8417180E-002  0.2429038E+03  0.7818608E-02  0.1117904E+00
         21   -1    0    0  503  502  0.00000000000E+00  0.00000000000E+00  0.65261304546E+03  0.65261304546E+03  0.00000000000E+00 0. -1.
         21   -1    0    0  501  503 -0.00000000000E+00 -0.00000000000E+00 -0.40110178147E+03  0.40110178147E+03  0.00000000000E+00 0. -1.
          6    2    1    2  501    0  0.78286325474E+02  0.15219327846E+03 -0.33797903998E+03  0.41621159608E+03  0.17236797405E+03 0.  0.
         24    2    3    3    0    0  0.95680736940E+02  0.81900147582E+02 -0.11829551916E+03  0.18485336925E+03  0.65684858793E+02 0.  0.
         -6    2    1    2    0  502 -0.78286325474E+02 -0.15219327846E+03  0.58949030397E+03  0.63750323085E+03  0.17210464290E+03 0.  0.
        -24    2    5    5    0    0 -0.90676606030E+02 -0.17637336889E+03  0.49618574031E+03  0.54020971912E+03  0.79350107797E+02 0.  0.
          5    1    3    3  501    0 -0.17394411465E+02  0.70293130874E+02 -0.21968352083E+03  0.23135822683E+03  0.47000000000E+01 0. -1.
        -11    1    4    4    0    0 -0.92756096011E+01  0.13292446837E+02 -0.91459583270E+01  0.18611142633E+02  0.00000000000E+00 0.  1.
         12    1    4    4    0    0  0.10495634654E+03  0.68607700745E+02 -0.10914956083E+03  0.16624222661E+03  0.00000000000E+00 0. -1.
         -5    1    5    5    0  502  0.12390280556E+02  0.24180090435E+02  0.93304563660E+02  0.97293511734E+02  0.47000000000E+01 0.  1.
         11    1    6    6    0    0  0.10932613383E+02 -0.40318759226E+02  0.13044447174E+03  0.13697037851E+03  0.00000000000E+00 0. -1.
        -12    1    6    6    0    0 -0.10160921941E+03 -0.13605460967E+03  0.36574126857E+03  0.40323934061E+03  0.00000000000E+00 0.  1.
</event>
<event>
12    1  0.8417180E-002  0.2500838E+03  0.7818608E-02  0.1113435E+00
         21   -1    0    0  503  502  0.00000000000E+00  0.00000000000E+00  0.54784650941E+03  0.54784650941E+03  0.00000000000E+00 0. -1.
         21   -1    0    0  501  503 -0.00000000000E+00 -0.00000000000E+00 -0.24608406597E+03  0.24608406597E+03  0.00000000000E+00 0.  1.
          6    2    1    2  501    0 -0.12544508237E+03 -0.13122276923E+03 -0.14019049508E+03  0.28669722456E+03  0.17200592958E+03 0.  0.
         24    2    3    3    0    0 -0.14779288675E+03 -0.11419920509E+03 -0.78017530593E+02  0.21831013800E+03  0.81782549802E+02 0.  0.
         -6    2    1    2    0  502  0.12544508237E+03  0.13122276923E+03  0.44195293852E+03  0.50723335082E+03  0.17031555554E+03 0.  0.
        -24    2    5    5    0    0  0.20591213264E+02  0.35955111889E+02  0.89546344448E+02  0.12738764800E+03  0.80574790876E+02 0.  0.
          5    1    3    3  501    0  0.22347804388E+02 -0.17023564131E+02 -0.62172964483E+02  0.68387086569E+02  0.47000000000E+01 0. -1.
        -13    1    4    4    0    0 -0.97548374478E+02 -0.61170934030E+02 -0.87540528104E+02  0.14464063258E+03  0.00000000000E+00 0.  1.
         14    1    4    4    0    0 -0.50244512277E+02 -0.53028271064E+02  0.95229975115E+01  0.73669505411E+02  0.00000000000E+00 0. -1.
         -5    1    5    5    0  502  0.10485386910E+03  0.95267657337E+02  0.35240659408E+03  0.37984570282E+03  0.47000000000E+01 0.  1.
         13    1    6    6    0    0  0.24587057558E+02  0.16242188888E+02  0.10032829544E+03  0.10456624200E+03  0.00000000000E+00 0. -1.
        -14    1    6    6    0    0 -0.39958442938E+01  0.19712923000E+02 -0.10781950993E+02  0.22821406005E+02  0.00000000000E+00 0.  1.
</event>
<event>
12    1  0.8417180E-002  0.2775157E+03  0.7818608E-02  0.1097656E+00
         21   -1    0    0  503  502  0.00000000000E+00  0.00000000000E+00  0.11255868027E+04  0.11255868027E+04  0.00000000000E+00 0.  1.
         21   -1    0    0  501  503 -0.00000000000E+00 -0.00000000000E+00 -0.85148955998E+02  0.85148955998E+02  0.00000000000E+00 0. -1.
          6    2    1    2  501    0  0.16967364423E+03  0.12780019610E+03  0.24676190734E+03  0.37135753985E+03  0.17858596758E+03 0.  0.
         24    2    3    3    0    0  0.77907607277E+02 -0.70757090479E+01  0.12869393620E+03  0.16992603502E+03  0.78696043306E+02 0.  0.
         -6    2    1    2    0  502 -0.16967364423E+03 -0.12780019610E+03  0.79367593935E+03  0.83937821884E+03  0.17179133241E+03 0.  0.
        -24    2    5    5    0    0 -0.11894653719E+03 -0.15937652217E+03  0.61934339066E+03  0.65503009357E+03  0.77000216912E+02 0.  0.
          5    1    3    3  501    0  0.91766036957E+02  0.13487590515E+03  0.11806797114E+03  0.20143150482E+03  0.47000000000E+01 0. -1.
        -11    1    4    4    0    0  0.35169821058E+02  0.19603089141E+02  0.10835510909E+03  0.11559423464E+03  0.00000000000E+00 0.  1.
         12    1    4    4    0    0  0.42737786219E+02 -0.26678798189E+02  0.20338827114E+02  0.54331800376E+02  0.00000000000E+00 0. -1.
         -5    1    5    5    0  502 -0.50727107047E+02  0.31576326070E+02  0.17433254869E+03  0.18434812527E+03  0.47000000000E+01 0.  1.
         13    1    6    6    0    0 -0.84270584528E+02 -0.68297273241E+02  0.41012041628E+03  0.42422258875E+03  0.00000000000E+00 0. -1.
        -14    1    6    6    0    0 -0.34675952660E+02 -0.91079248926E+02  0.20922297437E+03  0.23080750483E+03  0.00000000000E+00 0.  1.
</event>
<event>
12    1  0.8417180E-002  0.2355165E+03  0.7818608E-02  0.1122913E+00
         21   -1    0    0  501  502  0.00000000000E+00  0.00000000000E+00  0.30252312296E+03  0.30252312296E+03  0.00000000000E+00 0.  1.
         21   -1    0    0  502  503 -0.00000000000E+00 -0.00000000000E+00 -0.39545067765E+03  0.39545067765E+03  0.00000000000E+00 0. -1.
         -6    2    1    2    0  503  0.14160687177E+03  0.74440649588E+02 -0.30228735785E+03  0.38285550343E+03  0.17206618885E+03 0.  0.
        -24    2    3    3    0    0  0.54722110209E+02  0.10473588920E+03 -0.19047101501E+03  0.23797021135E+03  0.79915568564E+02 0.  0.
          6    2    1    2  501    0 -0.14160687177E+03 -0.74440649588E+02  0.20935980316E+03  0.31511829718E+03  0.17284124969E+03 0.  0.
         24    2    5    5    0    0 -0.13504411903E+03 -0.37087547230E+01  0.17826629473E+03  0.23743324751E+03  0.79655547468E+02 0.  0.
          5    1    5    5  501    0 -0.65627527382E+01 -0.70731894865E+02  0.31093508429E+02  0.77685049663E+02  0.47000000000E+01 0. -1.
        -11    1    6    6    0    0 -0.68098401671E+02  0.37971602913E+02  0.88771820241E+02  0.11815105165E+03  0.00000000000E+00 0.  1.
         12    1    6    6    0    0 -0.66945717361E+02 -0.41680357636E+02  0.89494474486E+02  0.11928219586E+03  0.00000000000E+00 0. -1.
         -5    1    3    3    0  503  0.86884761562E+02 -0.30295239613E+02 -0.11181634284E+03  0.14488529208E+03  0.47000000000E+01 0.  1.
         11    1    4    4    0    0  0.24204725124E+02  0.26727590078E+02 -0.12933531079E+03  0.13426784949E+03  0.00000000000E+00 0. -1.
        -12    1    4    4    0    0  0.30517385085E+02  0.78008299123E+02 -0.61135704213E+02  0.10370236185E+03  0.00000000000E+00 0.  1.
</event>
<event>
12    1  0.8417180E-002  0.1856227E+03  0.7818608E-02  0.1162909E+00
         21   -1    0    0  503  502  0.00000000000E+00  0.00000000000E+00  0.11086531389E+03  0.11086531389E+03  0.00000000000E+00 0. -1.
         21   -1    0    0  501  503 -0.00000000000E+00 -0.00000000000E+00 -0.66569961195E+03  0.66569961195E+03  0.00000000000E+00 0.  1.
          6    2    1    2  501    0  0.49157386142E+02  0.38796116493E+02 -0.56152385817E+03  0.59082176973E+03  0.17274181027E+03 0.  0.
         24    2    3    3    0    0  0.52489090142E+02  0.12088839949E+02 -0.15288423601E+03  0.18126980761E+03  0.81141289702E+02 0.  0.
         -6    2    1    2    0  502 -0.49157386142E+02 -0.38796116493E+02  0.66895601132E+01  0.18574315612E+03  0.17474032896E+03 0.  0.
        -24    2    5    5    0    0 -0.55845333664E+02 -0.64876676038E+02 -0.46262744200E+02  0.12615321770E+03  0.80291397113E+02 0.  0.
          5    1    3    3  501    0 -0.33317039997E+01  0.26707276544E+02 -0.40863962216E+03  0.40955196211E+03  0.47000000000E+01 0. -1.
        -13    1    4    4    0    0  0.47905874327E+02  0.43945726869E+02 -0.10758691721E+03  0.12570260323E+03  0.00000000000E+00 0.  1.
         14    1    4    4    0    0  0.45832158146E+01 -0.31856886920E+02 -0.45297318807E+02  0.55567204380E+02  0.00000000000E+00 0. -1.
         -5    1    5    5    0  502  0.66879475216E+01  0.26080559545E+02  0.52952304313E+02  0.59589938415E+02  0.47000000000E+01 0.  1.
         11    1    6    6    0    0 -0.32621234728E+02 -0.23759329041E+02  0.19796766407E+02  0.44950668870E+02  0.00000000000E+00 0. -1.
        -12    1    6    6    0    0 -0.23224098936E+02 -0.41117346998E+02 -0.66059510607E+02  0.81202548834E+02  0.00000000000E+00 0.  1.
</event>
<event>
12    1  0.8417180E-002  0.1930889E+03  0.7818608E-02  0.1155722E+00
         21   -1    0    0  503  502  0.00000000000E+00  0.00000000000E+00  0.16162916286E+02  0.16162916286E+02  0.00000000000E+00 0. -1.
         21   -1    0    0  501  503 -0.00000000000E+00 -0.00000000000E+00 -0.26797484028E+04  0.26797484028E+04  0.00000000000E+00 0. -1.
          6    2    1    2  501    0  0.82747816386E+02 -0.28727923826E+02 -0.18355768211E+04  0.18457046324E+04  0.17207797398E+03 0.  0.
         24    2    3    3    0    0 -0.12019087221E+02 -0.50194503221E+02 -0.83097461951E+03  0.83640326338E+03  0.79922800890E+02 0.  0.
         -6    2    1    2    0  502 -0.82747816386E+02  0.28727923826E+02 -0.82800866546E+03  0.85020668674E+03  0.17199001537E+03 0.  0.
        -24    2    5    5    0    0 -0.57780904249E+02  0.17201638199E+02 -0.81190212721E+03  0.81799314089E+03  0.79329598008E+02 0.  0.
          5    1    3    3  501    0  0.94766903607E+02  0.21466579395E+02 -0.10046022016E+04  0.10093013690E+04  0.47000000000E+01 0. -1.
        -13    1    4    4    0    0  0.13606862068E+02 -0.24271970654E+02 -0.82983054125E+02  0.87524068271E+02  0.00000000000E+00 0.  1.
         14    1    4    4    0    0 -0.25625949289E+02 -0.25922532568E+02 -0.74799156539E+03  0.74887919510E+03  0.00000000000E+00 0. -1.
         -5    1    5    5    0  502 -0.24966912137E+02  0.11526285627E+02 -0.16106538242E+02  0.32213545849E+02  0.47000000000E+01 0.  1.
         13    1    6    6    0    0 -0.22169989355E+00 -0.23902279957E+02 -0.11176696157E+03  0.11429445235E+03  0.00000000000E+00 0. -1.
        -14    1    6    6    0    0 -0.57559204355E+02  0.41103918156E+02 -0.70013516564E+03  0.70369868855E+03  0.00000000000E+00 0.  1.
</event>
<event>
12    1  0.8417180E-002  0.2214556E+03  0.7818608E-02  0.1132868E+00
         21   -1    0    0  503  502  0.00000000000E+00  0.00000000000E+00  0.55179413597E+02  0.55179413597E+02  0.00000000000E+00 0. -1.
         21   -1    0    0  501  503 -0.00000000000E+00 -0.00000000000E+00 -0.10534247410E+04  0.10534247410E+04  0.00000000000E+00 0.  1.
          6    2    1    2  501    0  0.16084455248E+02 -0.13906358343E+03 -0.71953381550E+03  0.75284227051E+03  0.17159598679E+03 0.  0.
         24    2    3    3    0    0 -0.41979185046E+02 -0.13395488673E+03 -0.48514673216E+03  0.51127058355E+03  0.79524173807E+02 0.  0.
         -6    2    1    2    0  502 -0.16084455248E+02  0.13906358343E+03 -0.27871151194E+03  0.35576188412E+03  0.17114035576E+03 0.  0.
        -24    2    5    5    0    0 -0.67441004008E+02  0.73035453105E+02 -0.22285008572E+03  0.25506531996E+03  0.74254227547E+02 0.  0.
          5    1    3    3  501    0  0.58063640295E+02 -0.51086967056E+01 -0.23438708333E+03  0.24157168696E+03  0.47000000000E+01 0. -1.
        -11    1    4    4    0    0 -0.23319448639E+02 -0.13720314203E+03 -0.38579536884E+03  0.41012993732E+03  0.00000000000E+00 0.  1.
         12    1    4    4    0    0 -0.18659736407E+02  0.32482553073E+01 -0.99351363324E+02  0.10114064623E+03  0.00000000000E+00 0. -1.
         -5    1    5    5    0  502  0.51356548760E+02  0.66028130327E+02 -0.55861426220E+02  0.10069656416E+03  0.47000000000E+01 0.  1.
         11    1    6    6    0    0 -0.42445816996E+02  0.50539631086E+02 -0.61377257428E+02  0.90128072320E+02  0.00000000000E+00 0. -1.
        -12    1    6    6    0    0 -0.24995187012E+02  0.22495822019E+02 -0.16147282829E+03  0.16493724764E+03  0.00000000000E+00 0.  1.
</event>
<event>
12    1  0.8417180E-002  0.1911094E+03  0.7818608E-02  0.1157920E+00
         21   -1    0    0  501  502  0.00000000000E+00  0.00000000000E+00  0.18624329867E+04  0.18624329867E+04  0.00000000000E+00 0.  1.
         21   -1    0    0  502  503 -0.00000000000E+00 -0.00000000000E+00 -0.26011298146E+02  0.26011298146E+02  0.00000000000E+00 0.  1.
         -6    2    1    2    0  503 -0.45134596218E+02 -0.68461010245E+02  0.44593992878E+03  0.48516514040E+03  0.17262314933E+03 0.  0.
        -24    2    3    3    0    0 -0.41097110125E+02  0.27942921253E+02  0.19908896195E+03  0.22008494664E+03  0.79568773135E+02 0.  0.
          6    2    1    2  501    0  0.45134596218E+02  0.68461010245E+02  0.13904817598E+04  0.14032791445E+04  0.17037837674E+03 0.  0.
         24    2    5    5    0    0  0.65346772587E+02  0.83680381160E+02  0.70998961863E+03  0.72230057981E+03  0.79751251757E+02 0.  0.
          5    1    5    5  501    0 -0.20212176369E+02 -0.15219370915E+02  0.68049214119E+03  0.68097856468E+03  0.47000000000E+01 0. -1.
        -13    1    6    6    0    0  0.27151027129E+02  0.54804182605E+02  0.58920879323E+03  0.59237461013E+03  0.00000000000E+00 0.  1.
         14    1    6    6    0    0  0.38195745458E+02  0.28876198555E+02  0.12078082540E+03  0.12992596968E+03  0.00000000000E+00 0. -1.
         -5    1    3    3    0  503 -0.40374860932E+01 -0.96403931498E+02  0.24685096683E+03  0.26508019376E+03  0.47000000000E+01 0.  1.
         13    1    4    4    0    0 -0.38490797735E+02 -0.14880096202E+02  0.49396910894E+02  0.64366245650E+02  0.00000000000E+00 0. -1.
        -14    1    4    4    0    0 -0.26063123896E+01  0.42823017455E+02  0.14969205106E+03  0.15571870099E+03  0.00000000000E+00 0.  1.
</event>
<event>
12    1  0.8417180E-002  0.1991011E+03  0.7818608E-02  0.1150716E+00
         21   -1    0    0  503  502  0.00000000000E+00  0.00000000000E+00  0.10921067930E+03  0.10921067930E+03  0.00000000000E+00 0.  1.
         21   -1    0    0  501  503 -0.00000000000E+00 -0.00000000000E+00 -0.83414737532E+03  0.83414737532E+03  0.00000000000E+00 0. -1.
          6    2    1    2  501    0 -0.89848945616E+02  0.31568478293E+02 -0.71806129905E+03  0.74515319444E+03  0.17484808302E+03 0.  0.
         24    2    3    3    0    0  0.17625154348E+02  0.37213857504E+02 -0.37060243285E+03  0.38137811809E+03  0.80047413874E+02 0.  0.
         -6    2    1    2    0  502  0.89848945616E+02 -0.31568478293E+02 -0.68753969694E+01  0.19820486018E+03  0.17369079902E+03 0.  0.
        -24    2    5    5    0    0  0.24150528654E+02 -0.12376220894E+02  0.55207208596E+02  0.10567937910E+03  0.85929485088E+02 0.  0.
          5    1    3    3  501    0 -0.10747409996E+03 -0.56453792117E+01 -0.34745886620E+03  0.36377507635E+03  0.47000000000E+01 0. -1.
        -11    1    4    4    0    0  0.26667486668E+02  0.28159150132E+02 -0.66324270457E+02  0.76830992659E+02  0.00000000000E+00 0.  1.
         12    1    4    4    0    0 -0.90423323199E+01  0.90547073726E+01 -0.30427816239E+03  0.30454712543E+03  0.00000000000E+00 0. -1.
         -5    1    5    5    0  502  0.65698416962E+02 -0.19192257398E+02 -0.62082605565E+02  0.92525481080E+02  0.47000000000E+01 0.  1.
         13    1    6    6    0    0 -0.12122080721E+02 -0.30682193138E+02  0.56052771140E+02  0.65040410278E+02  0.00000000000E+00 0. -1.
        -14    1    6    6    0    0  0.36272609375E+02  0.18305972243E+02 -0.84556254403E+00  0.40638968819E+02  0.00000000000E+00 0.  1.
</event>
<event>
12    1  0.8417180E-002  0.3307789E+03  0.7818608E-02  0.1070817E+00
         21   -1    0    0  503  502  0.00000000000E+00  0.00000000000E+00  0.13665498575E+04  0.13665498575E+04  0.00000000000E+00 0.  1.
         21   -1    0    0  501  503 -0.00000000000E+00 -0.00000000000E+00 -0.80023057216E+02  0.80023057216E+02  0.00000000000E+00 0. -1.
          6    2    1    2  501    0 -0.11232268260E+03 -0.25916035415E+03  0.65133487348E+03  0.73051475416E+03  0.17214591035E+03 0.  0.
         24    2    3    3    0    0 -0.80252202372E+02 -0.12376484777E+03  0.48948613704E+03  0.51702573258E+03  0.77206063663E+02 0.  0.
         -6    2    1    2    0  502  0.11232268260E+03  0.25916035415E+03  0.63519192678E+03  0.71605816053E+03  0.17172661769E+03 0.  0.
        -24    2    5    5    0    0  0.93669534775E+00  0.14368846786E+03  0.25459295735E+03  0.30299852777E+03  0.79644715501E+02 0.  0.
          5    1    3    3  501    0 -0.32070480229E+02 -0.13539550637E+03  0.16184873644E+03  0.21348902158E+03  0.47000000000E+01 0. -1.
        -13    1    4    4    0    0  0.31255097914E+01 -0.62222418232E+02  0.20468600250E+03  0.21395737370E+03  0.00000000000E+00 0.  1.
         14    1    4    4    0    0 -0.83377712163E+02 -0.61542429543E+02  0.28480013455E+03  0.30306835888E+03  0.00000000000E+00 0. -1.
         -5    1    5    5    0  502  0.11138598725E+03  0.11547188629E+03  0.38059896943E+03  0.41305963275E+03  0.47000000000E+01 0.  1.
         13    1    6    6    0    0  0.23660702645E+02  0.13869465288E+03  0.22475191753E+03  0.26515931064E+03  0.00000000000E+00 0. -1.
        -14    1    6    6    0    0 -0.22724007297E+02  0.49938149831E+01  0.29841039812E+02  0.37839217127E+02  0.00000000000E+00 0.  1.
</event>
<event>
12    1  0.8417180E-002  0.2055182E+03  0.7818608E-02  0.1145683E+00
         21   -1    0    0  503  502  0.00000000000E+00  0.00000000000E+00  0.47620692958E+03  0.47620692958E+03  0.00000000000E+00 0.  1.
         21   -1    0    0  501  503 -0.00000000000E+00 -0.00000000000E+00 -0.15189618628E+03  0.15189618628E+03  0.00000000000E+00 0. -1.
          6    2    1    2  501    0 -0.11391111145E+03  0.92831243089E+01 -0.41573553914E+02  0.20968091027E+03  0.17080926801E+03 0.  0.
         24    2    3    3    0    0 -0.32054764225E+00 -0.18585484763E+02  0.36833800971E+01  0.84182879869E+02  0.82022356583E+02 0.  0.
         -6    2    1    2    0  502  0.11391111145E+03 -0.92831243089E+01  0.36588429722E+03  0.41842220559E+03  0.16776145407E+03 0.  0.
        -24    2    5    5    0    0  0.84383992060E+02 -0.62062666479E+02  0.18547617251E+03  0.22808904424E+03  0.81552246099E+02 0.  0.
          5    1    3    3  501    0 -0.11359056381E+03  0.27868609072E+02 -0.45256934012E+02  0.12549803040E+03  0.47000000000E+01 0. -1.
        -13    1    4    4    0    0 -0.38533384632E+02 -0.12037923721E+01  0.13892727925E+02  0.40979003605E+02  0.00000000000E+00 0.  1.
         14    1    4    4    0    0  0.38212836990E+02 -0.17381692391E+02 -0.10209347828E+02  0.43203876264E+02  0.00000000000E+00 0. -1.
         -5    1    5    5    0  502  0.29527119388E+02  0.52779542170E+02  0.18040812471E+03  0.19033316136E+03  0.47000000000E+01 0.  1.
         11    1    6    6    0    0  0.43778767939E+01 -0.56354336446E+01 -0.83235756728E+01  0.10963841916E+02  0.00000000000E+00 0. -1.
        -12    1    6    6    0    0  0.80006115267E+02 -0.56427232835E+02  0.19379974819E+03  0.21712520232E+03  0.00000000000E+00 0.  1.
</event>
<event>
12    1  0.8417180E-002  0.1773783E+03  0.7818608E-02  0.1170885E+00
         21   -1    0    0  501  502  0.00000000000E+00  0.00000000000E+00  0.24999943011E+02  0.24999943011E+02  0.00000000000E+00 0. -1.
         21   -1    0    0  502  503 -0.00000000000E+00 -0.00000000000E+00 -0.12843917484E+04  0.12843917484E+04  0.00000000000E+00 0. -1.
         -6    2    1    2    0  503  0.54016842386E+01  0.34593271759E+02 -0.74987527621E+03  0.77056860872E+03  0.17388840743E+03 0.  0.
        -24    2    3    3    0    0  0.59793902516E+01  0.46472574415E+02 -0.75211392944E+03  0.75758580686E+03  0.77880925918E+02 0.  0.
          6    2    1    2  501    0 -0.54016842386E+01 -0.34593271759E+02 -0.50951652922E+03  0.53882308273E+03  0.17174792076E+03 0.  0.
         24    2    5    5    0    0 -0.78377522636E+01  0.20928420845E+02 -0.44873071776E+03  0.45632703644E+03  0.79847842620E+02 0.  0.
          5    1    5    5  501    0  0.24360680250E+01 -0.55521692604E+02 -0.60785811464E+02  0.82496046283E+02  0.47000000000E+01 0. -1.
        -11    1    6    6    0    0 -0.43311247954E+02  0.69886028451E+01 -0.27377636422E+03  0.27726918757E+03  0.00000000000E+00 0.  1.
         12    1    6    6    0    0  0.35473495691E+02  0.13939818000E+02 -0.17495435353E+03  0.17905784887E+03  0.00000000000E+00 0. -1.
         -5    1    3    3    0  503 -0.57770601301E+00 -0.11879302656E+02  0.22386532338E+01  0.12982801860E+02  0.47000000000E+01 0.  1.
         11    1    4    4    0    0 -0.17236567678E+02  0.29749096727E+02 -0.66510727139E+03  0.66599533818E+03  0.00000000000E+00 0. -1.
        -12    1    4    4    0    0  0.23215957930E+02  0.16723477688E+02 -0.87006658053E+02  0.91590468686E+02  0.00000000000E+00 0.  1.
</event>
<event>
12    1  0.8417180E-002  0.1836431E+03  0.7818608E-02  0.1164743E+00
         21   -1    0    0  501  502  0.00000000000E+00  0.00000000000E+00  0.21318626864E+03  0.21318626864E+03  0.00000000000E+00 0.  1.
         21   -1    0    0  502  503 -0.00000000000E+00 -0.00000000000E+00 -0.15791403176E+03  0.15791403176E+03  0.00000000000E+00 0.  1.
         -6    2    1    2    0  503 -0.29557863734E+02 -0.51983633524E+02  0.11048171982E+02  0.18220736956E+03  0.17176000103E+03 0.  0.
        -24    2    3    3    0    0 -0.64123407934E+02  0.21106983222E+01  0.42136487048E+02  0.11072627473E+03  0.79803244814E+02 0.  0.
          6    2    1    2  501    0  0.29557863734E+02  0.51983633524E+02  0.44224064904E+02  0.18889293084E+03  0.17363411514E+03 0.  0.
         24    2    5    5    0    0  0.65977581680E+02  0.78885125255E+02  0.22137872018E+02  0.13829672516E+03  0.89777472356E+02 0.  0.
          5    1    5    5  501    0 -0.36419717946E+02 -0.26901491731E+02  0.22086192886E+02  0.50596205676E+02  0.47000000000E+01 0. -1.
        -11    1    6    6    0    0  0.53328842306E+02  0.78812160328E+00  0.25486264967E+02  0.59111219403E+02  0.00000000000E+00 0.  1.
         12    1    6    6    0    0  0.12648739373E+02  0.78097003652E+02 -0.33483929488E+01  0.79185505760E+02  0.00000000000E+00 0. -1.
         -5    1    3    3    0  503  0.34565544200E+02 -0.54094331846E+02 -0.31088315066E+02  0.71481094825E+02  0.47000000000E+01 0.  1.
         13    1    4    4    0    0 -0.13253393658E+02 -0.22385745755E+02  0.47349262685E+02  0.54025241632E+02  0.00000000000E+00 0. -1.
        -14    1    4    4    0    0 -0.50870014276E+02  0.24496444078E+02 -0.52127756372E+01  0.56701033101E+02  0.00000000000E+00 0.  1.
</event>
<event>
12    1  0.8417180E-002  0.1770018E+03  0.7818608E-02  0.1171255E+00
         21   -1    0    0  503  502  0.00000000000E+00  0.00000000000E+00  0.49872224718E+02  0.49872224718E+02  0.00000000000E+00 0. -1.
         21   -1    0    0  501  503 -0.00000000000E+00 -0.00000000000E+00 -0.72416132663E+03  0.72416132663E+03  0.00000000000E+00 0. -1.
          6    2    1    2  501    0 -0.36040004403E+02 -0.13713171337E+02 -0.48505235975E+03  0.51633846927E+03  0.17275036949E+03 0.  0.
         24    2    3    3    0    0  0.20123325973E+02 -0.82951956916E+01 -0.10979199200E+03  0.13683075164E+03  0.78705873766E+02 0.  0.
         -6    2    1    2    0  502  0.36040004403E+02  0.13713171337E+02 -0.18923674216E+03  0.25769508208E+03  0.17061441252E+03 0.  0.
        -24    2    5    5    0    0  0.71251791063E+01  0.67130513844E+02 -0.15394393567E+03  0.18728803845E+03  0.82588134451E+02 0.  0.
          5    1    3    3  501    0 -0.56163330376E+02 -0.54179756457E+01 -0.37526036775E+03  0.37950771763E+03  0.47000000000E+01 0. -1.
        -13    1    4    4    0    0  0.31172306403E+02  0.27263208487E+02 -0.75986545722E+02  0.86538721704E+02  0.00000000000E+00 0.  1.
         14    1    4    4    0    0 -0.11048980431E+02 -0.35558404179E+02 -0.33805446283E+02  0.50292029932E+02  0.00000000000E+00 0. -1.
         -5    1    5    5    0  502  0.28914825296E+02 -0.53417342506E+02 -0.35292806489E+02  0.70407043627E+02  0.47000000000E+01 0.  1.
         13    1    6    6    0    0  0.18944568568E+02  0.28346253700E+02 -0.14049167764E+03  0.14456942368E+03  0.00000000000E+00 0. -1.
        -14    1    6    6    0    0 -0.11819389462E+02  0.38784260144E+02 -0.13452258032E+02  0.42718614775E+02  0.00000000000E+00 0.  1.
</event>
<event>
12    1  0.8417180E-002  0.1868482E+03  0.7818608E-02  0.1161538E+00
         21   -1    0    0  501  502  0.00000000000E+00  0.00000000000E+00  0.28915692904E+02  0.28915692904E+02  0.00000000000E+00 0.  1.
         21   -1    0    0  502  503 -0.00000000000E+00 -0.00000000000E+00 -0.15502555145E+04  0.15502555145E+04  0.00000000000E+00 0.  1.
         -6    2    1    2    0  503  0.46644783526E+02  0.54134138899E+02 -0.38766664507E+03  0.43034601460E+03  0.17264421148E+03 0.  0.
        -24    2    3    3    0    0  0.36118767465E+02 -0.33215029599E+02 -0.23970372066E+03  0.25813744556E+03  0.82275534308E+02 0.  0.
          6    2    1    2  501    0 -0.46644783526E+02 -0.54134138899E+02 -0.11336731765E+04  0.11488251928E+04  0.17169220024E+03 0.  0.
         24    2    5    5    0    0  0.18555191176E+02 -0.17544939784E+02 -0.29578731281E+03  0.30759715189E+03  0.80459638356E+02 0.  0.
          5    1    5    5  501    0 -0.65199974702E+02 -0.36589199115E+02 -0.83788586370E+03  0.84122804089E+03  0.47000000000E+01 0. -1.
        -11    1    6    6    0    0  0.18863212657E+02 -0.34442263468E+02 -0.63266734652E+02  0.74463212516E+02  0.00000000000E+00 0.  1.
         12    1    6    6    0    0 -0.30802148123E+00  0.16897323684E+02 -0.23252057815E+03  0.23313393938E+03  0.00000000000E+00 0. -1.
         -5    1    3    3    0  503  0.10526016061E+02  0.87349168498E+02 -0.14796292441E+03  0.17220856904E+03  0.47000000000E+01 0.  1.
         13    1    4    4    0    0 -0.88551425681E+01  0.10827617469E+02 -0.13675952434E+03  0.13747297315E+03  0.00000000000E+00 0. -1.
        -14    1    4    4    0    0  0.44973910033E+02 -0.44042647068E+02 -0.10294419632E+03  0.12066447241E+03  0.00000000000E+00 0.  1.
</event>
<event>
12    1  0.8417180E-002  0.1964964E+03  0.7818608E-02  0.1152847E+00
         21   -1    0    0  501  502  0.00000000000E+00  0.00000000000E+00  0.52614065634E+03  0.52614065634E+03  0.00000000000E+00 0.  1.
         21   -1    0    0  502  503 -0.00000000000E+00 -0.00000000000E+00 -0.73793728721E+02  0.73793728721E+02  0.00000000000E+00 0.  1.
         -6    2    1    2    0  503 -0.51452013413E+02 -0.80302621046E+02  0.19915625799E+03  0.27977502508E+03  0.17179938571E+03 0.  0.
        -24    2    3    3    0    0 -0.50553438512E+02 -0.70166394557E+02  0.22433696137E+03  0.25221221777E+03  0.76190271576E+02 0.  0.
          6    2    1    2  501    0  0.51452013413E+02  0.80302621046E+02  0.25319066962E+03  0.32015935997E+03  0.17117441387E+03 0.  0.
         24    2    5    5    0    0  0.98596829590E+02  0.38728244798E+02  0.18305824242E+03  0.22586349687E+03  0.79264035674E+02 0.  0.
          5    1    5    5  501    0 -0.47144816178E+02  0.41574376248E+02  0.70132427203E+02  0.94295863102E+02  0.47000000000E+01 0. -1.
        -13    1    6    6    0    0  0.65133991147E+01  0.79278457939E+01  0.92572507765E+02  0.93139381042E+02  0.00000000000E+00 0.  1.
         14    1    6    6    0    0  0.92083430476E+02  0.30800399004E+02  0.90485734653E+02  0.13272411583E+03  0.00000000000E+00 0. -1.
         -5    1    3    3    0  503 -0.89857490012E+00 -0.10136226488E+02 -0.25180703381E+02  0.27562807314E+02  0.47000000000E+01 0.  1.
         11    1    4    4    0    0  0.19068216367E+02 -0.16199178317E+02  0.31654805723E+02  0.40348940245E+02  0.00000000000E+00 0. -1.
        -12    1    4    4    0    0 -0.69621654879E+02 -0.53967216241E+02  0.19268215565E+03  0.21186327752E+03  0.00000000000E+00 0.  1.
</event>
<event>
12    1  0.8417180E-002  0.3281192E+03  0.7818608E-02  0.1072287E+00
         21   -1    0    0  503  502  0.00000000000E+00  0.00000000000E+00  0.15937621916E+03  0.15937621916E+03  0.00000000000E+00 0.  1.
         21   -1    0    0  501  503 -0.00000000000E+00 -0.00000000000E+00 -0.97723303951E+03  0.97723303951E+03  0.00000000000E+00 0.  1.
          6    2    1    2  501    0  0.22866034604E+03  0.16061111564E+03 -0.72891384466E+03  0.79936074135E+03  0.17199045775E+03 0.  0.
         24    2    3    3    0    0  0.18683196504E+03  0.17781544947E+03 -0.51998574707E+03  0.58554155951E+03  0.77131209825E+02 0.  0.
         -6    2    1    2    0  502 -0.22866034604E+03 -0.16061111564E+03 -0.88942975692E+02  0.33724851732E+03  0.16656597849E+03 0.  0.
        -24    2    5    5    0    0 -0.91900453536E+02 -0.14233154739E+03 -0.40639947001E+02  0.19098613872E+03  0.78231305419E+02 0.  0.
          5    1    3    3  501    0  0.41828381002E+02 -0.17204333830E+02 -0.20892809759E+03  0.21381918184E+03  0.47000000000E+01 0. -1.
        -13    1    4    4    0    0  0.81212069679E+02  0.64443639512E+02 -0.29223303250E+03  0.31007826145E+03  0.00000000000E+00 0.  1.
         14    1    4    4    0    0  0.10561989536E+03  0.11337180996E+03 -0.22775271457E+03  0.27546329806E+03  0.00000000000E+00 0. -1.
         -5    1    5    5    0  502 -0.13675989250E+03 -0.18279568248E+02 -0.48303028692E+02  0.14626237860E+03  0.47000000000E+01 0.  1.
         11    1    6    6    0    0 -0.32083897743E+02 -0.81436104774E+02 -0.56480093546E+02  0.10416917309E+03  0.00000000000E+00 0. -1.
        -12    1    6    6    0    0 -0.59816555793E+02 -0.60895442618E+02  0.15840146545E+02  0.86816965629E+02  0.00000000000E+00 0.  1.
</event>
<event>
12    1  0.8417180E-002  0.2226517E+03  0.7818608E-02  0.1131978E+00
         21   -1    0    0  503  502  0.00000000000E+00  0.00000000000E+00  0.75736605164E+02  0.75736605164E+02  0.00000000000E+00 0. -1.
         21   -1    0    0  501  503 -0.00000000000E+00 -0.00000000000E+00 -0.68009341179E+03  0.68009341179E+03  0.00000000000E+00 0.  1.
          6    2    1    2  501    0 -0.95296950363E+02  0.10364474152E+03 -0.37650565005E+03  0.43725516156E+03  0.17208088388E+03 0.  0.
         24    2    3    3    0    0  0.46285159870E+01  0.32380928770E+01 -0.12431323910E+03  0.14796344709E+03  0.80046810395E+02 0.  0.
         -6    2    1    2    0  502  0.95296950363E+02 -0.10364474152E+03 -0.22785115658E+03  0.31857485540E+03  0.17248202151E+03 0.  0.
        -24    2    5    5    0    0  0.45464245384E+02 -0.86221531053E+02 -0.55442301236E+02  0.13820365440E+03  0.80779027590E+02 0.  0.
          5    1    3    3  501    0 -0.99925466350E+02  0.10040664864E+03 -0.25219241095E+03  0.28929171447E+03  0.47000000000E+01 0. -1.
        -13    1    4    4    0    0  0.17564278087E+01  0.19870384351E+02 -0.12893075860E+03  0.13046477581E+03  0.00000000000E+00 0.  1.
         14    1    4    4    0    0  0.28720881784E+01 -0.16632291474E+02  0.46175195070E+01  0.17498671281E+02  0.00000000000E+00 0. -1.
         -5    1    5    5    0  502  0.49832704978E+02 -0.17423210469E+02 -0.17240885534E+03  0.18037120100E+03  0.47000000000E+01 0.  1.
         13    1    6    6    0    0 -0.79490955274E+01  0.42803263106E+01  0.10725380444E+02  0.14019382965E+02  0.00000000000E+00 0. -1.
        -14    1    6    6    0    0  0.53413340912E+02 -0.90501857363E+02 -0.66167681680E+02  0.12418427144E+03  0.00000000000E+00 0.  1.
</event>
<event>
12    1  0.8417180E-002  0.2078440E+03  0.7818608E-02  0.1143553E+00
         21   -1    0    0  503  502  0.00000000000E+00  0.00000000000E+00  0.22167244674E+03  0.22167244674E+03  0.00000000000E+00 0. -1.
         21   -1    0    0  501  503 -0.00000000000E+00 -0.00000000000E+00 -0.29422089422E+03  0.29422089422E+03  0.00000000000E+00 0. -1.
          6    2    1    2  501    0  0.11123510326E+03  0.29298292585E+02 -0.18702096676E+03  0.27861059370E+03  0.17150913320E+03 0.  0.
         24    2    3    3    0    0  0.30142234276E+02 -0.38531299038E+02 -0.12303232262E+03  0.15494352663E+03  0.80481853495E+02 0.  0.
         -6    2    1    2    0  502 -0.11123510326E+03 -0.29298292585E+02  0.11447251927E+03  0.23728274726E+03  0.17311125421E+03 0.  0.
        -24    2    5    5    0    0 -0.39394537850E+02  0.98376402221E+01  0.12537895324E+03  0.15461637939E+03  0.80855637310E+02 0.  0.
          5    1    3    3  501    0  0.81092868983E+02  0.67829591623E+02 -0.63988644134E+02  0.12366706707E+03  0.47000000000E+01 0. -1.
        -11    1    4    4    0    0  0.57899546775E+02 -0.26595091179E+02 -0.78032493149E+02  0.10074088732E+03  0.00000000000E+00 0.  1.
         12    1    4    4    0    0 -0.27757312499E+02 -0.11936207859E+02 -0.44999829475E+02  0.54202639308E+02  0.00000000000E+00 0. -1.
         -5    1    5    5    0  502 -0.71840565409E+02 -0.39135932807E+02 -0.10906433962E+02  0.82666367870E+02  0.47000000000E+01 0.  1.
         11    1    6    6    0    0 -0.48930371880E+02 -0.23977250929E+02  0.86332923331E+02  0.10209046726E+03  0.00000000000E+00 0. -1.
        -12    1    6    6    0    0  0.95358340299E+01  0.33814891151E+02  0.39046029906E+02  0.52525912135E+02  0.00000000000E+00 0.  1.
</event>
<event>
12    1  0.8417180E-002  0.1920779E+03  0.7818608E-02  0.1156715E+00
         21   -1    0    0  503  502  0.00000000000E+00  0.00000000000E+00  0.14096960696E+04  0.14096960696E+04  0.00000000000E+00 0.  1.
         21   -1    0    0  501  503 -0.00000000000E+00 -0.00000000000E+00 -0.18010158884E+03  0.18010158884E+03  0.00000000000E+00 0. -1.
          6    2    1    2  501    0 -0.70409617985E+02  0.44256413481E+02 -0.12012763831E+03  0.22654923998E+03  0.17314087966E+03 0.  0.
         24    2    3    3    0    0 -0.30533175525E+02 -0.55431438463E+01 -0.13576353805E+03  0.16069563010E+03  0.80176966888E+02 0.  0.
         -6    2    1    2    0  502  0.70409617985E+02 -0.44256413481E+02  0.13497221191E+04  0.13632484185E+04  0.17256971713E+03 0.  0.
        -24    2    5    5    0    0  0.90079274263E+02  0.12834547142E+02  0.66312469681E+03  0.67398476541E+03  0.79006956809E+02 0.  0.
          5    1    3    3  501    0 -0.39876442460E+02  0.49799557328E+02  0.15635899733E+02  0.65853609876E+02  0.47000000000E+01 0. -1.
        -11    1    4    4    0    0  0.37184413171E+01 -0.87033718321E+01  0.82965157854E+01  0.12586010538E+02  0.00000000000E+00 0.  1.
         12    1    4    4    0    0 -0.34251616842E+02  0.31602279858E+01 -0.14406005383E+03  0.14810961956E+03  0.00000000000E+00 0. -1.
         -5    1    5    5    0  502 -0.19669656278E+02 -0.57090960623E+02  0.68659742228E+03  0.68926365307E+03  0.47000000000E+01 0.  1.
         11    1    6    6    0    0 -0.52543089193E+01  0.16003636918E+02  0.22335781184E+03  0.22399204509E+03  0.00000000000E+00 0. -1.
        -12    1    6    6    0    0  0.95333583182E+02 -0.31690897765E+01  0.43976688498E+03  0.44999272031E+03  0.00000000000E+00 0.  1.
</event>
<event>
12    1  0.8417180E-002  0.2433651E+03  0.7818608E-02  0.1117591E+00
         21   -1    0    0  501  502  0.00000000000E+00  0.00000000000E+00  0.18799536487E+04  0.18799536487E+04  0.00000000000E+00 0. -1.
         21   -1    0    0  502  503 -0.00000000000E+00 -0.00000000000E+00 -0.32581664313E+02  0.32581664313E+02  0.00000000000E+00 0. -1.
         -6    2    1    2    0  503 -0.16643546735E+03 -0.35709503735E+02  0.74828931859E+03  0.78683140194E+03  0.17375504974E+03 0.  0.
        -24    2    3    3    0    0 -0.13415801661E+03 -0.42433504260E+02  0.33669848550E+03  0.37389539007E+03  0.81442721455E+02 0.  0.
          6    2    1    2  501    0  0.16643546735E+03  0.35709503735E+02  0.10990826658E+04  0.11257039111E+04  0.17392715632E+03 0.  0.
         24    2    5    5    0    0  0.12930824644E+03 -0.31067261574E+02  0.56728097580E+03  0.58842121603E+03  0.82134186694E+02 0.  0.
          5    1    5    5  501    0  0.37127220914E+02  0.66776765309E+02  0.53180169001E+03  0.53728269506E+03  0.47000000000E+01 0. -1.
        -13    1    6    6    0    0  0.65420604900E+02 -0.43586113210E+02  0.19091044671E+03  0.20646162712E+03  0.00000000000E+00 0.  1.
         14    1    6    6    0    0  0.63887641538E+02  0.12518851636E+02  0.37637052910E+03  0.38195958891E+03  0.00000000000E+00 0. -1.
         -5    1    3    3    0  503 -0.32277450746E+02  0.67240005253E+01  0.41159083310E+03  0.41293601187E+03  0.47000000000E+01 0.  1.
         11    1    4    4    0    0 -0.12053144899E+03 -0.35457933994E+02  0.33583033788E+03  0.35856256235E+03  0.00000000000E+00 0. -1.
        -12    1    4    4    0    0 -0.13626567621E+02 -0.69755702664E+01  0.86814761517E+00  0.15332827722E+02  0.00000000000E+00 0.  1.
</event>
<event>
12    1  0.8417180E-002  0.1767001E+03  0.7818608E-02  0.1171886E+00
         21   -1    0    0  501  502  0.00000000000E+00  0.00000000000E+00  0.23863955309E+03  0.23863955309E+03  0.00000000000E+00 0.  1.
         21   -1    0    0  502  503 -0.00000000000E+00 -0.00000000000E+00 -0.16093373280E+03  0.16093373280E+03  0.00000000000E+00 0.  1.
         -6    2    1    2    0  503 -0.52510467991E+01  0.41042509977E+02 -0.51361122458E+02  0.18075554448E+03  0.16829302078E+03 0.  0.
        -24    2    3    3    0    0  0.32887674795E+02  0.13914588530E+02  0.25378812750E+02  0.90746690127E+02  0.79471143851E+02 0.  0.
          6    2    1    2  501    0  0.52510467991E+01 -0.41042509977E+02  0.12906694275E+03  0.21881774141E+03  0.17178727289E+03 0.  0.
         24    2    5    5    0    0  0.64952490511E+02 -0.24603906671E+02  0.49048770692E+02  0.11752861109E+03  0.81135776772E+02 0.  0.
          5    1    5    5  501    0 -0.59701443712E+02 -0.16438603306E+02  0.80018172061E+02  0.10128913031E+03  0.47000000000E+01 0. -1.
        -13    1    6    6    0    0  0.21372246921E+02  0.16230821420E+02  0.51157547549E+02  0.57769431135E+02  0.00000000000E+00 0.  1.
         14    1    6    6    0    0  0.43580243590E+02 -0.40834728091E+02 -0.21087768570E+01  0.59759179960E+02  0.00000000000E+00 0. -1.
         -5    1    3    3    0  503 -0.38138721595E+02  0.27127921447E+02 -0.76739935208E+02  0.90008854357E+02  0.47000000000E+01 0.  1.
         11    1    4    4    0    0  0.33852102886E+02 -0.27723832540E+02  0.21959233257E+02  0.48956957480E+02  0.00000000000E+00 0. -1.
        -12    1    4    4    0    0 -0.96442809022E+00  0.41638421070E+02  0.34195794928E+01  0.41789732647E+02  0.00000000000E+00 0.  1.
</event>
<event>
12    1  0.8417180E-002  0.2379870E+03  0.7818608E-02  0.1121359E+00
         21   -1    0    0  501  502  0.00000000000E+00  0.00000000000E+00  0.53206760904E+03  0.53206760904E+03  0.00000000000E+00 0.  1.
         21   -1    0    0  502  503 -0.00000000000E+00 -0.00000000000E+00 -0.19168164073E+03  0.19168164073E+03  0.00000000000E+00 0.  1.
         -6    2    1    2    0  503  0.13405885164E+03  0.93478037804E+02 -0.71674871885E+02  0.24854600379E+03  0.17299684820E+03 0.  0.
        -24    2    3    3    0    0  0.48407723765E+02 -0.20594067800E+02 -0.81841368006E+01  0.92335490622E+02  0.75441628989E+02 0.  0.
          6    2    1    2  501    0 -0.13405885164E+03 -0.93478037804E+02  0.41206084020E+03  0.47520324598E+03  0.17121352080E+03 0.  0.
         24    2    5    5    0    0 -0.65095869920E+02 -0.47961519460E+02  0.35941574978E+03  0.37711531687E+03  0.80613283051E+02 0.  0.
          5    1    5    5  501    0 -0.68962981721E+02 -0.45516518344E+02  0.52645090423E+02  0.98087929102E+02  0.47000000000E+01 0. -1.
        -13    1    6    6    0    0 -0.12096506335E+02 -0.49280866014E+02  0.25512952256E+03  0.26012689693E+03  0.00000000000E+00 0.  1.
         14    1    6    6    0    0 -0.52999363585E+02  0.13193465541E+01  0.10428622721E+03  0.11698841995E+03  0.00000000000E+00 0. -1.
         -5    1    3    3    0  503  0.85651127876E+02  0.11407210560E+03 -0.63490735084E+02  0.15621051317E+03  0.47000000000E+01 0.  1.
         11    1    4    4    0    0  0.19951459576E+02  0.13745787781E+02  0.26449459175E+02  0.35868946340E+02  0.00000000000E+00 0. -1.
        -12    1    4    4    0    0  0.28456264189E+02 -0.34339855581E+02 -0.34633595975E+02  0.56466544281E+02  0.00000000000E+00 0.  1.
</event>
<event>
12    1  0.8417180E-002  0.1771784E+03  0.7818608E-02  0.1170852E+00
         21   -1    0    0  503  502  0.00000000000E+00  0.00000000000E+00  0.48898343529E+02  0.48898343529E+02  0.00000000000E+00 0. -1.
         21   -1    0    0  501  503 -0.00000000000E+00 -0.00000000000E+00 -0.69057135584E+03  0.69057135584E+03  0.00000000000E+00 0. -1.
          6    2    1    2  501    0  0.25750155783E+02  0.24333450061E+02 -0.42209878949E+03  0.45732606772E+03  0.17240811122E+03 0.  0.
         24    2    3    3    0    0 -0.32574525920E+02  0.17866307918E+02 -0.36475019603E+03  0.37514003731E+03  0.79416858360E+02 0.  0.
         -6    2    1    2    0  502 -0.25750155783E+02 -0.24333450061E+02 -0.21957422282E+03  0.28214363165E+03  0.17360012165E+03 0.  0.
        -24    2    5    5    0    0 -0.26897661286E+02 -0.69477078674E+02 -0.20749352460E+03  0.23516174958E+03  0.81834815750E+02 0.  0.
          5    1    3    3  501    0  0.58324681703E+02  0.64671421435E+01 -0.57348593460E+02  0.82186030413E+02  0.47000000000E+01 0. -1.
        -13    1    4    4    0    0 -0.46701014331E+02  0.32113245546E+02 -0.16660027793E+03  0.17597698112E+03  0.00000000000E+00 0.  1.
         14    1    4    4    0    0  0.14126488411E+02 -0.14246937628E+02 -0.19814991810E+03  0.19916305619E+03  0.00000000000E+00 0. -1.
         -5    1    5    5    0  502  0.11475055028E+01  0.45143628613E+02 -0.12080698220E+02  0.46981882069E+02  0.47000000000E+01 0.  1.
         13    1    6    6    0    0 -0.56225438506E+02 -0.39817572179E+02 -0.12544018920E+03  0.14311526843E+03  0.00000000000E+00 0. -1.
        -14    1    6    6    0    0  0.29327777220E+02 -0.29659506495E+02 -0.82053335400E+02  0.92046481153E+02  0.00000000000E+00 0.  1.
</event>
<event>
12    1  0.8417180E-002  0.1945099E+03  0.7818608E-02  0.1159337E+00
         21   -1    0    0  501  502  0.00000000000E+00  0.00000000000E+00  0.57836984689E+02  0.57836984689E+02  0.00000000000E+00 0. -1.
         21   -1    0    0  502  503 -0.00000000000E+00 -0.00000000000E+00 -0.63262482699E+03  0.63262482699E+03  0.00000000000E+00 0. -1.
         -6    2    1    2    0  503  0.20341383816E+02 -0.15212724404E+02 -0.39673287846E+03  0.44184962327E+03  0.19284427359E+03 0.  0.
        -24    2    3    3    0    0  0.83686901738E+02 -0.13775736386E+02 -0.32447429855E+03  0.34563054020E+03  0.83568124715E+02 0.  0.
          6    2    1    2  501    0 -0.20341383816E+02  0.15212724404E+02 -0.17805496384E+03  0.24861218841E+03  0.17163697503E+03 0.  0.
         24    2    5    5    0    0  0.50782338705E+02 -0.16467087600E+02 -0.92046820869E+02  0.13250152976E+03  0.78955856390E+02 0.  0.
          5    1    5    5  501    0 -0.71123722520E+02  0.31679812004E+02 -0.86008142972E+02  0.11611065865E+03  0.47000000000E+01 0. -1.
        -13    1    6    6    0    0  0.30397933217E+02  0.19046635670E+02 -0.48888010859E+01  0.36203715973E+02  0.00000000000E+00 0.  1.
         14    1    6    6    0    0  0.20384405488E+02 -0.35513723270E+02 -0.87158019783E+02  0.96297813787E+02  0.00000000000E+00 0. -1.
         -5    1    3    3    0  503 -0.63345517923E+02 -0.14369880186E+01 -0.72258579908E+02  0.96219083065E+02  0.47000000000E+01 0.  1.
         11    1    4    4    0    0  0.25727259103E+01 -0.33264619137E+02 -0.64794984221E+02  0.72880338811E+02  0.00000000000E+00 0. -1.
        -12    1    4    4    0    0  0.81114175828E+02  0.19488882751E+02 -0.25967931433E+03  0.27275020139E+03  0.00000000000E+00 0.  1.
</event>
<event>
12    1  0.8417180E-002  0.1886988E+03  0.7818608E-02  0.1159957E+00
         21   -1    0    0  503  502  0.00000000000E+00  0.00000000000E+00  0.56273346145E+03  0.56273346145E+03  0.00000000000E+00 0.  1.
         21   -1    0    0  501  503 -0.00000000000E+00 -0.00000000000E+00 -0.15052316849E+03  0.15052316849E+03  0.00000000000E+00 0.  1.
          6    2    1    2  501    0  0.74625749526E+02  0.20926701319E+02 -0.66445280284E+02  0.19874871483E+03  0.17052608907E+03 0.  0.
         24    2    3    3    0    0  0.37584638089E+02  0.67807877110E+02 -0.10698847646E+02  0.11689736583E+03  0.86833263092E+02 0.  0.
         -6    2    1    2    0  502 -0.74625749526E+02 -0.20926701319E+02  0.47865557325E+03  0.51450791511E+03  0.17204739925E+03 0.  0.
        -24    2    5    5    0    0 -0.57890192301E+02 -0.62660119627E+02  0.18850516766E+03  0.22085658284E+03  0.77239025067E+02 0.  0.
          5    1    3    3  501    0  0.37041111437E+02 -0.46881175792E+02 -0.55746432638E+02  0.81851348993E+02  0.47000000000E+01 0. -1.
        -13    1    4    4    0    0  0.62679161505E+02  0.45325627284E+02 -0.23520883685E+02  0.80847521576E+02  0.00000000000E+00 0.  1.
         14    1    4    4    0    0 -0.25094523416E+02  0.22482249826E+02  0.12822036039E+02  0.36049844257E+02  0.00000000000E+00 0. -1.
         -5    1    5    5    0  502 -0.16735557225E+02  0.41733418309E+02  0.29015040559E+03  0.29365133227E+03  0.47000000000E+01 0.  1.
         13    1    6    6    0    0 -0.21491119554E+02 -0.47867493528E+01  0.18745338839E+01  0.22097399538E+02  0.00000000000E+00 0. -1.
        -14    1    6    6    0    0 -0.36399072747E+02 -0.57873370274E+02  0.18663063378E+03  0.19875918330E+03  0.00000000000E+00 0.  1.
</event>
<event>
12    1  0.8417180E-002  0.1882917E+03  0.7818608E-02  0.1160870E+00
         21   -1    0    0  503  502  0.00000000000E+00  0.00000000000E+00  0.31199809469E+02  0.31199809469E+02  0.00000000000E+00 0. -1.
         21   -1    0    0  501  503 -0.00000000000E+00 -0.00000000000E+00 -0.11140916919E+04  0.11140916919E+04  0.00000000000E+00 0. -1.
          6    2    1    2  501    0  0.60337137441E+02  0.45532902638E+02 -0.54156808668E+03  0.57215518844E+03  0.16837978432E+03 0.  0.
         24    2    3    3    0    0  0.38891260176E+02  0.14813974109E+02 -0.52377455684E+03  0.53041458559E+03  0.72580040452E+02 0.  0.
         -6    2    1    2    0  502 -0.60337137441E+02 -0.45532902638E+02 -0.54132379572E+03  0.57313631290E+03  0.17245279347E+03 0.  0.
        -24    2    5    5    0    0 -0.72978891972E+02 -0.16833705222E+02 -0.52681236733E+03  0.53826326538E+03  0.81158980863E+02 0.  0.
          5    1    3    3  501    0  0.21445877266E+02  0.30718928529E+02 -0.17793529845E+02  0.41740602847E+02  0.47000000000E+01 0. -1.
        -11    1    4    4    0    0  0.34015848790E+02  0.29040101666E+02 -0.15474981624E+03  0.16108355316E+03  0.00000000000E+00 0.  1.
         12    1    4    4    0    0  0.48754113862E+01 -0.14226127557E+02 -0.36902474060E+03  0.36933103243E+03  0.00000000000E+00 0. -1.
         -5    1    5    5    0  502  0.12641754531E+02 -0.28699197416E+02 -0.14511428391E+02  0.34873047528E+02  0.47000000000E+01 0.  1.
         13    1    6    6    0    0 -0.68057549173E+02 -0.45014098978E+02 -0.40482045087E+03  0.41296210062E+03  0.00000000000E+00 0. -1.
        -14    1    6    6    0    0 -0.49213427989E+01  0.28180393755E+02 -0.12199191646E+03  0.12530116476E+03  0.00000000000E+00 0.  1.
</event>
<event>
12    1  0.8417180E-002  0.3012960E+03  0.7818608E-02  0.1084600E+00
         21   -1    0    0  501  502  0.00000000000E+00  0.00000000000E+00  0.13472778568E+03  0.13472778568E+03  0.00000000000E+00 0. -1.
         21   -1    0    0  502  503 -0.00000000000E+00 -0.00000000000E+00 -0.13984696961E+04  0.13984696961E+04  0.00000000000E+00 0. -1.
         -6    2    1    2    0  503 -0.19134211102E+03  0.15841863935E+03 -0.79973653569E+02  0.31168752939E+03  0.17042611879E+03 0.  0.
        -24    2    3    3    0    0 -0.21584483213E+03  0.15181431210E+03 -0.72510859715E+02  0.28482149559E+03  0.78923270715E+02 0.  0.
          6    2    1    2  501    0  0.19134211102E+03 -0.15841863935E+03 -0.11837682569E+04  0.12215099524E+04  0.17050222622E+03 0.  0.
         24    2    5    5    0    0  0.59169637778E+02 -0.13042535975E+03 -0.57892831610E+03  0.60174658602E+03  0.80181906302E+02 0.  0.
          5    1    5    5  501    0  0.13217247325E+03 -0.27993279597E+02 -0.60483994075E+03  0.61976336639E+03  0.47000000000E+01 0. -1.
        -11    1    6    6    0    0 -0.41173394011E+01  0.79929703597E+01 -0.69167719032E+02  0.69749648135E+02  0.00000000000E+00 0.  1.
         12    1    6    6    0    0  0.63286977179E+02 -0.13841833011E+03 -0.50976059707E+03  0.53199693788E+03  0.00000000000E+00 0. -1.
         -5    1    3    3    0  503  0.24502721102E+02  0.66043272451E+01 -0.74627938545E+01  0.26866033795E+02  0.47000000000E+01 0.  1.
         11    1    4    4    0    0 -0.12386043165E+03  0.12388212773E+03 -0.70024685789E+02  0.18865747989E+03  0.00000000000E+00 0. -1.
        -12    1    4    4    0    0 -0.91984400480E+02  0.27932184375E+02 -0.24861739260E+01  0.96164015705E+02  0.00000000000E+00 0.  1.
</event>
<event>
12    1  0.8417180E-002  0.2306133E+03  0.7818608E-02  0.1126241E+00
         21   -1    0    0  503  502  0.00000000000E+00  0.00000000000E+00  0.79821801870E+02  0.79821801870E+02  0.00000000000E+00 0. -1.
         21   -1    0    0  501  503 -0.00000000000E+00 -0.00000000000E+00 -0.10723144852E+04  0.10723144852E+04  0.00000000000E+00 0.  1.
          6    2    1    2  501    0 -0.19797305114E+02  0.15225824637E+03 -0.85084234677E+03  0.88149388314E+03  0.17182624970E+03 0.  0.
         24    2    3    3    0    0 -0.79948232712E+02  0.87337166801E+02 -0.57696822326E+03  0.59363626870E+03  0.74109299342E+02 0.  0.
         -6    2    1    2    0  502  0.19797305114E+02 -0.15225824637E+03 -0.14165033652E+03  0.27064240388E+03  0.17206971281E+03 0.  0.
        -24    2    5    5    0    0  0.51766653490E+02 -0.32650066133E+02 -0.29521545660E+02  0.10354030409E+03  0.78123361940E+02 0.  0.
          5    1    3    3  501    0  0.60150927598E+02  0.64921079572E+02 -0.27387412351E+03  0.28785761444E+03  0.47000000000E+01 0. -1.
        -11    1    4    4    0    0 -0.22518146511E+02  0.57173956199E+02 -0.40876161765E+03  0.41335455514E+03  0.00000000000E+00 0.  1.
         12    1    4    4    0    0 -0.57430086201E+02  0.30163210602E+02 -0.16820660561E+03  0.18028171356E+03  0.00000000000E+00 0. -1.
         -5    1    5    5    0  502 -0.31969348376E+02 -0.11960818024E+03 -0.11212879086E+03  0.16710209979E+03  0.47000000000E+01 0.  1.
         11    1    6    6    0    0  0.32104602353E+02 -0.58389893619E+02 -0.16622556112E+02  0.68676011392E+02  0.00000000000E+00 0. -1.
        -12    1    6    6    0    0  0.19662051137E+02  0.25739827486E+02 -0.12898989548E+02  0.34864292697E+02  0.00000000000E+00 0.  1.
</event>
<event>
12    1  0.8417180E-002  0.2382981E+03  0.7818608E-02  0.1121270E+00
         21   -1    0    0  503  502  0.00000000000E+00  0.00000000000E+00  0.61039567355E+03  0.61039567355E+03  0.00000000000E+00 0.  1.
         21   -1    0    0  501  503 -0.00000000000E+00 -0.00000000000E+00 -0.10779633575E+03  0.10779633575E+03  0.00000000000E+00 0.  1.
          6    2    1    2  501    0 -0.51404763479E+02  0.15565115849E+03  0.38857129859E+03  0.45582194789E+03  0.17296317887E+03 0.  0.
         24    2    3    3    0    0 -0.96593608196E+02  0.82866543761E+02  0.26196897703E+03  0.30288447815E+03  0.83150904726E+02 0.  0.
         -6    2    1    2    0  502  0.51404763479E+02 -0.15565115849E+03  0.11402803921E+03  0.26237006140E+03  0.17019377940E+03 0.  0.
        -24    2    5    5    0    0  0.91540980273E+02 -0.81940210395E+02  0.98966770105E+02  0.17697011061E+03  0.80187588296E+02 0.  0.
          5    1    3    3  501    0  0.45188844717E+02  0.72784614730E+02  0.12660232156E+03  0.15293746975E+03  0.47000000000E+01 0. -1.
        -13    1    4    4    0    0 -0.20905254920E+02  0.62642217411E+02  0.16816974979E+03  0.18067136416E+03  0.00000000000E+00 0.  1.
         14    1    4    4    0    0 -0.75688353276E+02  0.20224326350E+02  0.93799227245E+02  0.12221311398E+03  0.00000000000E+00 0. -1.
         -5    1    5    5    0  502 -0.40136216794E+02 -0.73710948097E+02  0.15061269103E+02  0.85399950790E+02  0.47000000000E+01 0.  1.
         11    1    6    6    0    0  0.89047658353E+01  0.15842717973E+02  0.76640031788E+01  0.19723678969E+02  0.00000000000E+00 0. -1.
        -12    1    6    6    0    0  0.82636214438E+02 -0.97782928367E+02  0.91302766926E+02  0.15724643164E+03  0.00000000000E+00 0.  1.
</event>
<event>
12    1  0.8417180E-002  0.1869824E+03  0.7818608E-02  0.1163822E+00
         21   -1    0    0  503  502  0.00000000000E+00  0.00000000000E+00  0.97507438229E+03  0.97507438229E+03  0.00000000000E+00 0.  1.
         21   -1    0    0  501  503 -0.00000000000E+00 -0.00000000000E+00 -0.33934397069E+02  0.33934397069E+02  0.00000000000E+00 0.  1.
          6    2    1    2  501    0 -0.47261948799E+02  0.57984831863E+02  0.45097213430E+03  0.48819903075E+03  0.17136655208E+03 0.  0.
         24    2    3    3    0    0  0.10846499560E+02  0.49135954556E+02  0.39629656749E+03  0.40778508913E+03  0.81888466386E+02 0.  0.
         -6    2    1    2    0  502  0.47261948799E+02 -0.57984831863E+02  0.49016785092E+03  0.52080974862E+03  0.15931835942E+03 0.  0.
        -24    2    5    5    0    0  0.14433831945E+02  0.16082933167E+02  0.14401951992E+03  0.16527567693E+03  0.78150054536E+02 0.  0.
          5    1    3    3  501    0 -0.58108448360E+02  0.88488773071E+01  0.54675566812E+02  0.80413941618E+02  0.47000000000E+01 0. -1.
        -11    1    4    4    0    0  0.29814512614E+02  0.19416848114E+02  0.60832880221E+02  0.70473814067E+02  0.00000000000E+00 0.  1.
         12    1    4    4    0    0 -0.18968013053E+02  0.29719106442E+02  0.33546368727E+03  0.33731127506E+03  0.00000000000E+00 0. -1.
         -5    1    5    5    0  502  0.32828116855E+02 -0.74067765030E+02  0.34614833100E+03  0.35553407168E+03  0.47000000000E+01 0.  1.
         11    1    6    6    0    0  0.35196586229E+02  0.26776348037E+02  0.43330835169E+02  0.61913922286E+02  0.00000000000E+00 0. -1.
        -12    1    6    6    0    0 -0.20762754284E+02 -0.10693414870E+02  0.10068868475E+03  0.10336175465E+03  0.00000000000E+00 0.  1.
</event>
<event>
12    1  0.8417180E-002  0.1900972E+03  0.7818608E-02  0.1159862E+00
         21   -1    0    0  501  502  0.00000000000E+00  0.00000000000E+00  0.66179242764E+03  0.66179242764E+03  0.00000000000E+00 0.  1.
         21   -1    0    0  502  503 -0.00000000000E+00 -0.00000000000E+00 -0.54787581562E+02  0.54787581562E+02  0.00000000000E+00 0.  1.
         -6    2    1    2    0  503 -0.58605534323E+02 -0.28758336434E+02  0.22949638604E+03  0.29391039835E+03  0.17161899803E+03 0.  0.
        -24    2    3    3    0    0  0.13308038984E+02 -0.54069592134E+02  0.81432833308E+02  0.12730569452E+03  0.80466196762E+02 0.  0.
          6    2    1    2  501    0  0.58605534323E+02  0.28758336434E+02  0.37750846004E+03  0.42266961085E+03  0.17853658440E+03 0.  0.
         24    2    5    5    0    0  0.23338022608E+02  0.62080694496E+02  0.35444355064E+03  0.36874135319E+03  0.77079692717E+02 0.  0.
          5    1    5    5  501    0  0.35267511715E+02 -0.33322358062E+02  0.23064909397E+02  0.53928257666E+02  0.47000000000E+01 0. -1.
        -13    1    6    6    0    0  0.24279110640E+02 -0.11889182435E+02  0.77127619060E+02  0.81728192775E+02  0.00000000000E+00 0.  1.
         14    1    6    6    0    0 -0.94108803162E+00  0.73969876930E+02  0.27731593158E+03  0.28701316041E+03  0.00000000000E+00 0. -1.
         -5    1    3    3    0  503 -0.71913573307E+02  0.25311255701E+02  0.14806355273E+03  0.16660470383E+03  0.47000000000E+01 0.  1.
         13    1    4    4    0    0 -0.67417175434E+01 -0.70799189139E+02  0.65687071233E+02  0.96813053177E+02  0.00000000000E+00 0. -1.
        -14    1    4    4    0    0  0.20049756528E+02  0.16729597005E+02  0.15745762075E+02  0.30492641343E+02  0.00000000000E+00 0.  1.
</event>
<event>
12    1  0.8417180E-002  0.2262621E+03  0.7818608E-02  0.1129720E+00
         21   -1    0    0  503  502  0.00000000000E+00  0.00000000000E+00  0.27284644570E+03  0.27284644570E+03  0.00000000000E+00 0.  1.
         21   -1    0    0  501  503 -0.00000000000E+00 -0.00000000000E+00 -0.22266140672E+03  0.22266140672E+03  0.00000000000E+00 0.  1.
          6    2    1    2  501    0  0.69819543196E+02  0.12544958723E+03 -0.75953475987E+02  0.23646066542E+03  0.17184978391E+03 0.  0.
         24    2    3    3    0    0  0.47473254386E+02  0.15165616440E+03 -0.89434853006E+02  0.19917824547E+03  0.80125392057E+02 0.  0.
         -6    2    1    2    0  502 -0.69819543196E+02 -0.12544958723E+03  0.12613851497E+03  0.25904718700E+03  0.17487753597E+03 0.  0.
        -24    2    5    5    0    0  0.55399626093E+01 -0.11254095663E+02  0.62015518484E+01  0.77039960412E+02  0.75758500514E+02 0.  0.
          5    1    3    3  501    0  0.22346288810E+02 -0.26206577178E+02  0.13481377019E+02  0.37282419949E+02  0.47000000000E+01 0. -1.
        -13    1    4    4    0    0  0.37579526447E+02  0.12552891408E+03 -0.31361304311E+02  0.13473403611E+03  0.00000000000E+00 0.  1.
         14    1    4    4    0    0  0.98937279394E+01  0.26127250323E+02 -0.58073548695E+02  0.64444209359E+02  0.00000000000E+00 0. -1.
         -5    1    5    5    0  502 -0.75359505806E+02 -0.11419549156E+03  0.11993696312E+03  0.18200722659E+03  0.47000000000E+01 0.  1.
         11    1    6    6    0    0 -0.31629661623E+02  0.10597442403E+02  0.61667617769E+01  0.33923004446E+02  0.00000000000E+00 0. -1.
        -12    1    6    6    0    0  0.37169624232E+02 -0.21851538066E+02  0.34790071536E-01  0.43116955966E+02  0.00000000000E+00 0.  1.
</event>
<event>
12    1  0.8417180E-002  0.2242083E+03  0.7818608E-02  0.1131303E+00
         21   -1    0    0  503  502  0.00000000000E+00  0.00000000000E+00  0.26547990232E+03  0.26547990232E+03  0.00000000000E+00 0.  1.
         21   -1    0    0  501  503 -0.00000000000E+00 -0.00000000000E+00 -0.44933185617E+03  0.44933185617E+03  0.00000000000E+00 0.  1.
          6    2    1    2  501    0  0.13713132703E+03  0.40069985195E+02 -0.36478640985E+03  0.42670301276E+03  0.16910272536E+03 0.  0.
         24    2    3    3    0    0  0.96932221898E+02  0.15854122518E+02 -0.10758692878E+03  0.16521488852E+03  0.77934609134E+02 0.  0.
         -6    2    1    2    0  502 -0.13713132703E+03 -0.40069985195E+02  0.18093445600E+03  0.28810874572E+03  0.17279689647E+03 0.  0.
        -24    2    5    5    0    0 -0.48508418479E+02  0.35618512467E+02  0.12979372868E+03  0.16075006879E+03  0.73296845223E+02 0.  0.
          5    1    3    3  501    0  0.40199105129E+02  0.24215862677E+02 -0.25719948106E+03  0.26148812424E+03  0.47000000000E+01 0. -1.
        -11    1    4    4    0    0  0.50732490397E+02  0.24144967491E+02 -0.10391755373E+03  0.11813391981E+03  0.00000000000E+00 0.  1.
         12    1    4    4    0    0  0.46199731502E+02 -0.82908449732E+01 -0.36693750527E+01  0.47080968708E+02  0.00000000000E+00 0. -1.
         -5    1    5    5    0  502 -0.88622908549E+02 -0.75688497662E+02  0.51140727318E+02  0.12735867693E+03  0.47000000000E+01 0.  1.
         11    1    6    6    0    0 -0.16119985259E+00  0.45408300273E+02  0.58519447184E+02  0.74070678530E+02  0.00000000000E+00 0. -1.
        -12    1    6    6    0    0 -0.48347218626E+02 -0.97897878066E+01  0.71274281494E+02  0.86679390265E+02  0.00000000000E+00 0.  1.
</event>
<event>
12    1  0.8417180E-002  0.2372282E+03  0.7818608E-02  0.1121677E+00
         21   -1    0    0  503  502  0.00000000000E+00  0.00000000000E+00  0.10392148550E+04  0.10392148550E+04  0.00000000000E+00 0. -1.
         21   -1    0    0  501  503 -0.00000000000E+00 -0.00000000000E+00 -0.47642349312E+03  0.47642349312E+03  0.00000000000E+00 0. -1.
          6    2    1    2  501    0 -0.15419167349E+03  0.55824602264E+02 -0.43209155333E+03  0.49286308173E+03  0.17122922787E+03 0.  0.
         24    2    3    3    0    0 -0.14654133358E+03  0.95360167523E+01 -0.22333015584E+03  0.27884305478E+03  0.79446791196E+02 0.  0.
         -6    2    1    2    0  502  0.15419167349E+03 -0.55824602264E+02  0.99488291525E+03  0.10227752664E+04  0.17142278779E+03 0.  0.
        -24    2    5    5    0    0  0.91504434232E+02 -0.81488254701E+02  0.43653461860E+03  0.46031351360E+03  0.79452252520E+02 0.  0.
          5    1    3    3  501    0 -0.76503399109E+01  0.46288585512E+02 -0.20876139749E+03  0.21402002694E+03  0.47000000000E+01 0. -1.
        -11    1    4    4    0    0 -0.11880002397E+03 -0.14230239177E+02 -0.20641844562E+03  0.23858860009E+03  0.00000000000E+00 0.  1.
         12    1    4    4    0    0 -0.27741309615E+02  0.23766255930E+02 -0.16911710217E+02  0.40254454692E+02  0.00000000000E+00 0. -1.
         -5    1    5    5    0  502  0.62687239260E+02  0.25663652437E+02  0.55834829666E+03  0.56246175284E+03  0.47000000000E+01 0.  1.
         13    1    6    6    0    0  0.25553443510E+02 -0.44985895633E+02  0.29931101299E+03  0.30374955437E+03  0.00000000000E+00 0. -1.
        -14    1    6    6    0    0  0.65950990722E+02 -0.36502359068E+02  0.13722360560E+03  0.15656395923E+03  0.00000000000E+00 0.  1.
</event>
<event>
12    1  0.8417180E-002  0.2020954E+03  0.7818608E-02  0.1148003E+00
         21   -1    0    0  501  502  0.00000000000E+00  0.00000000000E+00  0.35894633178E+03  0.35894633178E+03  0.00000000000E+00 0. -1.
         21   -1    0    0  502  503 -0.00000000000E+00 -0.00000000000E+00 -0.12297095442E+03  0.12297095442E+03  0.00000000000E+00 0. -1.
         -6    2    1    2    0  503  0.10099688403E+03  0.34503189928E+02  0.51910331606E+02  0.20856315008E+03  0.17150237417E+03 0.  0.
        -24    2    3    3    0    0  0.13681172592E+02  0.67655603349E+02  0.17780248026E+02  0.10901382269E+03  0.82482853790E+02 0.  0.
          6    2    1    2  501    0 -0.10099688403E+03 -0.34503189928E+02  0.18406504576E+03  0.27335413612E+03  0.17161498176E+03 0.  0.
         24    2    5    5    0    0 -0.71563264479E+02  0.48759384753E+01  0.19559322132E+03  0.22263882733E+03  0.78525560244E+02 0.  0.
          5    1    5    5  501    0 -0.29433619549E+02 -0.39379128403E+02 -0.11528175560E+02  0.50715308787E+02  0.47000000000E+01 0. -1.
        -13    1    6    6    0    0 -0.45480240778E+02  0.96903820445E+00  0.28949390350E+02  0.53920854388E+02  0.00000000000E+00 0.  1.
         14    1    6    6    0    0 -0.26083023701E+02  0.39069002708E+01  0.16664383097E+03  0.16871797294E+03  0.00000000000E+00 0. -1.
         -5    1    3    3    0  503  0.87315711437E+02 -0.33152413421E+02  0.34130083580E+02  0.99549327394E+02  0.47000000000E+01 0.  1.
         11    1    4    4    0    0  0.23233311610E+02 -0.15683399423E+01  0.30100318656E+02  0.38056216860E+02  0.00000000000E+00 0. -1.
        -12    1    4    4    0    0 -0.95521390187E+01  0.69223943291E+02 -0.12320070629E+02  0.70957605829E+02  0.00000000000E+00 0.  1.
</event>
<event>
12    1  0.8417180E-002  0.2267058E+03  0.7818608E-02  0.1131278E+00
         21   -1    0    0  501  502  0.00000000000E+00  0.00000000000E+00  0.98011049430E+02  0.98011049430E+02  0.00000000000E+00 0.  1.
         21   -1    0    0  502  503 -0.00000000000E+00 -0.00000000000E+00 -0.49601513038E+03  0.49601513038E+03  0.00000000000E+00 0.  1.
         -6    2    1    2    0  503 -0.12267245902E+03 -0.34916260383E+02 -0.19310439886E+03  0.28844574467E+03  0.17217421793E+03 0.  0.
        -24    2    3    3    0    0 -0.59153334492E+02 -0.86035042817E+02 -0.13298090864E+03  0.18703207116E+03  0.79974545997E+02 0.  0.
          6    2    1    2  501    0  0.12267245902E+03  0.34916260383E+02 -0.20489968209E+03  0.30558043514E+03  0.18742423850E+03 0.  0.
         24    2    5    5    0    0  0.10775638195E+02  0.18180206314E+02 -0.16752659681E+03  0.18633350009E+03  0.78793263262E+02 0.  0.
          5    1    5    5  501    0  0.11189682082E+03  0.16736054069E+02 -0.37373085278E+02  0.11924693505E+03  0.47000000000E+01 0. -1.
        -13    1    6    6    0    0  0.25398347935E+02  0.37317040825E+02 -0.14973308138E+03  0.15638936432E+03  0.00000000000E+00 0.  1.
         14    1    6    6    0    0 -0.14622709740E+02 -0.19136834511E+02 -0.17793515431E+02  0.29944135764E+02  0.00000000000E+00 0. -1.
         -5    1    3    3    0  503 -0.63519124525E+02  0.51118782434E+02 -0.60123490224E+02  0.10141367351E+03  0.47000000000E+01 0.  1.
         11    1    4    4    0    0 -0.20969627721E+02 -0.73910638863E+02 -0.12416390956E+03  0.14601090459E+03  0.00000000000E+00 0. -1.
        -12    1    4    4    0    0 -0.38183706770E+02 -0.12124403954E+02 -0.88169990824E+01  0.41021166570E+02  0.00000000000E+00 0.  1.
</event>
<event>
12    1  0.8417180E-002  0.2251460E+03  0.7818608E-02  0.1130290E+00
         21   -1    0    0  503  502  0.00000000000E+00  0.00000000000E+00  0.19241631028E+03  0.19241631028E+03  0.00000000000E+00 0.  1.
         21   -1    0    0  501  503 -0.00000000000E+00 -0.00000000000E+00 -0.34662229008E+03  0.34662229008E+03  0.00000000000E+00 0.  1.
          6    2    1    2  501    0 -0.10283291233E+03  0.10825369442E+03 -0.21021353508E+03  0.30802667502E+03  0.16851478266E+03 0.  0.
         24    2    3    3    0    0 -0.95220626995E+02  0.14091176468E+03 -0.16580181132E+03  0.25217877758E+03  0.84739612900E+02 0.  0.
         -6    2    1    2    0  502  0.10283291233E+03 -0.10825369442E+03  0.56007555286E+02  0.23101192534E+03  0.16714123725E+03 0.  0.
        -24    2    5    5    0    0  0.91753034709E+02 -0.11947085793E+03 -0.54628968139E+01  0.16737785486E+03  0.72757115001E+02 0.  0.
          5    1    3    3  501    0 -0.76122853313E+01 -0.32658070254E+02 -0.44411723766E+02  0.55847897441E+02  0.47000000000E+01 0. -1.
        -11    1    4    4    0    0 -0.19757982576E+02 -0.33103203002E+01 -0.45687597143E+02  0.49886798140E+02  0.00000000000E+00 0.  1.
         12    1    4    4    0    0 -0.75462644419E+02  0.14422208498E+03 -0.12011421417E+03  0.20229197944E+03  0.00000000000E+00 0. -1.
         -5    1    5    5    0  502  0.11079877617E+02  0.11217163506E+02  0.61470452100E+02  0.63634070485E+02  0.47000000000E+01 0.  1.
         11    1    6    6    0    0  0.12504642335E+02  0.13823740325E+01 -0.18390020573E+02  0.22281604398E+02  0.00000000000E+00 0. -1.
        -12    1    6    6    0    0  0.79248392375E+02 -0.12085323196E+03  0.12927123759E+02  0.14509625046E+03  0.00000000000E+00 0.  1.
</event>
<event>
12    1  0.8417180E-002  0.1950792E+03  0.7818608E-02  0.1154133E+00
         21   -1    0    0  501  502  0.00000000000E+00  0.00000000000E+00  0.14869071272E+03  0.14869071272E+03  0.00000000000E+00 0. -1.
         21   -1    0    0  502  503 -0.00000000000E+00 -0.00000000000E+00 -0.28208753900E+03  0.28208753900E+03  0.00000000000E+00 0.  1.
         -6    2    1    2    0  503  0.37297420508E+02 -0.83351781877E+02 -0.13370305343E+03  0.23650029004E+03  0.17238695883E+03 0.  0.
        -24    2    3    3    0    0  0.74085577671E+02 -0.44817560631E+02 -0.13910245721E+03  0.18274623647E+03  0.80928405296E+02 0.  0.
          6    2    1    2  501    0 -0.37297420508E+02  0.83351781877E+02  0.30622715080E+00  0.19427796168E+03  0.17147949003E+03 0.  0.
         24    2    5    5    0    0 -0.74000607528E+02  0.90085532169E+02  0.32642017816E+02  0.14467795474E+03  0.79213106489E+02 0.  0.
          5    1    5    5  501    0  0.36703187020E+02 -0.67337502915E+01 -0.32335790665E+02  0.49600006939E+02  0.47000000000E+01 0. -1.
        -13    1    6    6    0    0 -0.52351635776E+02  0.44715076199E+02 -0.20192778596E+02  0.71748729015E+02  0.00000000000E+00 0.  1.
         14    1    6    6    0    0 -0.21648971752E+02  0.45370455970E+02  0.52834796411E+02  0.72929225724E+02  0.00000000000E+00 0. -1.
         -5    1    3    3    0  503 -0.36788157163E+02 -0.38534221246E+02  0.53994037744E+01  0.53754053574E+02  0.47000000000E+01 0.  1.
         11    1    4    4    0    0  0.44335891637E+02 -0.54662458329E+02 -0.44938996470E+02  0.83505503062E+02  0.00000000000E+00 0. -1.
        -12    1    4    4    0    0  0.29749686034E+02  0.98448976982E+01 -0.94163460736E+02  0.99240733409E+02  0.00000000000E+00 0.  1.
</event>
<event>
12    1  0.8417180E-002  0.2743567E+03  0.7818608E-02  0.1098836E+00
         21   -1    0    0  503  502  0.00000000000E+00  0.00000000000E+00  0.24640640906E+03  0.24640640906E+03  0.00000000000E+00 0.  1.
         21   -1    0    0  501  503 -0.00000000000E+00 -0.00000000000E+00 -0.54907577432E+03  0.54907577432E+03  0.00000000000E+00 0.  1.
          6    2    1    2  501    0  0.13618517007E+03  0.16489472648E+03 -0.41638896688E+03  0.49864954369E+03  0.17185727891E+03 0.  0.
         24    2    3    3    0    0  0.79733611192E+02  0.12070162323E+02 -0.16459505955E+03  0.19870890343E+03  0.76749964837E+02 0.  0.
         -6    2    1    2    0  502 -0.13618517007E+03 -0.16489472648E+03  0.11371960162E+03  0.29683263968E+03  0.17158320670E+03 0.  0.
        -24    2    5    5    0    0 -0.10969461362E+03 -0.13173048966E+03  0.14953860502E+03  0.24109479626E+03  0.79869119355E+02 0.  0.
          5    1    3    3  501    0  0.56451558877E+02  0.15282456416E+03 -0.25179390733E+03  0.29994064026E+03  0.47000000000E+01 0. -1.
        -11    1    4    4    0    0  0.49398448287E+02  0.36177756949E+02 -0.14002727190E+03  0.15282890324E+03  0.00000000000E+00 0.  1.
         12    1    4    4    0    0  0.30335162905E+02 -0.24107594626E+02 -0.24567787648E+02  0.45880000186E+02  0.00000000000E+00 0. -1.
         -5    1    5    5    0  502 -0.26490556447E+02 -0.33164236822E+02 -0.35819003405E+02  0.55737843426E+02  0.47000000000E+01 0.  1.
         11    1    6    6    0    0  0.82960142173E+01 -0.26450745116E+02  0.40247669626E+02  0.48870652537E+02  0.00000000000E+00 0. -1.
        -12    1    6    6    0    0 -0.11799062784E+03 -0.10527974454E+03  0.10929093540E+03  0.19222414372E+03  0.00000000000E+00 0.  1.
</event>
<event>
12    1  0.8417180E-002  0.1937104E+03  0.7818608E-02  0.1155194E+00
         21   -1    0    0  501  502  0.00000000000E+00  0.00000000000E+00  0.13489962080E+03  0.13489962080E+03  0.00000000000E+00 0. -1.
         21   -1    0    0  502  503 -0.00000000000E+00 -0.00000000000E+00 -0.59798710024E+03  0.59798710024E+03  0.00000000000E+00 0.  1.
         -6    2    1    2    0  503  0.69616899804E+02  0.54638773257E+02 -0.49958782804E+03  0.53576748717E+03  0.17212464700E+03 0.  0.
        -24    2    3    3    0    0  0.85158729526E+02  0.96412408747E+02 -0.38902700957E+03  0.41646799147E+03  0.74540002503E+02 0.  0.
          6    2    1    2  501    0 -0.69616899804E+02 -0.54638773257E+02  0.36500348596E+02  0.19711923387E+03  0.17231311219E+03 0.  0.
         24    2    5    5    0    0 -0.54627474956E+02 -0.10470142402E+03  0.26672988302E+02  0.14373741235E+03  0.77475455414E+02 0.  0.
          5    1    5    5  501    0 -0.14989424848E+02  0.50062650765E+02  0.98273602939E+01  0.53381821524E+02  0.47000000000E+01 0. -1.
        -13    1    6    6    0    0 -0.12072595823E+02 -0.55806172343E+02 -0.23524083756E+02  0.61753210103E+02  0.00000000000E+00 0.  1.
         14    1    6    6    0    0 -0.42554879133E+02 -0.48895251679E+02  0.50197072058E+02  0.81984202246E+02  0.00000000000E+00 0. -1.
         -5    1    3    3    0  503 -0.15541829722E+02 -0.41773635490E+02 -0.11056081847E+03  0.11929949570E+03  0.47000000000E+01 0.  1.
         11    1    4    4    0    0  0.35917904305E+01 -0.96397522723E+01 -0.66515259550E+02  0.67306058682E+02  0.00000000000E+00 0. -1.
        -12    1    4    4    0    0  0.81566939096E+02  0.10605216102E+03 -0.32251175002E+03  0.34916193279E+03  0.00000000000E+00 0.  1.
</event>
<event>
12    1  0.8417180E-002  0.1823879E+03  0.7818608E-02  0.1165596E+00
         21   -1    0    0  503  502  0.00000000000E+00  0.00000000000E+00  0.60253570477E+02  0.60253570477E+02  0.00000000000E+00 0. -1.
         21   -1    0    0  501  503 -0.00000000000E+00 -0.00000000000E+00 -0.64196989043E+03  0.64196989043E+03  0.00000000000E+00 0. -1.
          6    2    1    2  501    0 -0.49764902420E+02 -0.35625747396E+02 -0.42326304692E+03  0.46088712632E+03  0.17181267976E+03 0.  0.
         24    2    3    3    0    0 -0.80462151108E+01  0.38401582275E+02 -0.14512755645E+03  0.17002300776E+03  0.79412797620E+02 0.  0.
         -6    2    1    2    0  502  0.49764902420E+02  0.35625747396E+02 -0.15845327303E+03  0.24133633459E+03  0.17143525678E+03 0.  0.
        -24    2    5    5    0    0  0.84933198904E+02  0.65574174948E+02 -0.10380732715E+03  0.16962868652E+03  0.80525209864E+02 0.  0.
          5    1    3    3  501    0 -0.41718687309E+02 -0.74027329672E+02 -0.27813549047E+03  0.29086411856E+03  0.47000000000E+01 0. -1.
        -13    1    4    4    0    0  0.13800127286E+02 -0.61213068658E+01  0.15613329223E+01  0.15177340721E+02  0.00000000000E+00 0.  1.
         14    1    4    4    0    0 -0.21846342397E+02  0.44522889141E+02 -0.14668888938E+03  0.15484566704E+03  0.00000000000E+00 0. -1.
         -5    1    5    5    0  502 -0.35168296484E+02 -0.29948427552E+02 -0.54645945877E+02  0.71707648066E+02  0.47000000000E+01 0.  1.
         13    1    6    6    0    0  0.32982075421E+02 -0.16236565900E+02 -0.35139836995E+02  0.50855201458E+02  0.00000000000E+00 0. -1.
        -14    1    6    6    0    0  0.51951123483E+02  0.81810740848E+02 -0.68667490158E+02  0.11877348506E+03  0.00000000000E+00 0.  1.
</event>
<event>
12    1  0.8417180E-002  0.1787071E+03  0.7818608E-02  0.1169143E+00
         21   -1    0    0  501  502  0.00000000000E+00  0.00000000000E+00  0.25322579673E+03  0.25322579673E+03  0.00000000000E+00 0.  1.
         21   -1    0    0  502  503 -0.00000000000E+00 -0.00000000000E+00 -0.14664004971E+03  0.14664004971E+03  0.00000000000E+00 0.  1.
         -6    2    1    2    0  503 -0.38329148387E+02 -0.60769258014E+01 -0.21980921626E+02  0.17971678880E+03  0.17409454505E+03 0.  0.
        -24    2    3    3    0    0  0.42136214385E+02 -0.26189805298E+02  0.35102767338E+01  0.92819759380E+02  0.78369759629E+02 0.  0.
          6    2    1    2  501    0  0.38329148387E+02  0.60769258014E+01  0.12856666864E+03  0.22014905765E+03  0.17444244510E+03 0.  0.
         24    2    5    5    0    0  0.22050389322E+02  0.24609388037E+02  0.15891145694E+03  0.18076192358E+03  0.79562429706E+02 0.  0.
          5    1    5    5  501    0  0.16278759064E+02 -0.18532462235E+02 -0.30344788296E+02  0.39387134066E+02  0.47000000000E+01 0. -1.
        -13    1    6    6    0    0  0.35452234001E+02 -0.32631677992E+01  0.14012269567E+03  0.14457482146E+03  0.00000000000E+00 0.  1.
         14    1    6    6    0    0 -0.13401844678E+02  0.27872555836E+02  0.18788761276E+02  0.36187102120E+02  0.00000000000E+00 0. -1.
         -5    1    3    3    0  503 -0.80465362771E+02  0.20112879497E+02 -0.25491198360E+02  0.86897029416E+02  0.47000000000E+01 0.  1.
         13    1    4    4    0    0  0.61600483799E+01 -0.41282225042E+02  0.24621788132E+02  0.48460300776E+02  0.00000000000E+00 0. -1.
        -14    1    4    4    0    0  0.35976166005E+02  0.15092419744E+02 -0.21111511398E+02  0.44359458604E+02  0.00000000000E+00 0.  1.
</event>
<event>
12    1  0.8417180E-002  0.2020030E+03  0.7818608E-02  0.1148183E+00
         21   -1    0    0  501  502  0.00000000000E+00  0.00000000000E+00  0.40848343965E+03  0.40848343965E+03  0.00000000000E+00 0.  1.
         21   -1    0    0  502  503 -0.00000000000E+00 -0.00000000000E+00 -0.18518609534E+03  0.18518609534E+03  0.00000000000E+00 0.  1.
         -6    2    1    2    0  503  0.81225637166E+02 -0.68196628798E+02 -0.90055467205E+02  0.22116780439E+03  0.17192098828E+03 0.  0.
        -24    2    3    3    0    0  0.84172961503E+02 -0.39399252246E+02  0.42754513563E+01  0.12238325188E+03  0.79510957301E+02 0.  0.
          6    2    1    2  501    0 -0.81225637166E+02  0.68196628798E+02  0.31335281151E+03  0.37250173060E+03  0.17122841617E+03 0.  0.
         24    2    5    5    0    0 -0.22719197444E+02  0.48216181172E+02  0.29089807629E+03  0.30655836922E+03  0.80717909344E+02 0.  0.
          5    1    5    5  501    0 -0.58506439722E+02  0.19980447627E+02  0.22454735219E+02  0.65943361380E+02  0.47000000000E+01 0. -1.
        -11    1    6    6    0    0 -0.53227728468E+02  0.30930636907E+02  0.17851665644E+03  0.18883350339E+03  0.00000000000E+00 0.  1.
         12    1    6    6    0    0  0.30508531024E+02  0.17285544265E+02  0.11238141986E+03  0.11772486583E+03  0.00000000000E+00 0. -1.
         -5    1    3    3    0  503 -0.29473243373E+01 -0.28797376553E+02 -0.94330918562E+02  0.98784552506E+02  0.47000000000E+01 0.  1.
         11    1    4    4    0    0  0.56556337607E+02  0.16908783169E+02  0.79347384879E+01  0.59560778593E+02  0.00000000000E+00 0. -1.
        -12    1    4    4    0    0  0.27616623896E+02 -0.56308035415E+02 -0.36592871317E+01  0.62822473288E+02  0.00000000000E+00 0.  1.
</event>
<event>
12    1  0.8417180E-002  0.2048311E+03  0.7818608E-02  0.1145953E+00
         21   -1    0    0  503  502  0.00000000000E+00  0.00000000000E+00  0.36810751080E+03  0.36810751080E+03  0.00000000000E+00 0.  1.
         21   -1    0    0  501  503 -0.00000000000E+00 -0.00000000000E+00 -0.16496128307E+03  0.16496128307E+03  0.00000000000E+00 0.  1.
          6    2    1    2  501    0  0.10991211534E+03 -0.18610280721E+02 -0.47306519453E+02  0.21022292116E+03  0.17183932656E+03 0.  0.
         24    2    3    3    0    0  0.12295863211E+03 -0.54557854370E+02 -0.88591729446E+01  0.15579197312E+03  0.78085013023E+02 0.  0.
         -6    2    1    2    0  502 -0.10991211534E+03  0.18610280721E+02  0.25045274719E+03  0.32284587271E+03  0.17051646050E+03 0.  0.
        -24    2    5    5    0    0 -0.14579900897E+02  0.73971052757E+01  0.19939626700E+03  0.21402114856E+03  0.76019011200E+02 0.  0.
          5    1    3    3  501    0 -0.13046516770E+02  0.35947573649E+02 -0.38447346508E+02  0.54430948041E+02  0.47000000000E+01 0. -1.
        -11    1    4    4    0    0  0.91343560768E+02 -0.74737928418E+02 -0.59539080008E+01  0.11817297939E+03  0.00000000000E+00 0.  1.
         12    1    4    4    0    0  0.31615071346E+02  0.20180074047E+02 -0.29052649438E+01  0.37618993729E+02  0.00000000000E+00 0. -1.
         -5    1    5    5    0  502 -0.95332214447E+02  0.11213175445E+02  0.51056480192E+02  0.10882472414E+03  0.47000000000E+01 0.  1.
         11    1    6    6    0    0 -0.61940982772E+01  0.39770588345E+02  0.73954479716E+02  0.84198168750E+02  0.00000000000E+00 0. -1.
        -12    1    6    6    0    0 -0.83858026197E+01 -0.32373483070E+02  0.12544178728E+03  0.12982297981E+03  0.00000000000E+00 0.  1.
</event>
<event>
12    1  0.8417180E-002  0.1779006E+03  0.7818608E-02  0.1170211E+00
         21   -1    0    0  503  502  0.00000000000E+00  0.00000000000E+00  0.10440090381E+03  0.10440090381E+03  0.00000000000E+00 0.  1.
         21   -1    0    0  501  503 -0.00000000000E+00 -0.00000000000E+00 -0.53167837569E+03  0.53167837569E+03  0.00000000000E+00 0.  1.
          6    2    1    2  501    0 -0.34250680843E+02 -0.63057145942E+01 -0.42377799692E+03  0.45960462190E+03  0.17445843810E+03 0.  0.
         24    2    3    3    0    0  0.32154712177E+02  0.32876249601E+02 -0.30330938262E+03  0.31649739088E+03  0.77841142998E+02 0.  0.
         -6    2    1    2    0  502  0.34250680843E+02  0.63057145942E+01 -0.34994749543E+01  0.17647465760E+03  0.17296874653E+03 0.  0.
        -24    2    5    5    0    0 -0.39204781062E+01  0.59651655413E+02 -0.31307147490E+02  0.10507309299E+03  0.80538979653E+02 0.  0.
          5    1    3    3  501    0 -0.66405393020E+02 -0.39181964195E+02 -0.12046861430E+03  0.14310723102E+03  0.47000000000E+01 0. -1.
        -13    1    4    4    0    0  0.21705781233E+02 -0.23600405002E+02 -0.13103234629E+03  0.13489846489E+03  0.00000000000E+00 0.  1.
         14    1    4    4    0    0  0.10448930944E+02  0.56476654603E+02 -0.17227703633E+03  0.18159892599E+03  0.00000000000E+00 0. -1.
         -5    1    5    5    0  502  0.38171158949E+02 -0.53345940819E+02  0.27807672536E+02  0.71401564613E+02  0.47000000000E+01 0.  1.
         13    1    6    6    0    0 -0.28766061936E+02  0.51521078388E+02 -0.46239697063E+02  0.74966775455E+02  0.00000000000E+00 0. -1.
        -14    1    6    6    0    0  0.24845583829E+02  0.81305770247E+01  0.14932549573E+02  0.30106317532E+02  0.00000000000E+00 0.  1.
</event>
<event>
12    1  0.8417180E-002  0.1854449E+03  0.7818608E-02  0.1164398E+00
         21   -1    0    0  501  502  0.00000000000E+00  0.00000000000E+00  0.17618888922E+03  0.17618888922E+03  0.00000000000E+00 0.  1.
         21   -1    0    0  502  503 -0.00000000000E+00 -0.00000000000E+00 -0.42228638259E+03  0.42228638259E+03  0.00000000000E+00 0.  1.
         -6    2    1    2    0  503 -0.37459315780E+02 -0.16609014525E+02 -0.34505662479E+03  0.38827844552E+03  0.17325419833E+03 0.  0.
        -24    2    3    3    0    0  0.17752426221E+02  0.35677829221E+02 -0.11296090551E+03  0.14399835342E+03  0.79920607357E+02 0.  0.
          6    2    1    2  501    0  0.37459315780E+02  0.16609014525E+02  0.98959131425E+02  0.21019682629E+03  0.18086109694E+03 0.  0.
         24    2    5    5    0    0 -0.24309972590E+02  0.60637643361E+02  0.81748734211E+02  0.13227216450E+03  0.80902233564E+02 0.  0.
          5    1    5    5  501    0  0.61769288370E+02 -0.44028628836E+02  0.17210397214E+02  0.77924661790E+02  0.47000000000E+01 0. -1.
        -13    1    6    6    0    0  0.79230503303E+01 -0.16622748372E+02  0.25348085144E+02  0.31330750238E+02  0.00000000000E+00 0.  1.
         14    1    6    6    0    0 -0.32233022921E+02  0.77260391733E+02  0.56400649067E+02  0.10094141426E+03  0.00000000000E+00 0. -1.
         -5    1    3    3    0  503 -0.55211742001E+02 -0.52286843746E+02 -0.23209571928E+03  0.24428009209E+03  0.47000000000E+01 0.  1.
         11    1    4    4    0    0  0.28866540798E+02  0.14397668930E+00 -0.10076805460E+03  0.10482127043E+03  0.00000000000E+00 0. -1.
        -12    1    4    4    0    0 -0.11114114577E+02  0.35533852531E+02 -0.12192850912E+02  0.39177082994E+02  0.00000000000E+00 0.  1.
</event>
<event>
12    1  0.8417180E-002  0.1785212E+03  0.7818608E-02  0.1170504E+00
         21   -1    0    0  501  502  0.00000000000E+00  0.00000000000E+00  0.17935456854E+03  0.17935456854E+03  0.00000000000E+00 0. -1.
         21   -1    0    0  502  503 -0.00000000000E+00 -0.00000000000E+00 -0.21538048053E+03  0.21538048053E+03  0.00000000000E+00 0. -1.
         -6    2    1    2    0  503 -0.50498320056E+02  0.22939525534E+02 -0.10610305521E+03  0.20767203859E+03  0.16968652017E+03 0.  0.
        -24    2    3    3    0    0 -0.83398278687E+02  0.52069569424E+02 -0.10381790781E+03  0.16341959647E+03  0.79128336151E+02 0.  0.
          6    2    1    2  501    0  0.50498320056E+02 -0.22939525534E+02  0.70077143217E+02  0.18706301048E+03  0.16433338592E+03 0.  0.
         24    2    5    5    0    0  0.67026820903E+02 -0.68189567575E+02  0.51805916824E+02  0.13532631790E+03  0.80541588341E+02 0.  0.
          5    1    5    5  501    0 -0.16528500847E+02  0.45250042041E+02  0.18271226394E+02  0.51736692577E+02  0.47000000000E+01 0. -1.
        -13    1    6    6    0    0  0.12018108347E+02 -0.14285199850E+02  0.55162819309E+02  0.58236058393E+02  0.00000000000E+00 0.  1.
         14    1    6    6    0    0  0.55008712555E+02 -0.53904367725E+02 -0.33569024855E+01  0.77090259509E+02  0.00000000000E+00 0. -1.
         -5    1    3    3    0  503  0.32899958631E+02 -0.29130043890E+02 -0.22851474088E+01  0.44252442121E+02  0.47000000000E+01 0.  1.
         11    1    4    4    0    0 -0.64179207749E+02  0.32838600569E+02 -0.19292870123E+02  0.74629479646E+02  0.00000000000E+00 0. -1.
        -12    1    4    4    0    0 -0.19219070938E+02  0.19230968855E+02 -0.84525037682E+02  0.88790116826E+02  0.00000000000E+00 0.  1.
</event>
<event>
12    1  0.8417180E-002  0.2095328E+03  0.7818608E-02  0.1142346E+00
         21   -1    0    0  501  502  0.00000000000E+00  0.00000000000E+00  0.81030019532E+03  0.81030019532E+03  0.00000000000E+00 0. -1.
         21   -1    0    0  502  503 -0.00000000000E+00 -0.00000000000E+00 -0.55679364868E+02  0.55679364868E+02  0.00000000000E+00 0.  1.
         -6    2    1    2    0  503 -0.86549710812E+02 -0.76830908673E+02  0.29649285132E+03  0.36305921256E+03  0.17467152021E+03 0.  0.
        -24    2    3    3    0    0 -0.20755779359E+02 -0.97388353759E+02  0.14014124342E+03  0.19212248375E+03  0.85768215726E+02 0.  0.
          6    2    1    2  501    0  0.86549710812E+02  0.76830908673E+02  0.45812797914E+03  0.50292034763E+03  0.17220275789E+03 0.  0.
         24    2    5    5    0    0  0.12574430136E+03  0.65379979449E+02  0.39968009255E+03  0.43146697014E+03  0.79582654537E+02 0.  0.
          5    1    5    5  501    0 -0.39194590552E+02  0.11450929224E+02  0.58447886589E+02  0.71453377495E+02  0.47000000000E+01 0. -1.
        -13    1    6    6    0    0  0.57408624020E+01 -0.12920447992E+02  0.78644340117E+02  0.79905116920E+02  0.00000000000E+00 0.  1.
         14    1    6    6    0    0  0.12000343896E+03  0.78300427441E+02  0.32103575243E+03  0.35156185322E+03  0.00000000000E+00 0. -1.
         -5    1    3    3    0  503 -0.65793931453E+02  0.20557445087E+02  0.15635160790E+03  0.17093672881E+03  0.47000000000E+01 0.  1.
         13    1    4    4    0    0  0.24522211418E+02 -0.78324568575E+02  0.92982966970E+02  0.12402382449E+03  0.00000000000E+00 0. -1.
        -14    1    4    4    0    0 -0.45277990777E+02 -0.19063785184E+02  0.47158276450E+02  0.68098659253E+02  0.00000000000E+00 0.  1.
</event>
<event>
12    1  0.8417180E-002  0.2021031E+03  0.7818608E-02  0.1148796E+00
         21   -1    0    0  501  502  0.00000000000E+00  0.00000000000E+00  0.75270577998E+02  0.75270577998E+02  0.00000000000E+00 0.  1.
         21   -1    0    0  502  503 -0.00000000000E+00 -0.00000000000E+00 -0.75702342044E+03  0.75702342044E+03  0.00000000000E+00 0.  1.
         -6    2    1    2    0  503  0.96905500456E+02 -0.41214804521E+02 -0.56996658334E+03  0.60473760877E+03  0.17250024120E+03 0.  0.
        -24    2    3    3    0    0  0.19778286994E+02  0.33427668861E+02 -0.19214461294E+03  0.21193786692E+03  0.80557541352E+02 0.  0.
          6    2    1    2  501    0 -0.96905500456E+02  0.41214804521E+02 -0.11178625910E+03  0.22755638966E+03  0.16791785677E+03 0.  0.
         24    2    5    5    0    0 -0.73930077302E+02 -0.23977207523E+01  0.11676485396E+02  0.94533603236E+02  0.57696242815E+02 0.  0.
          5    1    5    5  501    0 -0.22975423154E+02  0.43612525273E+02 -0.12346274450E+03  0.13302278643E+03  0.47000000000E+01 0. -1.
        -11    1    6    6    0    0 -0.19161564855E+01  0.18676137392E+02  0.21260565911E+01  0.18894175827E+02  0.00000000000E+00 0.  1.
         12    1    6    6    0    0 -0.72013920816E+02 -0.21073858144E+02  0.95504288047E+01  0.75639427409E+02  0.00000000000E+00 0. -1.
         -5    1    3    3    0  503  0.77127213462E+02 -0.74642473381E+02 -0.37782197040E+03  0.39279974186E+03  0.47000000000E+01 0.  1.
         13    1    4    4    0    0  0.34758040378E+02  0.39624977572E+02 -0.18793848653E+03  0.19518999702E+03  0.00000000000E+00 0. -1.
        -14    1    4    4    0    0 -0.14979753383E+02 -0.61973087111E+01 -0.42061264158E+01  0.16747869898E+02  0.00000000000E+00 0.  1.
</event>
<event>
12    1  0.8417180E-002  0.1828877E+03  0.7818608E-02  0.1165118E+00
         21   -1    0    0  501  502  0.00000000000E+00  0.00000000000E+00  0.16992363199E+03  0.16992363199E+03  0.00000000000E+00 0. -1.
         21   -1    0    0  502  503 -0.00000000000E+00 -0.00000000000E+00 -0.21627124006E+03  0.21627124006E+03  0.00000000000E+00 0.  1.
         -6    2    1    2    0  503 -0.49489492714E+02  0.37137676285E+02  0.35265235855E+02  0.18592366016E+03  0.17174269608E+03 0.  0.
        -24    2    3    3    0    0  0.26133244868E+02 -0.20261901913E+02  0.22741263765E+02  0.90046395417E+02  0.80608294198E+02 0.  0.
          6    2    1    2  501    0  0.49489492714E+02 -0.37137676285E+02 -0.81612843925E+02  0.20027121190E+03  0.17210312354E+03 0.  0.
         24    2    5    5    0    0  0.46127620203E+02 -0.88574425202E+02 -0.44232181709E+02  0.13642416629E+03  0.81742774007E+02 0.  0.
          5    1    5    5  501    0  0.33618725109E+01  0.51436748917E+02 -0.37380662216E+02  0.63847045614E+02  0.47000000000E+01 0. -1.
        -11    1    6    6    0    0  0.62121696452E+02 -0.79989507668E+02 -0.55069675599E+02  0.11528267727E+03  0.00000000000E+00 0.  1.
         12    1    6    6    0    0 -0.15994076248E+02 -0.85849175342E+01  0.10837493891E+02  0.21141489019E+02  0.00000000000E+00 0. -1.
         -5    1    3    3    0  503 -0.75622737582E+02  0.57399578198E+02  0.12523972090E+02  0.95877264738E+02  0.47000000000E+01 0.  1.
         13    1    4    4    0    0  0.33813928875E+02  0.66935066244E+01 -0.19310036666E+02  0.39510281357E+02  0.00000000000E+00 0. -1.
        -14    1    4    4    0    0 -0.76806840071E+01 -0.26955408538E+02  0.42051300431E+02  0.50536114060E+02  0.00000000000E+00 0.  1.
</event>
<event>
12    1  0.8417180E-002  0.2407094E+03  0.7818608E-02  0.1120079E+00
         21   -1    0    0  503  502  0.00000000000E+00  0.00000000000E+00  0.16405370224E+03  0.16405370224E+03  0.00000000000E+00 0.  1.
         21   -1    0    0  501  503 -0.00000000000E+00 -0.00000000000E+00 -0.62779027564E+03  0.62779027564E+03  0.00000000000E+00 0. -1.
          6    2    1    2  501    0  0.13615880842E+03 -0.88649921645E+02 -0.49563166837E+03  0.54903062687E+03  0.17142301139E+03 0.  0.
         24    2    3    3    0    0  0.13129849409E+01 -0.15866467983E+02 -0.21427830940E+03  0.22862053053E+03  0.78094073799E+02 0.  0.
         -6    2    1    2    0  502 -0.13615880842E+03  0.88649921645E+02  0.31895094975E+02  0.24281335101E+03  0.17760348146E+03 0.  0.
        -24    2    5    5    0    0 -0.41736723665E+02 -0.15736365754E+02 -0.18489660413E+02  0.93238150319E+02  0.79761505899E+02 0.  0.
          5    1    3    3  501    0  0.13484582348E+03 -0.72783453662E+02 -0.28135335897E+03  0.32041009634E+03  0.47000000000E+01 0. -1.
        -13    1    4    4    0    0  0.68226016257E+01  0.29037917054E+02 -0.49952938002E+02  0.58181135558E+02  0.00000000000E+00 0.  1.
         14    1    4    4    0    0 -0.55096166848E+01 -0.44904385037E+02 -0.16432537140E+03  0.17043939497E+03  0.00000000000E+00 0. -1.
         -5    1    5    5    0  502 -0.94422084753E+02  0.10438628740E+03  0.50384755387E+02  0.14957520069E+03  0.47000000000E+01 0.  1.
         11    1    6    6    0    0 -0.59659850268E+02 -0.45252008218E+01  0.68677696967E+01  0.60224093493E+02  0.00000000000E+00 0. -1.
        -12    1    6    6    0    0  0.17923126603E+02 -0.11211164932E+02 -0.25357430109E+02  0.33014056826E+02  0.00000000000E+00 0.  1.
</event>
<event>
12    1  0.8417180E-002  0.2295280E+03  0.7818608E-02  0.1127104E+00
         21   -1    0    0  501  502  0.00000000000E+00  0.00000000000E+00  0.97192712860E+03  0.97192712860E+03  0.00000000000E+00 0.  1.
         21   -1    0    0  502  503 -0.00000000000E+00 -0.00000000000E+00 -0.55547930082E+02  0.55547930082E+02  0.00000000000E+00 0.  1.
         -6    2    1    2    0  503 -0.10206890226E+03 -0.11134464775E+03  0.54387846618E+03  0.59032777544E+03  0.17282188834E+03 0.  0.
        -24    2    3    3    0    0 -0.21528096399E+02  0.42355759112E+01  0.13598517855E+03  0.15876708029E+03  0.78953264396E+02 0.  0.
          6    2    1    2  501    0  0.10206890226E+03  0.11134464775E+03  0.37250073234E+03  0.43714728324E+03  0.17182916011E+03 0.  0.
         24    2    5    5    0    0  0.37012751995E+02  0.45851189431E+02  0.29660753268E+03  0.31754977690E+03  0.96899726435E+02 0.  0.
          5    1    5    5  501    0  0.65056150262E+02  0.65493458317E+02  0.75893199656E+02  0.11959750634E+03  0.47000000000E+01 0. -1.
        -13    1    6    6    0    0  0.20204519227E+02  0.69748737887E+02  0.26383039602E+03  0.27364134720E+03  0.00000000000E+00 0.  1.
         14    1    6    6    0    0  0.16808232768E+02 -0.23897548455E+02  0.32777136665E+02  0.43908429702E+02  0.00000000000E+00 0. -1.
         -5    1    3    3    0  503 -0.80540805858E+02 -0.11558022366E+03  0.40789328763E+03  0.43156069515E+03  0.47000000000E+01 0.  1.
         11    1    4    4    0    0  0.10329903002E+02  0.92284972905E+01 -0.45498235725E+01  0.14579881783E+02  0.00000000000E+00 0. -1.
        -12    1    4    4    0    0 -0.31857999402E+02 -0.49929213793E+01  0.14053500213E+03  0.14418719850E+03  0.00000000000E+00 0.  1.
</event>
<event>
12    1  0.8417180E-002  0.1828070E+03  0.7818608E-02  0.1166293E+00
         21   -1    0    0  501  502  0.00000000000E+00  0.00000000000E+00  0.85382510286E+03  0.85382510286E+03  0.00000000000E+00 0. -1.
         21   -1    0    0  502  503 -0.00000000000E+00 -0.00000000000E+00 -0.39779140000E+02  0.39779140000E+02  0.00000000000E+00 0.  1.
         -6    2    1    2    0  503  0.14797393862E+02 -0.58479389031E+02  0.50417187020E+03  0.53629064489E+03  0.17256760787E+03 0.  0.
        -24    2    3    3    0    0 -0.36947345055E+02  0.15509258359E+02  0.19329940046E+03  0.21253823889E+03  0.78754056216E+02 0.  0.
          6    2    1    2  501    0 -0.14797393862E+02  0.58479389031E+02  0.30987409265E+03  0.35731359797E+03  0.16736861171E+03 0.  0.
         24    2    5    5    0    0 -0.28978588113E+02  0.96880254033E+02  0.17535875330E+03  0.21662884675E+03  0.77148056972E+02 0.  0.
          5    1    5    5  501    0  0.14181194251E+02 -0.38400865002E+02  0.13451533935E+03  0.14068475121E+03  0.47000000000E+01 0. -1.
        -11    1    6    6    0    0 -0.41868093613E+02  0.16955478398E+02  0.49813800456E+02  0.67244629722E+02  0.00000000000E+00 0.  1.
         12    1    6    6    0    0  0.12889505501E+02  0.79924775635E+02  0.12554495285E+03  0.14938421703E+03  0.00000000000E+00 0. -1.
         -5    1    3    3    0  503  0.51744738917E+02 -0.73988647389E+02  0.31087246975E+03  0.32375240600E+03  0.47000000000E+01 0.  1.
         11    1    4    4    0    0 -0.46630615442E+02  0.46189746217E+01  0.19230491730E+03  0.19793163073E+03  0.00000000000E+00 0. -1.
        -12    1    4    4    0    0  0.96832703872E+01  0.10890283737E+02  0.99448315658E+00  0.14606608162E+02  0.00000000000E+00 0.  1.
</event>
<event>
12    1  0.8417180E-002  0.2185230E+03  0.7818608E-02  0.1137482E+00
         21   -1    0    0  503  502  0.00000000000E+00  0.00000000000E+00  0.75605572307E+03  0.75605572307E+03  0.00000000000E+00 0.  1.
         21   -1    0    0  501  503 -0.00000000000E+00 -0.00000000000E+00 -0.60386613223E+02  0.60386613223E+02  0.00000000000E+00 0. -1.
          6    2    1    2  501    0 -0.22308480248E+01 -0.11302965761E+03  0.38679454975E+03  0.43808298649E+03  0.17183131016E+03 0.  0.
         24    2    3    3    0    0 -0.52274656799E+02 -0.26200860486E+02  0.24859754790E+03  0.26730791767E+03  0.78953512891E+02 0.  0.
         -6    2    1    2    0  502  0.22308480248E+01  0.11302965761E+03  0.30887456009E+03  0.37835934980E+03  0.18700701464E+03 0.  0.
        -24    2    5    5    0    0  0.12861633919E+02  0.16751739389E+01  0.47949640384E+02  0.94428480805E+02  0.80307796255E+02 0.  0.
          5    1    3    3  501    0  0.50043808774E+02 -0.86828797129E+02  0.13819700186E+03  0.17077506882E+03  0.47000000000E+01 0. -1.
        -11    1    4    4    0    0 -0.39056763521E+02 -0.30233254596E+02  0.24863021129E+03  0.25348858441E+03  0.00000000000E+00 0.  1.
         12    1    4    4    0    0 -0.13217893277E+02  0.40323941099E+01 -0.32663394800E-01  0.13819333263E+02  0.00000000000E+00 0. -1.
         -5    1    5    5    0  502 -0.10630785894E+02  0.11135448368E+03  0.26092491971E+03  0.28393086900E+03  0.47000000000E+01 0.  1.
         11    1    6    6    0    0  0.30850067735E+02  0.22046893960E+02 -0.15598927383E+01  0.37950302738E+02  0.00000000000E+00 0. -1.
        -12    1    6    6    0    0 -0.17988433816E+02 -0.20371720021E+02  0.49509533122E+02  0.56478178067E+02  0.00000000000E+00 0.  1.
</event>
<event>
12    1  0.8417180E-002  0.1866414E+03  0.7818608E-02  0.1163518E+00
         21   -1    0    0  503  502  0.00000000000E+00  0.00000000000E+00  0.38035312375E+02  0.38035312375E+02  0.00000000000E+00 0. -1.
         21   -1    0    0  501  503 -0.00000000000E+00 -0.00000000000E+00 -0.10954293904E+04  0.10954293904E+04  0.00000000000E+00 0. -1.
          6    2    1    2  501    0  0.65826142094E+02 -0.29461636697E+02 -0.79260947644E+03  0.81428791456E+03  0.17214516153E+03 0.  0.
         24    2    3    3    0    0 -0.28781729497E+02 -0.11569427723E+02 -0.46590475894E+03  0.47365784697E+03  0.79512715865E+02 0.  0.
         -6    2    1    2    0  502 -0.65826142094E+02  0.29461636697E+02 -0.26478460163E+03  0.31917678826E+03  0.16297812087E+03 0.  0.
        -24    2    5    5    0    0 -0.66676079243E+01 -0.37202299339E+02 -0.12900225991E+03  0.15668756752E+03  0.80504302261E+02 0.  0.
          5    1    3    3  501    0  0.94607871591E+02 -0.17892208974E+02 -0.32670471751E+03  0.34063006759E+03  0.47000000000E+01 0. -1.
        -11    1    4    4    0    0 -0.63645452896E+01 -0.43626833884E+02 -0.19353312824E+03  0.19849151064E+03  0.00000000000E+00 0.  1.
         12    1    4    4    0    0 -0.22417184208E+02  0.32057406162E+02 -0.27237163070E+03  0.27516633633E+03  0.00000000000E+00 0. -1.
         -5    1    5    5    0  502 -0.59158534169E+02  0.66663936036E+02 -0.13578234172E+03  0.16248922074E+03  0.47000000000E+01 0.  1.
         13    1    6    6    0    0  0.35888292342E+00  0.24644233154E+02 -0.22726798056E+02  0.33525727055E+02  0.00000000000E+00 0. -1.
        -14    1    6    6    0    0 -0.70264908478E+01 -0.61846532493E+02 -0.10627546185E+03  0.12316184047E+03  0.00000000000E+00 0.  1.
</event>
<event>
12    1  0.8417180E-002  0.2125666E+03  0.7818608E-02  0.1139750E+00
         21   -1    0    0  503  502  0.00000000000E+00  0.00000000000E+00  0.97835303771E+02  0.97835303771E+02  0.00000000000E+00 0. -1.
         21   -1    0    0  501  503 -0.00000000000E+00 -0.00000000000E+00 -0.48455806907E+03  0.48455806907E+03  0.00000000000E+00 0.  1.
          6    2    1    2  501    0  0.96685091240E+02  0.79056777888E+02 -0.12684607485E+03  0.24665467830E+03  0.17073553416E+03 0.  0.
         24    2    3    3    0    0 -0.59339148099E+01  0.24288455316E+02 -0.14019643319E+02  0.84537056770E+02  0.79528756824E+02 0.  0.
         -6    2    1    2    0  502 -0.96685091240E+02 -0.79056777888E+02 -0.25987669045E+03  0.33573869454E+03  0.17200754568E+03 0.  0.
        -24    2    5    5    0    0 -0.12475224580E+03 -0.50028766575E+02 -0.14551167428E+03  0.21436391326E+03  0.81928259098E+02 0.  0.
          5    1    3    3  501    0  0.10261900605E+03  0.54768322572E+02 -0.11282643153E+03  0.16211762153E+03  0.47000000000E+01 0. -1.
        -13    1    4    4    0    0 -0.38522169506E+00  0.13050645795E+02 -0.47250576227E+02  0.49021267886E+02  0.00000000000E+00 0.  1.
         14    1    4    4    0    0 -0.55486931149E+01  0.11237809521E+02  0.33230932908E+02  0.35515788884E+02  0.00000000000E+00 0. -1.
         -5    1    5    5    0  502  0.28067154564E+02 -0.29028011314E+02 -0.11436501617E+03  0.12137478128E+03  0.47000000000E+01 0.  1.
         13    1    6    6    0    0 -0.24934920360E+02 -0.47780977846E+02 -0.29999832243E+02  0.61682753115E+02  0.00000000000E+00 0. -1.
        -14    1    6    6    0    0 -0.99817325443E+02 -0.22477887290E+01 -0.11551184203E+03  0.15268116014E+03  0.00000000000E+00 0.  1.
</event>
<event>
12    1  0.8417180E-002  0.1925901E+03  0.7818608E-02  0.1156488E+00
         21   -1    0    0  501  502  0.00000000000E+00  0.00000000000E+00  0.98742566414E+02  0.98742566414E+02  0.00000000000E+00 0. -1.
         21   -1    0    0  502  503 -0.00000000000E+00 -0.00000000000E+00 -0.37472128157E+03  0.37472128157E+03  0.00000000000E+00 0. -1.
         -6    2    1    2    0  503  0.10291752558E+02  0.83868084095E+02 -0.11980613894E+03  0.22551062121E+03  0.17135271709E+03 0.  0.
        -24    2    3    3    0    0 -0.60267081689E+02  0.37368935975E+02 -0.62372156079E+02  0.12322928248E+03  0.79161933377E+02 0.  0.
          6    2    1    2  501    0 -0.10291752558E+02 -0.83868084095E+02 -0.15617257622E+03  0.24795322677E+03  0.17306401533E+03 0.  0.
         24    2    5    5    0    0 -0.72237845665E+02 -0.47212645869E+02 -0.65106025201E+02  0.13178031118E+03  0.75365214918E+02 0.  0.
          5    1    5    5  501    0  0.61946093107E+02 -0.36655438226E+02 -0.91066551017E+02  0.11617291559E+03  0.47000000000E+01 0. -1.
        -13    1    6    6    0    0 -0.63123139404E+02 -0.63567405574E+02 -0.34695793560E+02  0.96068433267E+02  0.00000000000E+00 0.  1.
         14    1    6    6    0    0 -0.91147062612E+01  0.16354759705E+02 -0.30410231641E+02  0.35711877908E+02  0.00000000000E+00 0. -1.
         -5    1    3    3    0  503  0.70558834247E+02  0.46499148119E+02 -0.57433982856E+02  0.10228133873E+03  0.47000000000E+01 0.  1.
         13    1    4    4    0    0  0.76035306857E+01  0.13019648349E+00  0.13077875534E+02  0.15128167718E+02  0.00000000000E+00 0. -1.
        -14    1    4    4    0    0 -0.67870612374E+02  0.37238739492E+02 -0.75450031613E+02  0.10810111476E+03  0.00000000000E+00 0.  1.
</event>
<event>
12    1  0.8417180E-002  0.1873824E+03  0.7818608E-02  0.1161253E+00
         21   -1    0    0  503  502  0.00000000000E+00  0.00000000000E+00  0.50189864584E+03  0.50189864584E+03  0.00000000000E+00 0.  1.
         21   -1    0    0  501  503 -0.00000000000E+00 -0.00000000000E+00 -0.20329337225E+03  0.20329337225E+03  0.00000000000E+00 0. -1.
          6    2    1    2  501    0 -0.66161216013E+02  0.43267009370E+02 -0.13671431476E+03  0.23195463401E+03  0.16989057589E+03 0.  0.
         24    2    3    3    0    0  0.31330872649E+01 -0.13956024709E+02 -0.18654033859E+02  0.83507687187E+02  0.80130980142E+02 0.  0.
         -6    2    1    2    0  502  0.66161216013E+02 -0.43267009370E+02  0.43531958834E+03  0.47323738407E+03  0.16793194183E+03 0.  0.
        -24    2    5    5    0    0  0.93889956157E+02  0.93438553316E+01  0.34702990151E+03  0.36668249251E+03  0.71579789558E+02 0.  0.
          5    1    3    3  501    0 -0.69294303278E+02  0.57223034079E+02 -0.11806028090E+03  0.14844694683E+03  0.47000000000E+01 0. -1.
        -13    1    4    4    0    0 -0.20968565874E+02  0.19033277777E+02 -0.29850050565E+02  0.41145740199E+02  0.00000000000E+00 0.  1.
         14    1    4    4    0    0  0.24101653139E+02 -0.32989302486E+02  0.11196016706E+02  0.42361946988E+02  0.00000000000E+00 0. -1.
         -5    1    5    5    0  502 -0.27728740144E+02 -0.52610864702E+02  0.88289686831E+02  0.10655489156E+03  0.47000000000E+01 0.  1.
         13    1    6    6    0    0  0.75625430319E+01 -0.20746950211E+01 -0.10169321853E+01  0.79076271795E+01  0.00000000000E+00 0. -1.
        -14    1    6    6    0    0  0.86327413125E+02  0.11418550353E+02  0.34804683370E+03  0.35877486533E+03  0.00000000000E+00 0.  1.
</event>
<event>
12    1  0.8417180E-002  0.1745902E+03  0.7818608E-02  0.1173472E+00
         21   -1    0    0  503  502  0.00000000000E+00  0.00000000000E+00  0.34302584738E+03  0.34302584738E+03  0.00000000000E+00 0.  1.
         21   -1    0    0  501  503 -0.00000000000E+00 -0.00000000000E+00 -0.97154374668E+02  0.97154374668E+02  0.00000000000E+00 0.  1.
          6    2    1    2  501    0 -0.21371921652E+02 -0.16866447384E+02  0.19015959428E+03  0.25815192049E+03  0.17245436112E+03 0.  0.
         24    2    3    3    0    0  0.22679976828E+02 -0.24380517824E+02  0.19466207174E+03  0.21299227791E+03  0.79772158544E+02 0.  0.
         -6    2    1    2    0  502  0.21371921652E+02  0.16866447384E+02  0.55711878427E+02  0.18202830156E+03  0.17114103274E+03 0.  0.
        -24    2    5    5    0    0  0.49511194374E+02  0.40164745986E+01  0.94032533124E+02  0.13255605635E+03  0.79129642688E+02 0.  0.
          5    1    3    3  501    0 -0.44051898480E+02  0.75140704393E+01 -0.45024774546E+01  0.45159642575E+02  0.47000000000E+01 0. -1.
        -11    1    4    4    0    0  0.17946326442E+01 -0.49019919750E+02  0.79761091332E+02  0.93637625606E+02  0.00000000000E+00 0.  1.
         12    1    4    4    0    0  0.20885344184E+02  0.24639401927E+02  0.11490098041E+03  0.11935465231E+03  0.00000000000E+00 0. -1.
         -5    1    5    5    0  502 -0.28139272723E+02  0.12849972786E+02 -0.38320654697E+02  0.49472245213E+02  0.47000000000E+01 0.  1.
         13    1    6    6    0    0  0.48150593741E+02 -0.10502208615E+02  0.14037566643E+02  0.51242846727E+02  0.00000000000E+00 0. -1.
        -14    1    6    6    0    0  0.13606006330E+01  0.14518683214E+02  0.79994966481E+02  0.81313209620E+02  0.00000000000E+00 0.  1.
</event>
<event>
12    1  0.8417180E-002  0.1914368E+03  0.7818608E-02  0.1158666E+00
         21   -1    0    0  503  502  0.00000000000E+00  0.00000000000E+00  0.17303047281E+03  0.17303047281E+03  0.00000000000E+00 0. -1.
         21   -1    0    0  501  503 -0.00000000000E+00 -0.00000000000E+00 -0.24549920280E+03  0.24549920280E+03  0.00000000000E+00 0.  1.
          6    2    1    2  501    0  0.69225925234E+02 -0.21886359212E+02 -0.12111313711E+03  0.22100926865E+03  0.17001606808E+03 0.  0.
         24    2    3    3    0    0  0.10790430547E+03 -0.28402023790E+02 -0.11823469392E+03  0.18140060271E+03  0.80478082262E+02 0.  0.
         -6    2    1    2    0  502 -0.69225925234E+02  0.21886359212E+02  0.48644407113E+02  0.19752040696E+03  0.17713495244E+03 0.  0.
        -24    2    5    5    0    0 -0.91590177911E+01 -0.50905718931E+02  0.11456572616E+02  0.95973644110E+02  0.80027542014E+02 0.  0.
          5    1    3    3  501    0 -0.38678380233E+02  0.65156645778E+01 -0.28784431876E+01  0.39608665940E+02  0.47000000000E+01 0. -1.
        -13    1    4    4    0    0  0.10488781064E+03 -0.92803534621E+01 -0.12254339249E+03  0.16156874953E+03  0.00000000000E+00 0.  1.
         14    1    4    4    0    0  0.30164948223E+01 -0.19121670328E+02  0.43086985722E+01  0.19831853179E+02  0.00000000000E+00 0. -1.
         -5    1    5    5    0  502 -0.60066907442E+02  0.72792078143E+02  0.37187834498E+02  0.10154676285E+03  0.47000000000E+01 0.  1.
         11    1    6    6    0    0  0.18493383948E+02 -0.44337240884E+02 -0.21347952826E+02  0.52569299681E+02  0.00000000000E+00 0. -1.
        -12    1    6    6    0    0 -0.27652401739E+02 -0.65684780474E+01  0.32804525442E+02  0.43404344429E+02  0.00000000000E+00 0.  1.
</event>
<event>
12    1  0.8417180E-002  0.2203610E+03  0.7818608E-02  0.1133874E+00
         21   -1    0    0  503  502  0.00000000000E+00  0.00000000000E+00  0.35257431322E+03  0.35257431322E+03  0.00000000000E+00 0.  1.
         21   -1    0    0  501  503 -0.00000000000E+00 -0.00000000000E+00 -0.13685757347E+03  0.13685757347E+03  0.00000000000E+00 0.  1.
          6    2    1    2  501    0 -0.68761433844E+02 -0.12017724707E+03  0.10813491052E+03  0.24546312930E+03  0.17143011251E+03 0.  0.
         24    2    3    3    0    0 -0.30191480986E+02 -0.10599353774E+03  0.13819009614E+03  0.19433365584E+03  0.80764543916E+02 0.  0.
         -6    2    1    2    0  502  0.68761433844E+02  0.12017724707E+03  0.10758182923E+03  0.24396875739E+03  0.16963548893E+03 0.  0.
        -24    2    5    5    0    0  0.61409536417E+01  0.13190825897E+03  0.84809107896E+02  0.17614819990E+03  0.79988145680E+02 0.  0.
          5    1    3    3  501    0 -0.38569952858E+02 -0.14183709330E+02 -0.30055185620E+02  0.51129473461E+02  0.47000000000E+01 0. -1.
        -13    1    4    4    0    0  0.12815104393E+02 -0.19867235693E+02  0.76323418565E+02  0.79901177564E+02  0.00000000000E+00 0.  1.
         14    1    4    4    0    0 -0.43006585379E+02 -0.86126302044E+02  0.61866677576E+02  0.11443247827E+03  0.00000000000E+00 0. -1.
         -5    1    5    5    0  502  0.62620480202E+02 -0.11731011907E+02  0.22772721335E+02  0.67820557489E+02  0.47000000000E+01 0.  1.
         13    1    6    6    0    0  0.19116828952E+02  0.11736422189E+03  0.96742973256E+02  0.15329388965E+03  0.00000000000E+00 0. -1.
        -14    1    6    6    0    0 -0.12975875310E+02  0.14544037083E+02 -0.11933865360E+02  0.22854310254E+02  0.00000000000E+00 0.  1.
</event>
<event>
12    1  0.8417180E-002  0.1987074E+03  0.7818608E-02  0.1151128E+00
         21   -1    0    0  501  502  0.00000000000E+00  0.00000000000E+00  0.12200227180E+03  0.12200227180E+03  0.00000000000E+00 0.  1.
         21   -1    0    0  502  503 -0.00000000000E+00 -0.00000000000E+00 -0.39027860794E+03  0.39027860794E+03  0.00000000000E+00 0. -1.
         -6    2    1    2    0  503  0.90579014310E+02  0.36089492066E+02 -0.24212251403E+03  0.31322189137E+03  0.17314049835E+03 0.  0.
        -24    2    3    3    0    0  0.76491542728E+01 -0.42002069583E+01 -0.37551924884E+02  0.88785179861E+02  0.79978183281E+02 0.  0.
          6    2    1    2  501    0 -0.90579014310E+02 -0.36089492066E+02 -0.26153822115E+02  0.19905898836E+03  0.17156179401E+03 0.  0.
         24    2    5    5    0    0 -0.11158111130E+03 -0.66895252469E+02 -0.41961277671E+02  0.15829075804E+03  0.79811628584E+02 0.  0.
          5    1    5    5  501    0  0.21002096989E+02  0.30805760403E+02  0.15807455556E+02  0.40768230316E+02  0.47000000000E+01 0. -1.
        -13    1    6    6    0    0 -0.58356389073E+02 -0.15309734382E+02  0.17993243812E+02  0.62957231002E+02  0.00000000000E+00 0.  1.
         14    1    6    6    0    0 -0.53224722225E+02 -0.51585518087E+02 -0.59954521483E+02  0.95333527043E+02  0.00000000000E+00 0. -1.
         -5    1    3    3    0  503  0.82929860037E+02  0.40289699024E+02 -0.20457058914E+03  0.22443671151E+03  0.47000000000E+01 0.  1.
         11    1    4    4    0    0 -0.79858042960E+01  0.17104153805E+02 -0.54307748386E+02  0.57494840485E+02  0.00000000000E+00 0. -1.
        -12    1    4    4    0    0  0.15634958569E+02 -0.21304360763E+02  0.16755823503E+02  0.31290339376E+02  0.00000000000E+00 0.  1.
</event>
<event>
12    1  0.8417180E-002  0.1843299E+03  0.7818608E-02  0.1164278E+00
         21   -1    0    0  503  502  0.00000000000E+00  0.00000000000E+00  0.24131930467E+03  0.24131930467E+03  0.00000000000E+00 0. -1.
         21   -1    0    0  501  503 -0.00000000000E+00 -0.00000000000E+00 -0.24805171858E+03  0.24805171858E+03  0.00000000000E+00 0.  1.
          6    2    1    2  501    0 -0.52804795971E+02  0.33425818138E+02 -0.16571580516E+03  0.24786936804E+03  0.17341240941E+03 0.  0.
         24    2    3    3    0    0 -0.82627558543E+02  0.57279161174E+02 -0.16644287454E+03  0.20938563419E+03  0.77658853860E+02 0.  0.
         -6    2    1    2    0  502  0.52804795971E+02 -0.33425818138E+02  0.15898339125E+03  0.24150165521E+03  0.17070939921E+03 0.  0.
        -24    2    5    5    0    0  0.16992373850E+02  0.16753303467E+02  0.15925473631E+03  0.17967417385E+03  0.79695192850E+02 0.  0.
          5    1    3    3  501    0  0.29822762572E+02 -0.23853343035E+02  0.72706937826E+00  0.38483733853E+02  0.47000000000E+01 0. -1.
        -13    1    4    4    0    0  0.25487595390E+00  0.56742960849E+01 -0.76268567090E+02  0.76479781144E+02  0.00000000000E+00 0.  1.
         14    1    4    4    0    0 -0.82882434497E+02  0.51604865089E+02 -0.90174307452E+02  0.13290585304E+03  0.00000000000E+00 0. -1.
         -5    1    5    5    0  502  0.35812422121E+02 -0.50179121605E+02 -0.27134505819E+00  0.61827481361E+02  0.47000000000E+01 0.  1.
         13    1    6    6    0    0  0.44398967624E+02 -0.75818732800E+01  0.10439840875E+03  0.11370039964E+03  0.00000000000E+00 0. -1.
        -14    1    6    6    0    0 -0.27406593774E+02  0.24335176747E+02  0.54856327564E+02  0.65973774209E+02  0.00000000000E+00 0.  1.
</event>
<event>
12    1  0.8417180E-002  0.1898093E+03  0.7818608E-02  0.1159144E+00
         21   -1    0    0  503  502  0.00000000000E+00  0.00000000000E+00  0.14784206722E+03  0.14784206722E+03  0.00000000000E+00 0. -1.
         21   -1    0    0  501  503 -0.00000000000E+00 -0.00000000000E+00 -0.63324707897E+03  0.63324707897E+03  0.00000000000E+00 0. -1.
          6    2    1    2  501    0  0.63027800335E+02 -0.41094600205E+02 -0.55069414456E+03  0.58248743647E+03  0.17425929823E+03 0.  0.
         24    2    3    3    0    0  0.83364818691E+02  0.33558456621E+01 -0.22442182205E+03  0.25254023632E+03  0.80314768594E+02 0.  0.
         -6    2    1    2    0  502 -0.63027800335E+02  0.41094600205E+02  0.65289132815E+02  0.19860170972E+03  0.17181006506E+03 0.  0.
        -24    2    5    5    0    0  0.29652630401E+02  0.47681441309E+02  0.34124111350E+02  0.10048750442E+03  0.76029502398E+02 0.  0.
          5    1    3    3  501    0 -0.20337018356E+02 -0.44450445867E+02 -0.32627232251E+03  0.32994720015E+03  0.47000000000E+01 0. -1.
        -11    1    4    4    0    0  0.19872715150E+02 -0.28099191556E+02 -0.30167561881E+02  0.45766485155E+02  0.00000000000E+00 0.  1.
         12    1    4    4    0    0  0.63492103541E+02  0.31455037219E+02 -0.19425426017E+03  0.20677375117E+03  0.00000000000E+00 0. -1.
         -5    1    5    5    0  502 -0.92680430736E+02 -0.65868411039E+01  0.31165021465E+02  0.98114205292E+02  0.47000000000E+01 0.  1.
         11    1    6    6    0    0 -0.19579135666E+02  0.40016678729E+02  0.18855077224E+02  0.48375521362E+02  0.00000000000E+00 0. -1.
        -12    1    6    6    0    0  0.49231766067E+02  0.76647625803E+01  0.15269034126E+02  0.52111983062E+02  0.00000000000E+00 0.  1.
</event>
<event>
12    1  0.8417180E-002  0.2085447E+03  0.7818608E-02  0.1143040E+00
         21   -1    0    0  501  502  0.00000000000E+00  0.00000000000E+00  0.35095866819E+03  0.35095866819E+03  0.00000000000E+00 0. -1.
         21   -1    0    0  502  503 -0.00000000000E+00 -0.00000000000E+00 -0.16356844065E+03  0.16356844065E+03  0.00000000000E+00 0. -1.
         -6    2    1    2    0  503 -0.98279525494E+02  0.60563652216E+02 -0.34716973688E+02  0.20985926745E+03  0.17178132253E+03 0.  0.
        -24    2    3    3    0    0 -0.10892748791E+02  0.17589140934E+02  0.34693783230E+02  0.90179693009E+02  0.80626847770E+02 0.  0.
          6    2    1    2  501    0  0.98279525494E+02 -0.60563652216E+02  0.22210720122E+03  0.30466784139E+03  0.17367804593E+03 0.  0.
         24    2    5    5    0    0  0.94453157661E+02 -0.81614011302E+01  0.66357786864E+02  0.14022755714E+03  0.79198512887E+02 0.  0.
          5    1    5    5  501    0  0.38263678324E+01 -0.52402251086E+02  0.15574941436E+03  0.16444028425E+03  0.47000000000E+01 0. -1.
        -11    1    6    6    0    0  0.28579065560E+02  0.98871921869E+00 -0.17248436859E+02  0.33395345904E+02  0.00000000000E+00 0.  1.
         12    1    6    6    0    0  0.65874092102E+02 -0.91501203489E+01  0.83606223723E+02  0.10683221124E+03  0.00000000000E+00 0. -1.
         -5    1    3    3    0  503 -0.87386776703E+02  0.42974511282E+02 -0.69410756918E+02  0.11967957444E+03  0.47000000000E+01 0.  1.
         11    1    4    4    0    0 -0.30290697193E+02  0.42048155161E+02  0.18611395599E+02  0.55063215807E+02  0.00000000000E+00 0. -1.
        -12    1    4    4    0    0  0.19397948402E+02 -0.24459014227E+02  0.16082387631E+02  0.35116477202E+02  0.00000000000E+00 0.  1.
</event>
<event>
12    1  0.8417180E-002  0.2333069E+03  0.7818608E-02  0.1124619E+00
         21   -1    0    0  501  502  0.00000000000E+00  0.00000000000E+00  0.11240706302E+03  0.11240706302E+03  0.00000000000E+00 0.  1.
         21   -1    0    0  502  503 -0.00000000000E+00 -0.00000000000E+00 -0.71056017098E+03  0.71056017098E+03  0.00000000000E+00 0. -1.
         -6    2    1    2    0  503  0.13053233621E+03  0.81219903461E+02 -0.53232758177E+03  0.58055206729E+03  0.17329940854E+03 0.  0.
        -24    2    3    3    0    0 -0.17847775485E+02  0.25318968929E+02 -0.20227154445E+03  0.21435451159E+03  0.63831697971E+02 0.  0.
          6    2    1    2  501    0 -0.13053233621E+03 -0.81219903461E+02 -0.65825526191E+02  0.24241516672E+03  0.17549002719E+03 0.  0.
         24    2    5    5    0    0 -0.12663401015E+03  0.22323477928E+01 -0.44174033333E+02  0.15598396675E+03  0.79614676770E+02 0.  0.
          5    1    5    5  501    0 -0.38983260557E+01 -0.83452251254E+02 -0.21651492857E+02  0.86431199970E+02  0.47000000000E+01 0. -1.
        -13    1    6    6    0    0  0.23379231557E+01  0.19332363005E+02 -0.48068092411E+01  0.20057705729E+02  0.00000000000E+00 0.  1.
         14    1    6    6    0    0 -0.12897193331E+03 -0.17100015212E+02 -0.39367224092E+02  0.13592626102E+03  0.00000000000E+00 0. -1.
         -5    1    3    3    0  503  0.14838011170E+03  0.55900934532E+02 -0.33005603732E+03  0.36619755570E+03  0.47000000000E+01 0.  1.
         11    1    4    4    0    0 -0.17019769253E+02  0.43301798017E+02 -0.17891491678E+03  0.18486553411E+03  0.00000000000E+00 0. -1.
        -12    1    4    4    0    0 -0.82800623196E+00 -0.17982829087E+02 -0.23356627676E+02  0.29488977478E+02  0.00000000000E+00 0.  1.
</event>
<event>
12    1  0.8417180E-002  0.1865643E+03  0.7818608E-02  0.1162042E+00
         21   -1    0    0  503  502  0.00000000000E+00  0.00000000000E+00  0.11282259391E+04  0.11282259391E+04  0.00000000000E+00 0.  1.
         21   -1    0    0  501  503 -0.00000000000E+00 -0.00000000000E+00 -0.32907203534E+02  0.32907203534E+02  0.00000000000E+00 0.  1.
          6    2    1    2  501    0 -0.64306930981E+02 -0.14692056368E+02  0.39439073317E+03  0.43629150642E+03  0.17451358193E+03 0.  0.
         24    2    3    3    0    0 -0.11216167539E+03 -0.54857883763E+01  0.29231830397E+03  0.32308504577E+03  0.79521196292E+02 0.  0.
         -6    2    1    2    0  502  0.64306930981E+02  0.14692056368E+02  0.70092800240E+03  0.72484163621E+03  0.17246476493E+03 0.  0.
        -24    2    5    5    0    0  0.18413889657E+02  0.71624218876E+02  0.46441907153E+03  0.47724113792E+03  0.81270718368E+02 0.  0.
          5    1    3    3  501    0  0.47854744414E+02 -0.92062679919E+01  0.10207242919E+03  0.11320646066E+03  0.47000000000E+01 0. -1.
        -11    1    4    4    0    0 -0.45341627178E+02 -0.13088972330E+02  0.21717025060E+03  0.22223884021E+03  0.00000000000E+00 0.  1.
         12    1    4    4    0    0 -0.66820048217E+02  0.76031839536E+01  0.75148053373E+02  0.10084620556E+03  0.00000000000E+00 0. -1.
         -5    1    5    5    0  502  0.45893041324E+02 -0.56932162508E+02  0.23650893087E+03  0.24760049829E+03  0.47000000000E+01 0.  1.
         11    1    6    6    0    0  0.19454835530E+02  0.28575770907E+02  0.38790359401E+03  0.38944096286E+03  0.00000000000E+00 0. -1.
        -12    1    6    6    0    0 -0.10409458730E+01  0.43048447969E+02  0.76515477519E+02  0.87800175062E+02  0.00000000000E+00 0.  1.
</event>
<event>
12    1  0.8417180E-002  0.2681767E+03  0.7818608E-02  0.1102410E+00
         21   -1    0    0  503  502  0.00000000000E+00  0.00000000000E+00  0.67115772289E+03  0.67115772289E+03  0.00000000000E+00 0. -1.
         21   -1    0    0  501  503 -0.00000000000E+00 -0.00000000000E+00 -0.10904973887E+03  0.10904973887E+03  0.00000000000E+00 0.  1.
          6    2    1    2  501    0 -0.12697846619E+03  0.16113604710E+03  0.22634338022E+03  0.35049054128E+03  0.17182531015E+03 0.  0.
         24    2    3    3    0    0 -0.96682283839E+02  0.18873626806E+03  0.19002217595E+03  0.29552736505E+03  0.79114810577E+02 0.  0.
         -6    2    1    2    0  502  0.12697846619E+03 -0.16113604710E+03  0.33576460380E+03  0.42971692047E+03  0.17271481124E+03 0.  0.
        -24    2    5    5    0    0  0.13443606155E+03 -0.77848155329E+02  0.28012574231E+03  0.32916712409E+03  0.75810119011E+02 0.  0.
          5    1    3    3  501    0 -0.30296182351E+02 -0.27600220958E+02  0.36321204269E+02  0.54963176233E+02  0.47000000000E+01 0. -1.
        -11    1    4    4    0    0 -0.38178594889E+02  0.15254844156E+03  0.13899658364E+03  0.20987777966E+03  0.00000000000E+00 0.  1.
         12    1    4    4    0    0 -0.58503688950E+02  0.36187826492E+02  0.51025592305E+02  0.85649585388E+02  0.00000000000E+00 0. -1.
         -5    1    5    5    0  502 -0.74575953641E+01 -0.83287891769E+02  0.55638861495E+02  0.10054979638E+03  0.47000000000E+01 0.  1.
         13    1    6    6    0    0  0.57731840734E+02 -0.39437937677E+01  0.15143342555E+03  0.16211292767E+03  0.00000000000E+00 0. -1.
        -14    1    6    6    0    0  0.76704220820E+02 -0.73904361561E+02  0.12869231676E+03  0.16705419642E+03  0.00000000000E+00 0.  1.
</event>
<event>
12    1  0.8417180E-002  0.2086514E+03  0.7818608E-02  0.1143399E+00
         21   -1    0    0  503  502  0.00000000000E+00  0.00000000000E+00  0.38824483627E+03  0.38824483627E+03  0.00000000000E+00 0.  1.
         21   -1    0    0  501  503 -0.00000000000E+00 -0.00000000000E+00 -0.17605589109E+03  0.17605589109E+03  0.00000000000E+00 0.  1.
          6    2    1    2  501    0 -0.24378751025E+02  0.11774852729E+03 -0.65971663348E+02  0.21883247876E+03  0.17051789998E+03 0.  0.
         24    2    3    3    0    0  0.13899587250E+02  0.12962841313E+02 -0.53983612053E+02  0.10653343806E+03  0.89854934613E+02 0.  0.
         -6    2    1    2    0  502  0.24378751025E+02 -0.11774852729E+03  0.27816060853E+03  0.34546824860E+03  0.16587931599E+03 0.  0.
        -24    2    5    5    0    0  0.45987274886E+02 -0.44345734174E+02  0.73081411320E+02  0.12652883810E+03  0.81162063798E+02 0.  0.
          5    1    3    3  501    0 -0.38278338275E+02  0.10478568598E+03 -0.11988051295E+02  0.11229904069E+03  0.47000000000E+01 0. -1.
        -11    1    4    4    0    0 -0.38407443529E+02  0.70615942583E+01 -0.26044197809E+02  0.46939301991E+02  0.00000000000E+00 0.  1.
         12    1    4    4    0    0  0.52307030779E+02  0.59012470545E+01 -0.27939414244E+02  0.59594136071E+02  0.00000000000E+00 0. -1.
         -5    1    5    5    0  502 -0.21608523861E+02 -0.73402793117E+02  0.20507919721E+03  0.21893941050E+03  0.47000000000E+01 0.  1.
         11    1    6    6    0    0 -0.85377357979E+01  0.83302932013E+01  0.43570523680E+02  0.45173855836E+02  0.00000000000E+00 0. -1.
        -12    1    6    6    0    0  0.54525010684E+02 -0.52676027375E+02  0.29510887640E+02  0.81354982266E+02  0.00000000000E+00 0.  1.
</event>
<event>
12    1  0.8417180E-002  0.2905065E+03  0.7818608E-02  0.1090300E+00
         21   -1    0    0  501  502  0.00000000000E+00  0.00000000000E+00  0.16794874954E+03  0.16794874954E+03  0.00000000000E+00 0.  1.
         21   -1    0    0  502  503 -0.00000000000E+00 -0.00000000000E+00 -0.57811462862E+03  0.57811462862E+03  0.00000000000E+00 0. -1.
         -6    2    1    2    0  503  0.21800601279E+03  0.86682753089E+02 -0.68160803323E+02  0.29839556281E+03  0.17132861844E+03 0.  0.
        -24    2    3    3    0    0  0.19959347096E+03  0.90995713859E+02 -0.10546257978E+03  0.25631069790E+03  0.80343291772E+02 0.  0.
          6    2    1    2  501    0 -0.21800601279E+03 -0.86682753089E+02 -0.34200507576E+03  0.44766781535E+03  0.16851848490E+03 0.  0.
         24    2    5    5    0    0 -0.14938872608E+03 -0.49236716129E+02 -0.32153251056E+03  0.36672491173E+03  0.79766909450E+02 0.  0.
          5    1    5    5  501    0 -0.68617286712E+02 -0.37446036960E+02 -0.20472565202E+02  0.80942903615E+02  0.47000000000E+01 0. -1.
        -13    1    6    6    0    0 -0.64148730515E+02 -0.14169652503E+02 -0.58341672645E+02  0.87861194197E+02  0.00000000000E+00 0.  1.
         14    1    6    6    0    0 -0.85239995566E+02 -0.35067063626E+02 -0.26319083792E+03  0.27886371754E+03  0.00000000000E+00 0. -1.
         -5    1    3    3    0  503  0.18412541837E+02 -0.43129607704E+01  0.37301776460E+02  0.42084864911E+02  0.47000000000E+01 0.  1.
         11    1    4    4    0    0  0.19010420613E+03  0.57428621239E+02 -0.86537600156E+02  0.21662504926E+03  0.00000000000E+00 0. -1.
        -12    1    4    4    0    0  0.94892648259E+01  0.33567092620E+02 -0.18924979628E+02  0.39685648637E+02  0.00000000000E+00 0.  1.
</event>
<event>
12    1  0.8417180E-002  0.3120904E+03  0.7818608E-02  0.1079474E+00
         21   -1    0    0  501  502  0.00000000000E+00  0.00000000000E+00  0.28253745694E+03  0.28253745694E+03  0.00000000000E+00 0. -1.
         21   -1    0    0  502  503 -0.00000000000E+00 -0.00000000000E+00 -0.40304113861E+03  0.40304113861E+03  0.00000000000E+00 0. -1.
         -6    2    1    2    0  503  0.52744224949E+02 -0.25503188230E+03 -0.19201223731E+03  0.36642750496E+03  0.17198023972E+03 0.  0.
        -24    2    3    3    0    0  0.85508628250E+02 -0.20747921611E+03 -0.19593469610E+03  0.30835653227E+03  0.79586401049E+02 0.  0.
          6    2    1    2  501    0 -0.52744224949E+02  0.25503188230E+03  0.71508555633E+02  0.31915109060E+03  0.17006096213E+03 0.  0.
         24    2    5    5    0    0 -0.55270352916E+02  0.74255478576E+02 -0.50442531505E+01  0.12276139636E+03  0.80475014367E+02 0.  0.
          5    1    5    5  501    0  0.25261279678E+01  0.18077640373E+03  0.76552808784E+02  0.19638969423E+03  0.47000000000E+01 0. -1.
        -13    1    6    6    0    0 -0.25804154493E+02  0.36419251958E+02 -0.42713683247E+02  0.61779244401E+02  0.00000000000E+00 0.  1.
         14    1    6    6    0    0 -0.29466198423E+02  0.37836226619E+02  0.37669430096E+02  0.60982151963E+02  0.00000000000E+00 0. -1.
         -5    1    3    3    0  503 -0.32764403302E+02 -0.47552666191E+02  0.39224587984E+01  0.58070972685E+02  0.47000000000E+01 0.  1.
         11    1    4    4    0    0  0.96806364919E+02 -0.14518274769E+03 -0.15042135112E+03  0.23038247631E+03  0.00000000000E+00 0. -1.
        -12    1    4    4    0    0 -0.11297736669E+02 -0.62296468426E+02 -0.45513344980E+02  0.77974055964E+02  0.00000000000E+00 0.  1.
</event>
<event>
12    1  0.8417180E-002  0.1995905E+03  0.7818608E-02  0.1150152E+00
         21   -1    0    0  503  502  0.00000000000E+00  0.00000000000E+00  0.76236597260E+03  0.76236597260E+03  0.00000000000E+00 0. -1.
         21   -1    0    0  501  503 -0.00000000000E+00 -0.00000000000E+00 -0.20883322222E+03  0.20883322222E+03  0.00000000000E+00 0. -1.
          6    2    1    2  501    0 -0.92727176947E+02 -0.40613855206E+02 -0.14377070193E+03  0.24598044025E+03  0.17201321947E+03 0.  0.
         24    2    3    3    0    0 -0.81826697189E+02  0.35689643907E+02 -0.68447513356E+02  0.13810682358E+03  0.80119121193E+02 0.  0.
         -6    2    1    2    0  502  0.92727176947E+02  0.40613855206E+02  0.69730345231E+03  0.72521875457E+03  0.17164592278E+03 0.  0.
        -24    2    5    5    0    0  0.45036134038E+02  0.41380196627E+02  0.64982216522E+03  0.65775331544E+03  0.81424833629E+02 0.  0.
          5    1    3    3  501    0 -0.10900479758E+02 -0.76303499113E+02 -0.75323188569E+02  0.10787361666E+03  0.47000000000E+01 0. -1.
        -11    1    4    4    0    0 -0.41154184435E+02  0.58121978941E+02 -0.28026453778E+02  0.76533087249E+02  0.00000000000E+00 0.  1.
         12    1    4    4    0    0 -0.40672512754E+02 -0.22432335034E+02 -0.40421059579E+02  0.61573736335E+02  0.00000000000E+00 0. -1.
         -5    1    5    5    0  502  0.47691042909E+02 -0.76634142110E+00  0.47481287092E+02  0.67465439129E+02  0.47000000000E+01 0.  1.
         11    1    6    6    0    0  0.65855220497E+02  0.29390769954E+02  0.37417855335E+03  0.38106471526E+03  0.00000000000E+00 0. -1.
        -12    1    6    6    0    0 -0.20819086459E+02  0.11989426673E+02  0.27564361186E+03  0.27668860019E+03  0.00000000000E+00 0.  1.
</event>
<event>
12    1  0.8417180E-002  0.1745436E+03  0.7818608E-02  0.1173644E+00
         21   -1    0    0  501  502  0.00000000000E+00  0.00000000000E+00  0.12037593068E+04  0.12037593068E+04  0.00000000000E+00 0.  1.
         21   -1    0    0  502  503 -0.00000000000E+00 -0.00000000000E+00 -0.54769654136E+02  0.54769654136E+02  0.00000000000E+00 0.  1.
         -6    2    1    2    0  503  0.18137117337E+02 -0.24569309546E+02  0.10960108904E+03  0.20458680993E+03  0.17003163847E+03 0.  0.
        -24    2    3    3    0    0  0.57230811136E+02 -0.42441394018E+02  0.16430358015E+02  0.10187067966E+03  0.70929831808E+02 0.  0.
          6    2    1    2  501    0 -0.18137117337E+02  0.24569309546E+02  0.10393885636E+04  0.10539421510E+04  0.17185128884E+03 0.  0.
         24    2    5    5    0    0  0.47801633877E+02  0.46022232018E+02  0.60900935950E+03  0.61798745595E+03  0.81320684437E+02 0.  0.
          5    1    5    5  501    0 -0.65938751213E+02 -0.21452922472E+02  0.43037920409E+03  0.43595469502E+03  0.47000000000E+01 0. -1.
        -11    1    6    6    0    0  0.61593546611E+00 -0.60474440430E+01  0.33679237438E+03  0.33684722709E+03  0.00000000000E+00 0.  1.
         12    1    6    6    0    0  0.47185698410E+02  0.52069676061E+02  0.27221698512E+03  0.28114022886E+03  0.00000000000E+00 0. -1.
         -5    1    3    3    0  503 -0.39093693799E+02  0.17872084472E+02  0.93170731024E+02  0.10271613027E+03  0.47000000000E+01 0.  1.
         11    1    4    4    0    0  0.66543343511E+02 -0.44902057593E+02  0.29595954328E+02  0.85557769106E+02  0.00000000000E+00 0. -1.
        -12    1    4    4    0    0 -0.93125323750E+01  0.24606635757E+01 -0.13165596313E+02  0.16312910554E+02  0.00000000000E+00 0.  1.
</event>
<event>
12    1  0.8417180E-002  0.2304484E+03  0.7818608E-02  0.1126719E+00
         21   -1    0    0  503  502  0.00000000000E+00  0.00000000000E+00  0.10174774871E+03  0.10174774871E+03  0.00000000000E+00 0.  1.
         21   -1    0    0  501  503 -0.00000000000E+00 -0.00000000000E+00 -0.59801798194E+03  0.59801798194E+03  0.00000000000E+00 0.  1.
          6    2    1    2  501    0 -0.11369808380E+03 -0.98566861444E+02 -0.11822029419E+03  0.25701497326E+03  0.17157499260E+03 0.  0.
         24    2    3    3    0    0 -0.11081549542E+03 -0.11463151163E+03 -0.14181866867E+03  0.22793997404E+03  0.80147610657E+02 0.  0.
         -6    2    1    2    0  502  0.11369808380E+03  0.98566861444E+02 -0.37804993903E+03  0.44275075739E+03  0.17453881039E+03 0.  0.
        -24    2    5    5    0    0  0.14041989810E+03  0.53130756090E+02 -0.23294396639E+03  0.28829581792E+03  0.79441564252E+02 0.  0.
          5    1    3    3  501    0 -0.28825883763E+01  0.16064650190E+02  0.23598374482E+02  0.29074999221E+02  0.47000000000E+01 0. -1.
        -13    1    4    4    0    0  0.16162514361E+01 -0.35035071642E+02 -0.54604096429E+02  0.64897425685E+02  0.00000000000E+00 0.  1.
         14    1    4    4    0    0 -0.11243174686E+03 -0.79596439992E+02 -0.87214572245E+02  0.16304254835E+03  0.00000000000E+00 0. -1.
         -5    1    5    5    0  502 -0.26721814296E+02  0.45436105354E+02 -0.14510597264E+03  0.15445493947E+03  0.47000000000E+01 0.  1.
         11    1    6    6    0    0  0.62296192418E+02  0.30489358506E+02 -0.42837919626E+02  0.81519960315E+02  0.00000000000E+00 0. -1.
        -12    1    6    6    0    0  0.78123705678E+02  0.22641397584E+02 -0.19010604677E+03  0.20677585761E+03  0.00000000000E+00 0.  1.
</event>
<event>
12    1  0.8417180E-002  0.1953377E+03  0.7818608E-02  0.1154626E+00
         21   -1    0    0  503  502  0.00000000000E+00  0.00000000000E+00  0.84459169635E+03  0.84459169635E+03  0.00000000000E+00 0. -1.
         21   -1    0    0  501  503 -0.00000000000E+00 -0.00000000000E+00 -0.96454559708E+02  0.96454559708E+02  0.00000000000E+00 0. -1.
          6    2    1    2  501    0 -0.40452048588E+02  0.71907854339E+02  0.29701076959E+02  0.19758282319E+03  0.17705849400E+03 0.  0.
         24    2    3    3    0    0  0.39452134991E+02  0.22051319634E+02 -0.11440499043E+02  0.94699044674E+02  0.82427497784E+02 0.  0.
         -6    2    1    2    0  502  0.40452048588E+02 -0.71907854339E+02  0.71843605968E+03  0.74346343286E+03  0.17256997539E+03 0.  0.
        -24    2    5    5    0    0  0.65033816974E+02 -0.52263477218E+02  0.26516386101E+03  0.28907599798E+03  0.79323332150E+02 0.  0.
          5    1    3    3  501    0 -0.79904183578E+02  0.49856534705E+02  0.41141576002E+02  0.10288377852E+03  0.47000000000E+01 0. -1.
        -11    1    4    4    0    0 -0.18779287225E+02 -0.15602995055E+02  0.65556847988E-02  0.24415468997E+02  0.00000000000E+00 0.  1.
         12    1    4    4    0    0  0.58231422216E+02  0.37654314689E+02 -0.11447054728E+02  0.70283575677E+02  0.00000000000E+00 0. -1.
         -5    1    5    5    0  502 -0.24581768387E+02 -0.19644377121E+02  0.45327219867E+03  0.45438743488E+03  0.47000000000E+01 0.  1.
         13    1    6    6    0    0  0.61888085942E+02 -0.74053543904E+00  0.16824437952E+03  0.17926755093E+03  0.00000000000E+00 0. -1.
        -14    1    6    6    0    0  0.31457310324E+01 -0.51522941779E+02  0.96919481487E+02  0.10980844706E+03  0.00000000000E+00 0.  1.
</event>
<event>
12    1  0.8417180E-002  0.2065039E+03  0.7818608E-02  0.1144394E+00
         21   -1    0    0  501  502  0.00000000000E+00  0.00000000000E+00  0.89681507302E+03  0.89681507302E+03  0.00000000000E+00 0.  1.
         21   -1    0    0  502  503 -0.00000000000E+00 -0.00000000000E+00 -0.50329809131E+02  0.50329809131E+02  0.00000000000E+00 0. -1.
         -6    2    1    2    0  503 -0.10971853122E+03  0.27464966460E+02  0.53533970371E+03  0.57378782143E+03  0.17277553407E+03 0.  0.
        -24    2    3    3    0    0 -0.38277197925E+02  0.74147223866E+02  0.23995923586E+03  0.26629016608E+03  0.79793878119E+02 0.  0.
          6    2    1    2  501    0  0.10971853122E+03 -0.27464966460E+02  0.31114556018E+03  0.37335706072E+03  0.17260201243E+03 0.  0.
         24    2    5    5    0    0  0.30833805524E+01  0.23475225770E+02  0.10064088318E+03  0.13190257726E+03  0.81909151268E+02 0.  0.
          5    1    5    5  501    0  0.10663515067E+03 -0.50940192230E+02  0.21050467700E+03  0.24145448346E+03  0.47000000000E+01 0. -1.
        -11    1    6    6    0    0  0.33918954722E+00  0.52326446892E+02  0.82551367359E+02  0.97738939767E+02  0.00000000000E+00 0.  1.
         12    1    6    6    0    0  0.27441910051E+01 -0.28851221122E+02  0.18089515819E+02  0.34163637498E+02  0.00000000000E+00 0. -1.
         -5    1    3    3    0  503 -0.71441333299E+02 -0.46682257406E+02  0.29538046785E+03  0.30749765535E+03  0.47000000000E+01 0.  1.
         13    1    4    4    0    0 -0.53606427977E+01 -0.79967385128E+01 -0.91885825017E+00  0.96710195187E+01  0.00000000000E+00 0. -1.
        -14    1    4    4    0    0 -0.32916555128E+02  0.82143962379E+02  0.24087809411E+03  0.25661914656E+03  0.00000000000E+00 0.  1.
</event>
<event>
12    1  0.8417180E-002  0.2412829E+03  0.7818608E-02  0.1119017E+00
         21   -1    0    0  501  502  0.00000000000E+00  0.00000000000E+00  0.22776691737E+03  0.22776691737E+03  0.00000000000E+00 0.  1.
         21   -1    0    0  502  503 -0.00000000000E+00 -0.00000000000E+00 -0.59794410549E+03  0.59794410549E+03  0.00000000000E+00 0.  1.
         -6    2    1    2    0  503  0.26151686018E+02 -0.16721317358E+03 -0.49777721124E+03  0.55317228256E+03  0.17196879386E+03 0.  0.
        -24    2    3    3    0    0  0.81788967850E+02 -0.12258372317E+03 -0.33808808325E+03  0.37821513760E+03  0.83826808529E+02 0.  0.
          6    2    1    2  501    0 -0.26151686018E+02  0.16721317358E+03  0.12760002313E+03  0.27253874030E+03  0.17132262828E+03 0.  0.
         24    2    5    5    0    0 -0.12795967920E+02  0.17710485614E+03  0.14859848811E+03  0.24534965938E+03  0.81148492437E+02 0.  0.
          5    1    5    5  501    0 -0.13355718098E+02 -0.98916825581E+01 -0.20998464981E+02  0.27189080920E+02  0.47000000000E+01 0. -1.
        -13    1    6    6    0    0 -0.47226790265E+02  0.10830234678E+03  0.85396241462E+02  0.14578163839E+03  0.00000000000E+00 0.  1.
         14    1    6    6    0    0  0.34430822344E+02  0.68802509367E+02  0.63202246643E+02  0.99568020987E+02  0.00000000000E+00 0. -1.
         -5    1    3    3    0  503 -0.55637281832E+02 -0.44629450412E+02 -0.15968912799E+03  0.17495714496E+03  0.47000000000E+01 0.  1.
         13    1    4    4    0    0  0.26991191362E+02  0.30844904828E+01 -0.98479340168E+02  0.10215781386E+03  0.00000000000E+00 0. -1.
        -14    1    4    4    0    0  0.54797776487E+02 -0.12566821366E+03 -0.23960874308E+03  0.27605732374E+03  0.00000000000E+00 0.  1.
</event>
<event>
12    1  0.8417180E-002  0.2301179E+03  0.7818608E-02  0.1126722E+00
         21   -1    0    0  503  502  0.00000000000E+00  0.00000000000E+00  0.51240648654E+02  0.51240648654E+02  0.00000000000E+00 0.  1.
         21   -1    0    0  501  503 -0.00000000000E+00 -0.00000000000E+00 -0.10334785430E+04  0.10334785430E+04  0.00000000000E+00 0.  1.
          6    2    1    2  501    0  0.12996167116E+03 -0.79665742424E+02 -0.52685913971E+03  0.57492155847E+03  0.17238787314E+03 0.  0.
         24    2    3    3    0    0  0.44165685935E+02 -0.33724110394E+01 -0.10950221978E+03  0.14203530076E+03  0.78875278481E+02 0.  0.
         -6    2    1    2    0  502 -0.12996167116E+03  0.79665742424E+02 -0.45537875460E+03  0.50979763316E+03  0.17113488873E+03 0.  0.
        -24    2    5    5    0    0 -0.75509643505E+02 -0.51330908687E+01 -0.33551853737E+03  0.35313102179E+03  0.80004842002E+02 0.  0.
          5    1    3    3  501    0  0.85795985225E+02 -0.76293331385E+02 -0.41735691993E+03  0.43288625771E+03  0.47000000000E+01 0. -1.
        -11    1    4    4    0    0 -0.22783134697E+02 -0.55548344725E+01 -0.26900002978E+02  0.35686658191E+02  0.00000000000E+00 0.  1.
         12    1    4    4    0    0  0.66948820632E+02  0.21824234331E+01 -0.82602216804E+02  0.10634864257E+03  0.00000000000E+00 0. -1.
         -5    1    5    5    0  502 -0.54452027654E+02  0.84798833293E+02 -0.11986021723E+03  0.15666661137E+03  0.47000000000E+01 0.  1.
         13    1    6    6    0    0 -0.17894131159E+02 -0.48188634241E+01 -0.73385807960E+01  0.19931787244E+02  0.00000000000E+00 0. -1.
        -14    1    6    6    0    0 -0.57615512347E+02 -0.31422744460E+00 -0.32817995658E+03  0.33319923455E+03  0.00000000000E+00 0.  1.
</event>
<event>
12    1  0.8417180E-002  0.2872710E+03  0.7818608E-02  0.1092579E+00
         21   -1    0    0  501  502  0.00000000000E+00  0.00000000000E+00  0.59424245601E+03  0.59424245601E+03  0.00000000000E+00 0.  1.
         21   -1    0    0  502  503 -0.00000000000E+00 -0.00000000000E+00 -0.15365825028E+03  0.15365825028E+03  0.00000000000E+00 0. -1.
         -6    2    1    2    0  503 -0.21186282180E+03 -0.85152140668E+02  0.95600189382E+02  0.30276071413E+03  0.17432128810E+03 0.  0.
        -24    2    3    3    0    0 -0.85073557793E+02 -0.24153069117E+02 -0.20495956703E+02  0.12028658080E+03  0.78917021581E+02 0.  0.
          6    2    1    2  501    0  0.21186282180E+03  0.85152140668E+02  0.34498401634E+03  0.44513999217E+03  0.16431341629E+03 0.  0.
         24    2    5    5    0    0  0.81439901943E+02  0.54341880669E+02  0.25168130830E+03  0.28177874990E+03  0.80438083798E+02 0.  0.
          5    1    5    5  501    0  0.13042291986E+03  0.30810259999E+02  0.93302708039E+02  0.16336124226E+03  0.47000000000E+01 0. -1.
        -11    1    6    6    0    0  0.88989708334E+02  0.19940044091E+02  0.17268946797E+03  0.19529061906E+03  0.00000000000E+00 0.  1.
         12    1    6    6    0    0 -0.75498063908E+01  0.34401836578E+02  0.78991840337E+02  0.86488130841E+02  0.00000000000E+00 0. -1.
         -5    1    3    3    0  503 -0.12678926401E+03 -0.60999071550E+02  0.11609614609E+03  0.18247413333E+03  0.47000000000E+01 0.  1.
         13    1    4    4    0    0 -0.38296390531E+02  0.28674246366E+02 -0.10996469300E+02  0.49089186889E+02  0.00000000000E+00 0. -1.
        -14    1    4    4    0    0 -0.46777167261E+02 -0.52827315484E+02 -0.94994874035E+01  0.71197393907E+02  0.00000000000E+00 0.  1.
</event>
<event>
12    1  0.8417180E-002  0.4573123E+03  0.7818608E-02  0.1025637E+00
         21   -1    0    0  503  502  0.00000000000E+00  0.00000000000E+00  0.31581951274E+03  0.31581951274E+03  0.00000000000E+00 0.  1.
         21   -1    0    0  501  503 -0.00000000000E+00 -0.00000000000E+00 -0.91846296089E+03  0.91846296089E+03  0.00000000000E+00 0. -1.
          6    2    1    2  501    0 -0.38529655100E+03  0.17613197092E+03 -0.62799272567E+03  0.77626814739E+03  0.16953309342E+03 0.  0.
         24    2    3    3    0    0 -0.30364519799E+03  0.76779276094E+02 -0.49031444232E+03  0.58781310999E+03  0.83788641368E+02 0.  0.
         -6    2    1    2    0  502  0.38529655100E+03 -0.17613197092E+03  0.25349277514E+02  0.45801432624E+03  0.17221682200E+03 0.  0.
        -24    2    5    5    0    0  0.29840601041E+03 -0.65855320639E+02  0.18707099081E+02  0.31738319819E+03  0.83660436504E+02 0.  0.
          5    1    3    3  501    0 -0.81651353009E+02  0.99352694825E+02 -0.13767828335E+03  0.18845503741E+03  0.47000000000E+01 0. -1.
        -13    1    4    4    0    0 -0.23132563055E+03  0.30199422549E+02 -0.40020332709E+03  0.46323455775E+03  0.00000000000E+00 0.  1.
         14    1    4    4    0    0 -0.72319567439E+02  0.46579853545E+02 -0.90111115226E+02  0.12457855224E+03  0.00000000000E+00 0. -1.
         -5    1    5    5    0  502  0.86890540594E+02 -0.11027665028E+03  0.66421784335E+01  0.14063112805E+03  0.47000000000E+01 0.  1.
         13    1    6    6    0    0  0.69274484134E+02  0.19244958890E+02  0.11809622495E+02  0.72861442329E+02  0.00000000000E+00 0. -1.
        -14    1    6    6    0    0  0.22913152627E+03 -0.85100279529E+02  0.68974765859E+01  0.24452175586E+03  0.00000000000E+00 0.  1.
</event>
<event>
12    1  0.8417180E-002  0.1949092E+03  0.7818608E-02  0.1154378E+00
         21   -1    0    0  503  502  0.00000000000E+00  0.00000000000E+00  0.42141151684E+04  0.42141151684E+04  0.00000000000E+00 0.  1.
         21   -1    0    0  501  503 -0.00000000000E+00 -0.00000000000E+00 -0.18039128114E+02  0.18039128114E+02  0.00000000000E+00 0. -1.
          6    2    1    2  501    0  0.92508121083E+02 -0.50448140472E+01  0.59994276966E+03  0.63080973348E+03  0.17148291568E+03 0.  0.
         24    2    3    3    0    0  0.10385445211E+03 -0.21982259571E+02  0.59182140853E+03  0.60836730056E+03  0.92678076365E+02 0.  0.
         -6    2    1    2    0  502 -0.92508121083E+02  0.50448140472E+01  0.35961332706E+04  0.36013445630E+04  0.17007339290E+03 0.  0.
        -24    2    5    5    0    0 -0.43473676080E+02 -0.62135751831E+02  0.19879907396E+04  0.19910458034E+04  0.80033732115E+02 0.  0.
          5    1    3    3  501    0 -0.11346331024E+02  0.16937445524E+02  0.81213611251E+01  0.22442432914E+02  0.47000000000E+01 0. -1.
        -11    1    4    4    0    0  0.43319623237E+02  0.34916246641E+02  0.18665474319E+03  0.19477096086E+03  0.00000000000E+00 0.  1.
         12    1    4    4    0    0  0.60534828870E+02 -0.56898506212E+02  0.40516666534E+03  0.41359633971E+03  0.00000000000E+00 0. -1.
         -5    1    5    5    0  502 -0.49034445004E+02  0.67180565879E+02  0.16081425310E+04  0.16102987596E+04  0.47000000000E+01 0.  1.
         11    1    6    6    0    0 -0.34044022529E+02 -0.20580953062E+02  0.31362798402E+03  0.31614092342E+03  0.00000000000E+00 0. -1.
        -12    1    6    6    0    0 -0.94296535505E+01 -0.41554798770E+02  0.16743627556E+04  0.16749048800E+04  0.00000000000E+00 0.  1.
</event>
<event>
12    1  0.8417180E-002  0.1964556E+03  0.7818608E-02  0.1153523E+00
         21   -1    0    0  501  502  0.00000000000E+00  0.00000000000E+00  0.53098976162E+02  0.53098976162E+02  0.00000000000E+00 0.  1.
         21   -1    0    0  502  503 -0.00000000000E+00 -0.00000000000E+00 -0.13476802425E+04  0.13476802425E+04  0.00000000000E+00 0.  1.
         -6    2    1    2    0  503 -0.65349874076E+02 -0.58125399545E+02 -0.11306044271E+04  0.11475457214E+04  0.17591374026E+03 0.  0.
        -24    2    3    3    0    0 -0.30072306927E+02  0.38232905206E+02 -0.58502453854E+03  0.59238003943E+03  0.79336635513E+02 0.  0.
          6    2    1    2  501    0  0.65349874076E+02  0.58125399545E+02 -0.16397683918E+03  0.25323349721E+03  0.17201637191E+03 0.  0.
         24    2    5    5    0    0 -0.12575890409E+02  0.34691010015E+02 -0.13062469639E+03  0.16516505330E+03  0.94101351365E+02 0.  0.
          5    1    5    5  501    0  0.77925764485E+02  0.23434389530E+02 -0.33352142789E+02  0.88068443905E+02  0.47000000000E+01 0. -1.
        -13    1    6    6    0    0  0.23448438430E+02  0.14618857796E+02  0.57361078352E+00  0.27638185494E+02  0.00000000000E+00 0.  1.
         14    1    6    6    0    0 -0.36024328839E+02  0.20072152219E+02 -0.13119830718E+03  0.13752686781E+03  0.00000000000E+00 0. -1.
         -5    1    3    3    0  503 -0.35277567149E+02 -0.96358304751E+02 -0.54557988861E+03  0.55516568202E+03  0.47000000000E+01 0.  1.
         11    1    4    4    0    0 -0.53708663645E+02  0.18373086069E+02 -0.27343960499E+03  0.27926941906E+03  0.00000000000E+00 0. -1.
        -12    1    4    4    0    0  0.23636356718E+02  0.19859819137E+02 -0.31158493355E+03  0.31311062038E+03  0.00000000000E+00 0.  1.
</event>
<event>
12    1  0.8417180E-002  0.5161350E+03  0.7818608E-02  0.1009679E+00
         21   -1    0    0  503  502  0.00000000000E+00  0.00000000000E+00  0.37656764587E+03  0.37656764587E+03  0.00000000000E+00 0.  1.
         21   -1    0    0  501  503 -0.00000000000E+00 -0.00000000000E+00 -0.72847400965E+03  0.72847400965E+03  0.00000000000E+00 0. -1.
          6    2    1    2  501    0  0.11775245085E+03  0.47160921298E+03 -0.27130326001E+03  0.58309584851E+03  0.17353506910E+03 0.  0.
         24    2    3    3    0    0  0.13911118589E+03  0.43839174645E+03 -0.27715813889E+03  0.54289677822E+03  0.79881364854E+02 0.  0.
         -6    2    1    2    0  502 -0.11775245085E+03 -0.47160921298E+03 -0.80603103772E+02  0.52194580702E+03  0.17219081182E+03 0.  0.
        -24    2    5    5    0    0  0.23911838930E+02 -0.20505792672E+03 -0.33722786778E+02  0.21643277403E+03  0.55546286754E+02 0.  0.
          5    1    3    3  501    0 -0.21358735039E+02  0.33217466535E+02  0.58548788871E+01  0.40199070291E+02  0.47000000000E+01 0. -1.
        -11    1    4    4    0    0  0.46863471923E+02  0.12798637680E+03 -0.12567512362E+03  0.18539399759E+03  0.00000000000E+00 0.  1.
         12    1    4    4    0    0  0.92247713969E+02  0.31040536964E+03 -0.15148301528E+03  0.35750278062E+03  0.00000000000E+00 0. -1.
         -5    1    5    5    0  502 -0.14166428978E+03 -0.26655128626E+03 -0.46880316995E+02  0.30551303299E+03  0.47000000000E+01 0.  1.
         13    1    6    6    0    0  0.23408466862E+02 -0.44906941566E+02  0.71593080584E+01  0.51145336186E+02  0.00000000000E+00 0. -1.
        -14    1    6    6    0    0  0.50337206792E+00 -0.16015098515E+03 -0.40882094836E+02  0.16528743784E+03  0.00000000000E+00 0.  1.
</event>
<event>
12    1  0.8417180E-002  0.2202119E+03  0.7818608E-02  0.1133775E+00
         21   -1    0    0  503  502  0.00000000000E+00  0.00000000000E+00  0.12937832406E+04  0.12937832406E+04  0.00000000000E+00 0. -1.
         21   -1    0    0  501  503 -0.00000000000E+00 -0.00000000000E+00 -0.10614190301E+03  0.10614190301E+03  0.00000000000E+00 0. -1.
          6    2    1    2  501    0 -0.10736136546E+03  0.85744868150E+02  0.30536900627E+02  0.22205249878E+03  0.17174447504E+03 0.  0.
         24    2    3    3    0    0  0.11343809674E+02  0.30632335073E+02  0.22800962731E+02  0.90864676779E+02  0.81666906484E+02 0.  0.
         -6    2    1    2    0  502  0.10736136546E+03 -0.85744868150E+02  0.11571044370E+04  0.11778726449E+04  0.17208905893E+03 0.  0.
        -24    2    5    5    0    0  0.33338041418E+00  0.45067881135E+01  0.39097306593E+03  0.39904036590E+03  0.79704786856E+02 0.  0.
          5    1    3    3  501    0 -0.11870517513E+03  0.55112533077E+02  0.77359378960E+01  0.13118782200E+03  0.47000000000E+01 0. -1.
        -11    1    4    4    0    0 -0.10737874523E+02  0.45808434501E+02  0.37624278441E+02  0.60243679743E+02  0.00000000000E+00 0.  1.
         12    1    4    4    0    0  0.22081684197E+02 -0.15176099428E+02 -0.14823315710E+02  0.30620997036E+02  0.00000000000E+00 0. -1.
         -5    1    5    5    0  502  0.10702798505E+03 -0.90251656264E+02  0.76613137107E+03  0.77883227898E+03  0.47000000000E+01 0.  1.
         13    1    6    6    0    0  0.20584216711E+02 -0.30430876428E+01  0.36345329245E+03  0.36404843930E+03  0.00000000000E+00 0. -1.
        -14    1    6    6    0    0 -0.20250836297E+02  0.75498757563E+01  0.27519773479E+02  0.34991926597E+02  0.00000000000E+00 0.  1.
</event>
<event>
12    1  0.8417180E-002  0.1757717E+03  0.7818608E-02  0.1172086E+00
         21   -1    0    0  501  502  0.00000000000E+00  0.00000000000E+00  0.51506179540E+03  0.51506179540E+03  0.00000000000E+00 0.  1.
         21   -1    0    0  502  503 -0.00000000000E+00 -0.00000000000E+00 -0.77033991558E+02  0.77033991558E+02  0.00000000000E+00 0.  1.
         -6    2    1    2    0  503 -0.87675327262E+01  0.33506876490E+02  0.79279029572E+02  0.19282335666E+03  0.17232556961E+03 0.  0.
        -24    2    3    3    0    0 -0.43401739253E+02  0.62214356597E+02  0.94709087193E+02  0.14503398175E+03  0.79439961791E+02 0.  0.
          6    2    1    2  501    0  0.87675327262E+01 -0.33506876490E+02  0.35874877427E+03  0.39927243030E+03  0.17180864400E+03 0.  0.
         24    2    5    5    0    0 -0.29294213659E+02 -0.21727918845E+02  0.34644838821E+03  0.35731018682E+03  0.79459615512E+02 0.  0.
          5    1    5    5  501    0  0.38061746385E+02 -0.11778957645E+02  0.12300386064E+02  0.41962243486E+02  0.47000000000E+01 0. -1.
        -13    1    6    6    0    0 -0.19631809944E+02 -0.50722179044E+02  0.25974124609E+03  0.26537456987E+03  0.00000000000E+00 0.  1.
         14    1    6    6    0    0 -0.96624037151E+01  0.28994260199E+02  0.86707142116E+02  0.91935616950E+02  0.00000000000E+00 0. -1.
         -5    1    3    3    0  503  0.34634206527E+02 -0.28707480107E+02 -0.15430057621E+02  0.47789374907E+02  0.47000000000E+01 0.  1.
         13    1    4    4    0    0  0.80655048142E+01  0.28393169996E+02  0.74634977678E+02  0.80259606050E+02  0.00000000000E+00 0. -1.
        -14    1    4    4    0    0 -0.51467244068E+02  0.33821186600E+02  0.20074109515E+02  0.64774375704E+02  0.00000000000E+00 0.  1.
</event>
<event>
12    1  0.8417180E-002  0.1932289E+03  0.7818608E-02  0.1155868E+00
         21   -1    0    0  501  502  0.00000000000E+00  0.00000000000E+00  0.69889502322E+02  0.69889502322E+02  0.00000000000E+00 0. -1.
         21   -1    0    0  502  503 -0.00000000000E+00 -0.00000000000E+00 -0.71502739356E+03  0.71502739356E+03  0.00000000000E+00 0. -1.
         -6    2    1    2    0  503 -0.20617344077E+01 -0.85032249119E+02 -0.52266515963E+03  0.55723987698E+03  0.17350123130E+03 0.  0.
        -24    2    3    3    0    0 -0.25156726026E+02 -0.66945944348E+02 -0.15706479894E+03  0.19043446972E+03  0.80506619982E+02 0.  0.
          6    2    1    2  501    0  0.20617344077E+01  0.85032249119E+02 -0.12247273161E+03  0.22767701891E+03  0.17205383115E+03 0.  0.
         24    2    5    5    0    0  0.15971416958E+02  0.10362642481E+03 -0.14439927651E+03  0.19539566191E+03  0.79591403804E+02 0.  0.
          5    1    5    5  501    0 -0.13909682550E+02 -0.18594175690E+02  0.21926544900E+02  0.32281356995E+02  0.47000000000E+01 0. -1.
        -13    1    6    6    0    0 -0.11735703689E+02  0.20581059177E+02 -0.88287952943E+02  0.91411538510E+02  0.00000000000E+00 0.  1.
         14    1    6    6    0    0  0.27707120646E+02  0.83045365633E+02 -0.56111323568E+02  0.10398412340E+03  0.00000000000E+00 0. -1.
         -5    1    3    3    0  503  0.23094991619E+02 -0.18086304771E+02 -0.36560036069E+03  0.36680540726E+03  0.47000000000E+01 0.  1.
         13    1    4    4    0    0 -0.30658843898E+02 -0.63374313713E+02 -0.16543998978E+03  0.17979615838E+03  0.00000000000E+00 0. -1.
        -14    1    4    4    0    0  0.55021178721E+01 -0.35716306346E+01  0.83751908434E+01  0.10638311338E+02  0.00000000000E+00 0.  1.
</event>
<event>
12    1  0.8417180E-002  0.2208829E+03  0.7818608E-02  0.1133293E+00
         21   -1    0    0  501  502  0.00000000000E+00  0.00000000000E+00  0.14569708567E+03  0.14569708567E+03  0.00000000000E+00 0.  1.
         21   -1    0    0  502  503 -0.00000000000E+00 -0.00000000000E+00 -0.40840457998E+03  0.40840457998E+03  0.00000000000E+00 0. -1.
         -6    2    1    2    0  503  0.13808502547E+03  0.10914313967E+02 -0.13446757754E+02  0.22129183676E+03  0.17205425078E+03 0.  0.
        -24    2    3    3    0    0  0.12320674887E+03 -0.16789438629E+01  0.50542445261E+02  0.15423468680E+03  0.77788675400E+02 0.  0.
          6    2    1    2  501    0 -0.13808502547E+03 -0.10914313967E+02 -0.24926073655E+03  0.33280982890E+03  0.17159507835E+03 0.  0.
         24    2    5    5    0    0 -0.52097802230E+02  0.25796938763E+02 -0.20377638404E+03  0.22873084465E+03  0.86100647829E+02 0.  0.
          5    1    5    5  501    0 -0.85987223240E+02 -0.36711252730E+02 -0.45484352517E+02  0.10407898424E+03  0.47000000000E+01 0. -1.
        -13    1    6    6    0    0 -0.17661062910E+00  0.38673067952E+02 -0.36759769267E+02  0.53356517996E+02  0.00000000000E+00 0.  1.
         14    1    6    6    0    0 -0.51921191601E+02 -0.12876129189E+02 -0.16701661477E+03  0.17537432665E+03  0.00000000000E+00 0. -1.
         -5    1    3    3    0  503  0.14878276599E+02  0.12593257830E+02 -0.63989203016E+02  0.67057149954E+02  0.47000000000E+01 0.  1.
         13    1    4    4    0    0  0.19403527738E+02  0.10627150326E+02 -0.18602546038E+02  0.28904808109E+02  0.00000000000E+00 0. -1.
        -14    1    4    4    0    0  0.10380322113E+03 -0.12306094189E+02  0.69144991299E+02  0.12532987869E+03  0.00000000000E+00 0.  1.
</event>
<event>
12    1  0.8417180E-002  0.2249854E+03  0.7818608E-02  0.1130388E+00
         21   -1    0    0  503  502  0.00000000000E+00  0.00000000000E+00  0.27228747048E+03  0.27228747048E+03  0.00000000000E+00 0.  1.
         21   -1    0    0  501  503 -0.00000000000E+00 -0.00000000000E+00 -0.21969429415E+03  0.21969429415E+03  0.00000000000E+00 0.  1.
          6    2    1    2  501    0  0.54106578851E+02  0.13353513813E+03 -0.71220944532E+02  0.23598909686E+03  0.17279836777E+03 0.  0.
         24    2    3    3    0    0 -0.23559279900E+02  0.65609241686E+02 -0.77101311612E+02  0.13253581397E+03  0.82228446831E+02 0.  0.
         -6    2    1    2    0  502 -0.54106578851E+02 -0.13353513813E+03  0.12381412086E+03  0.25599266777E+03  0.17159007674E+03 0.  0.
        -24    2    5    5    0    0  0.29387733707E+01 -0.13431167143E+03  0.12173458310E+03  0.19871099800E+03  0.81354105808E+02 0.  0.
          5    1    3    3  501    0  0.77665858752E+02  0.67925896446E+02  0.58803670803E+01  0.10345328289E+03  0.47000000000E+01 0. -1.
        -11    1    4    4    0    0  0.70430887073E+00  0.79698576211E+02 -0.58635705469E+02  0.98946981040E+02  0.00000000000E+00 0.  1.
         12    1    4    4    0    0 -0.24263588771E+02 -0.14089334524E+02 -0.18465606143E+02  0.33588832930E+02  0.00000000000E+00 0. -1.
         -5    1    5    5    0  502 -0.57045352222E+02  0.77653330235E+00  0.20795377596E+01  0.57281669768E+02  0.47000000000E+01 0.  1.
         13    1    6    6    0    0 -0.13498186961E+02  0.29026103280E+01 -0.10531212271E+01  0.13846850265E+02  0.00000000000E+00 0. -1.
        -14    1    6    6    0    0  0.16436960331E+02 -0.13721428176E+03  0.12278770433E+03  0.18486414774E+03  0.00000000000E+00 0.  1.
</event>
<event>
12    1  0.8417180E-002  0.2166858E+03  0.7818608E-02  0.1137371E+00
         21   -1    0    0  503  502  0.00000000000E+00  0.00000000000E+00  0.13411369781E+03  0.13411369781E+03  0.00000000000E+00 0. -1.
         21   -1    0    0  501  503 -0.00000000000E+00 -0.00000000000E+00 -0.68973262271E+03  0.68973262271E+03  0.00000000000E+00 0. -1.
          6    2    1    2  501    0  0.11959271955E+03 -0.34612853909E+02 -0.56869948255E+03  0.60676605328E+03  0.17101308059E+03 0.  0.
         24    2    3    3    0    0  0.10657823208E+02 -0.27045079265E+02 -0.14660031451E+03  0.17074554858E+03  0.82567333970E+02 0.  0.
         -6    2    1    2    0  502 -0.11959271955E+03  0.34612853909E+02  0.13080557649E+02  0.21708026723E+03  0.17734788752E+03 0.  0.
        -24    2    5    5    0    0 -0.12510686553E+03  0.74300114452E+02 -0.16686457579E+02  0.16694395653E+03  0.80122480901E+02 0.  0.
          5    1    3    3  501    0  0.10893489634E+03 -0.75677746434E+01 -0.42209916804E+03  0.43602050470E+03  0.47000000000E+01 0. -1.
        -13    1    4    4    0    0  0.20703781146E+02  0.15853005944E+02 -0.11240208957E+02  0.28395539238E+02  0.00000000000E+00 0.  1.
         14    1    4    4    0    0 -0.10045957938E+02 -0.42898085209E+02 -0.13536010555E+03  0.14235000935E+03  0.00000000000E+00 0. -1.
         -5    1    5    5    0  502  0.55141459773E+01 -0.39687260544E+02  0.29767015228E+02  0.50136310703E+02  0.47000000000E+01 0.  1.
         11    1    6    6    0    0 -0.34146243667E+01  0.29317645617E+02  0.15404971731E+02  0.33294100951E+02  0.00000000000E+00 0. -1.
        -12    1    6    6    0    0 -0.12169224116E+03  0.44982468835E+02 -0.32091429310E+02  0.13364985558E+03  0.00000000000E+00 0.  1.
</event>
<event>
12    1  0.8417180E-002  0.1774126E+03  0.7818608E-02  0.1170747E+00
         21   -1    0    0  503  502  0.00000000000E+00  0.00000000000E+00  0.60639539396E+02  0.60639539396E+02  0.00000000000E+00 0. -1.
         21   -1    0    0  501  503 -0.00000000000E+00 -0.00000000000E+00 -0.51945723431E+03  0.51945723431E+03  0.00000000000E+00 0. -1.
          6    2    1    2  501    0 -0.32589499041E+02  0.57377109562E+01 -0.25978114870E+03  0.31458141508E+03  0.17429923901E+03 0.  0.
         24    2    3    3    0    0 -0.82186491242E+02  0.26450884620E+02 -0.21162921519E+03  0.24226547009E+03  0.80320387446E+02 0.  0.
         -6    2    1    2    0  502  0.32589499041E+02 -0.57377109562E+01 -0.19903654621E+03  0.26551535862E+03  0.17259160513E+03 0.  0.
        -24    2    5    5    0    0  0.63505057412E+02  0.43911366829E+02 -0.16040480058E+03  0.19526363661E+03  0.80231460675E+02 0.  0.
          5    1    3    3  501    0  0.49596992201E+02 -0.20713173664E+02 -0.48151933515E+02  0.72315944991E+02  0.47000000000E+01 0. -1.
        -11    1    4    4    0    0  0.10652899715E+00 -0.13592597860E+02 -0.22754337351E+01  0.13782150184E+02  0.00000000000E+00 0.  1.
         12    1    4    4    0    0 -0.82293020240E+02  0.40043482480E+02 -0.20935378145E+03  0.22848331991E+03  0.00000000000E+00 0. -1.
         -5    1    5    5    0  502 -0.30915558370E+02 -0.49649077785E+02 -0.38631745637E+02  0.70251722009E+02  0.47000000000E+01 0.  1.
         13    1    6    6    0    0  0.80208354170E+02  0.21695633406E+02 -0.12757625588E+03  0.15224907767E+03  0.00000000000E+00 0. -1.
        -14    1    6    6    0    0 -0.16703296758E+02  0.22215733423E+02 -0.32828544700E+02  0.43014558945E+02  0.00000000000E+00 0.  1.
</event>
<event>
12    1  0.8417180E-002  0.2334592E+03  0.7818608E-02  0.1124262E+00
         21   -1    0    0  503  502  0.00000000000E+00  0.00000000000E+00  0.32375908592E+02  0.32375908592E+02  0.00000000000E+00 0.  1.
         21   -1    0    0  501  503 -0.00000000000E+00 -0.00000000000E+00 -0.29507521973E+04  0.29507521973E+04  0.00000000000E+00 0.  1.
          6    2    1    2  501    0 -0.15092173784E+03  0.45490403102E+02 -0.24368816916E+04  0.24480204267E+04  0.17194441902E+03 0.  0.
         24    2    3    3    0    0 -0.17467136889E+03  0.47090459850E+02 -0.23328719200E+04  0.23412181433E+04  0.79267906554E+02 0.  0.
         -6    2    1    2    0  502  0.15092173784E+03 -0.45490403102E+02 -0.48149459710E+03  0.53510767913E+03  0.17221043377E+03 0.  0.
        -24    2    5    5    0    0  0.14195995848E+03 -0.37017093082E+01 -0.45834650303E+03  0.48627600214E+03  0.78844790290E+02 0.  0.
          5    1    3    3  501    0  0.23749631053E+02 -0.16000567476E+01 -0.10400977159E+03  0.10680228341E+03  0.47000000000E+01 0. -1.
        -11    1    4    4    0    0 -0.16388820543E+03  0.60088289165E+02 -0.18955550584E+04  0.19035753008E+04  0.00000000000E+00 0.  1.
         12    1    4    4    0    0 -0.10783163466E+02 -0.12997829315E+02 -0.43731686163E+03  0.43764284256E+03  0.00000000000E+00 0. -1.
         -5    1    5    5    0  502  0.89617793559E+01 -0.41788693794E+02 -0.23148094071E+02  0.48831676987E+02  0.47000000000E+01 0.  1.
         11    1    6    6    0    0 -0.37258707630E+01  0.14717834563E+02 -0.33875368114E+02  0.37121925220E+02  0.00000000000E+00 0. -1.
        -12    1    6    6    0    0  0.14568582924E+03 -0.18419543872E+02 -0.42447113492E+03  0.44915407692E+03  0.00000000000E+00 0.  1.
</event>
<event>
12    1  0.8417180E-002  0.1774601E+03  0.7818608E-02  0.1170445E+00
         21   -1    0    0  501  502  0.00000000000E+00  0.00000000000E+00  0.16041541003E+03  0.16041541003E+03  0.00000000000E+00 0.  1.
         21   -1    0    0  502  503 -0.00000000000E+00 -0.00000000000E+00 -0.22302386694E+03  0.22302386694E+03  0.00000000000E+00 0.  1.
         -6    2    1    2    0  503  0.11626504387E+02 -0.41995008601E+02 -0.98589153247E+02  0.20300720074E+03  0.17202716664E+03 0.  0.
        -24    2    3    3    0    0 -0.47475523120E+02 -0.54083300081E+02 -0.90578342789E+02  0.14197082199E+03  0.82294285778E+02 0.  0.
          6    2    1    2  501    0 -0.11626504387E+02  0.41995008601E+02  0.35980696339E+02  0.18043207622E+03  0.17135450759E+03 0.  0.
         24    2    5    5    0    0  0.16005654296E+02  0.72108237250E+02 -0.21818754248E+02  0.10948696208E+03  0.77817465772E+02 0.  0.
          5    1    5    5  501    0 -0.27632158683E+02 -0.30113228649E+02  0.57799450587E+02  0.70945114147E+02  0.47000000000E+01 0. -1.
        -11    1    6    6    0    0 -0.29399186413E+01  0.20485798031E+02  0.28316685447E+02  0.35073433212E+02  0.00000000000E+00 0.  1.
         12    1    6    6    0    0  0.18945572937E+02  0.51622439219E+02 -0.50135439695E+02  0.74413528865E+02  0.00000000000E+00 0. -1.
         -5    1    3    3    0  503  0.59102027507E+02  0.12088291480E+02 -0.80108104580E+01  0.61036378747E+02  0.47000000000E+01 0.  1.
         13    1    4    4    0    0 -0.20165238269E+02  0.10824458107E+01  0.11150384491E+02  0.23068151154E+02  0.00000000000E+00 0. -1.
        -14    1    4    4    0    0 -0.27310284851E+02 -0.55165745891E+02 -0.10172872728E+03  0.11890267084E+03  0.00000000000E+00 0.  1.
</event>
<event>
12    1  0.8417180E-002  0.1790591E+03  0.7818608E-02  0.1169475E+00
         21   -1    0    0  501  502  0.00000000000E+00  0.00000000000E+00  0.33406109465E+02  0.33406109465E+02  0.00000000000E+00 0.  1.
         21   -1    0    0  502  503 -0.00000000000E+00 -0.00000000000E+00 -0.10058763541E+04  0.10058763541E+04  0.00000000000E+00 0.  1.
         -6    2    1    2    0  503  0.20811846484E+02  0.34407406542E+02 -0.61977525540E+03  0.64512287343E+03  0.17448539206E+03 0.  0.
        -24    2    3    3    0    0 -0.13589571909E+02 -0.79765510633E+01 -0.55252236526E+03  0.55837669956E+03  0.79090281743E+02 0.  0.
          6    2    1    2  501    0 -0.20811846484E+02 -0.34407406542E+02 -0.35269498923E+03  0.39415959013E+03  0.17132140696E+03 0.  0.
         24    2    5    5    0    0  0.43543347091E+02 -0.42434331052E+02 -0.27903199419E+03  0.29590304177E+03  0.77479421907E+02 0.  0.
          5    1    5    5  501    0 -0.64355193574E+02  0.80269245105E+01 -0.73662995042E+02  0.98256548360E+02  0.47000000000E+01 0. -1.
        -11    1    6    6    0    0  0.88059441270E+01 -0.28867802289E+02 -0.24010806773E+03  0.24199747695E+03  0.00000000000E+00 0.  1.
         12    1    6    6    0    0  0.34737402964E+02 -0.13566528763E+02 -0.38923926455E+02  0.53905564815E+02  0.00000000000E+00 0. -1.
         -5    1    3    3    0  503  0.34401418392E+02  0.42383957605E+02 -0.67252890144E+02  0.86746173877E+02  0.47000000000E+01 0.  1.
         11    1    4    4    0    0 -0.44552239967E+00  0.33345717236E+02 -0.32909582474E+03  0.33078119235E+03  0.00000000000E+00 0. -1.
        -12    1    4    4    0    0 -0.13144049509E+02 -0.41322268300E+02 -0.22342654051E+03  0.22759550721E+03  0.00000000000E+00 0.  1.
</event>
<event>
12    1  0.8417180E-002  0.1762171E+03  0.7818608E-02  0.1171736E+00
         21   -1    0    0  503  502  0.00000000000E+00  0.00000000000E+00  0.11783683054E+03  0.11783683054E+03  0.00000000000E+00 0. -1.
         21   -1    0    0  501  503 -0.00000000000E+00 -0.00000000000E+00 -0.32899264169E+03  0.32899264169E+03  0.00000000000E+00 0. -1.
          6    2    1    2  501    0  0.16356327323E+01 -0.34154165139E+02 -0.20603162008E+03  0.27053783556E+03  0.17196659475E+03 0.  0.
         24    2    3    3    0    0  0.10792325054E+02 -0.82745591565E+02 -0.97263965152E+02  0.15096583008E+03  0.79794083316E+02 0.  0.
         -6    2    1    2    0  502 -0.16356327323E+01  0.34154165139E+02 -0.51241910739E+01  0.17629163666E+03  0.17286787305E+03 0.  0.
        -24    2    5    5    0    0  0.46914198919E+02  0.11140165882E+02  0.48735669641E+02  0.10007021637E+03  0.72896072271E+02 0.  0.
          5    1    3    3  501    0 -0.91566923215E+01  0.48591426426E+02 -0.10876765493E+03  0.11957200548E+03  0.47000000000E+01 0. -1.
        -13    1    4    4    0    0 -0.34299386544E+02 -0.44925039496E+02 -0.44793449152E+02  0.72119069447E+02  0.00000000000E+00 0.  1.
         14    1    4    4    0    0  0.45091711597E+02 -0.37820552069E+02 -0.52470516000E+02  0.78846760637E+02  0.00000000000E+00 0. -1.
         -5    1    5    5    0  502 -0.48549831651E+02  0.23013999257E+02 -0.53859860715E+02  0.76221420293E+02  0.47000000000E+01 0.  1.
         13    1    6    6    0    0  0.25392300040E+02 -0.25387292507E+02  0.44913117157E+02  0.57501927054E+02  0.00000000000E+00 0. -1.
        -14    1    6    6    0    0  0.21521898879E+02  0.36527458389E+02  0.38225524846E+01  0.42568289315E+02  0.00000000000E+00 0.  1.
</event>
<event>
12    1  0.8417180E-002  0.2562860E+03  0.7818608E-02  0.1109592E+00
         21   -1    0    0  501  502  0.00000000000E+00  0.00000000000E+00  0.54080755290E+02  0.54080755290E+02  0.00000000000E+00 0.  1.
         21   -1    0    0  502  503 -0.00000000000E+00 -0.00000000000E+00 -0.15638016469E+04  0.15638016469E+04  0.00000000000E+00 0.  1.
         -6    2    1    2    0  503  0.12055599865E+03 -0.14654909840E+03 -0.11390051323E+04  0.11672021548E+04  0.17034609399E+03 0.  0.
        -24    2    3    3    0    0  0.12058709156E+03 -0.43521312858E+02 -0.69164746401E+03  0.70810989945E+03  0.81289998753E+02 0.  0.
          6    2    1    2  501    0 -0.12055599865E+03  0.14654909840E+03 -0.37071575930E+03  0.45068024737E+03  0.17225598429E+03 0.  0.
         24    2    5    5    0    0 -0.55534228202E+02  0.10212450619E+03 -0.33596714851E+03  0.36447739953E+03  0.80351631105E+02 0.  0.
          5    1    5    5  501    0 -0.65021770448E+02  0.44424592203E+02 -0.34748610794E+02  0.86202847846E+02  0.47000000000E+01 0. -1.
        -11    1    6    6    0    0 -0.20136478695E+02  0.91109936440E+02 -0.16517709278E+03  0.18971022711E+03  0.00000000000E+00 0.  1.
         12    1    6    6    0    0 -0.35397749507E+02  0.11014569753E+02 -0.17079005574E+03  0.17476717242E+03  0.00000000000E+00 0. -1.
         -5    1    3    3    0  503 -0.31092905914E-01 -0.10302778554E+03 -0.44735766831E+03  0.45909225539E+03  0.47000000000E+01 0.  1.
         11    1    4    4    0    0  0.14085349314E+02 -0.16083325546E+01 -0.29340443883E+03  0.29374674215E+03  0.00000000000E+00 0. -1.
        -12    1    4    4    0    0  0.10650174224E+03 -0.41912980303E+02 -0.39824302518E+03  0.41436315730E+03  0.00000000000E+00 0.  1.
</event>
<event>
12    1  0.8417180E-002  0.1926198E+03  0.7818608E-02  0.1156282E+00
         21   -1    0    0  503  502  0.00000000000E+00  0.00000000000E+00  0.10387305817E+03  0.10387305817E+03  0.00000000000E+00 0. -1.
         21   -1    0    0  501  503 -0.00000000000E+00 -0.00000000000E+00 -0.38051182083E+03  0.38051182083E+03  0.00000000000E+00 0. -1.
          6    2    1    2  501    0  0.53644953675E+02  0.66314979396E+02 -0.76394356630E+02  0.20653560162E+03  0.17188775252E+03 0.  0.
         24    2    3    3    0    0  0.44501273116E+02  0.10753630523E+03 -0.82124365122E+02  0.16366687648E+03  0.80610265219E+02 0.  0.
         -6    2    1    2    0  502 -0.53644953675E+02 -0.66314979396E+02 -0.20024440603E+03  0.27784927737E+03  0.17270478061E+03 0.  0.
        -24    2    5    5    0    0 -0.25087306969E+02 -0.11019030767E+03 -0.16004736172E+03  0.21167922382E+03  0.80135253969E+02 0.  0.
          5    1    3    3  501    0  0.91436805586E+01 -0.41221325836E+02  0.57300084927E+01  0.42868725140E+02  0.47000000000E+01 0. -1.
        -11    1    4    4    0    0  0.73616324505E+01 -0.13272013010E+02 -0.83389626088E+01  0.17316993361E+02  0.00000000000E+00 0.  1.
         12    1    4    4    0    0  0.37139640666E+02  0.12080831824E+03 -0.73785402514E+02  0.14634988312E+03  0.00000000000E+00 0. -1.
         -5    1    5    5    0  502 -0.28557646706E+02  0.43875328271E+02 -0.40197044313E+02  0.66170053557E+02  0.47000000000E+01 0.  1.
         13    1    6    6    0    0 -0.49750862568E+02 -0.10014994435E+03 -0.13209809899E+03  0.17307532301E+03  0.00000000000E+00 0. -1.
        -14    1    6    6    0    0  0.24663555599E+02 -0.10040363320E+02 -0.27949262722E+02  0.38603900802E+02  0.00000000000E+00 0.  1.
</event>
<event>
12    1  0.8417180E-002  0.1781878E+03  0.7818608E-02  0.1169637E+00
         21   -1    0    0  503  502  0.00000000000E+00  0.00000000000E+00  0.79511909386E+03  0.79511909386E+03  0.00000000000E+00 0. -1.
         21   -1    0    0  501  503 -0.00000000000E+00 -0.00000000000E+00 -0.42100895737E+02  0.42100895737E+02  0.00000000000E+00 0. -1.
          6    2    1    2  501    0  0.26604930198E+02 -0.41033945687E+02  0.28041691101E+03  0.33224166901E+03  0.17134548620E+03 0.  0.
         24    2    3    3    0    0  0.81904785241E+02 -0.18456482127E+02  0.15419810262E+03  0.19252376243E+03  0.78989294662E+02 0.  0.
         -6    2    1    2    0  502 -0.26604930198E+02  0.41033945687E+02  0.47260128711E+03  0.50497832058E+03  0.17105414543E+03 0.  0.
        -24    2    5    5    0    0 -0.62981990877E+02 -0.24392855096E+02  0.25634578314E+03  0.27608426255E+03  0.77120794465E+02 0.  0.
          5    1    3    3  501    0 -0.55299855043E+02 -0.22577463560E+02  0.12621880839E+03  0.13971790658E+03  0.47000000000E+01 0. -1.
        -13    1    4    4    0    0  0.93232793214E+02 -0.30521521704E+02  0.12427909420E+03  0.15833259384E+03  0.00000000000E+00 0.  1.
         14    1    4    4    0    0 -0.11328007973E+02  0.12065039577E+02  0.29919008424E+02  0.34191168592E+02  0.00000000000E+00 0. -1.
         -5    1    5    5    0  502  0.36377060679E+02  0.65426800783E+02  0.21625550397E+03  0.22889405803E+03  0.47000000000E+01 0.  1.
         11    1    6    6    0    0  0.96859407692E+01  0.13839219203E+02  0.77059362261E+02  0.78889078768E+02  0.00000000000E+00 0. -1.
        -12    1    6    6    0    0 -0.72667931646E+02 -0.38232074299E+02  0.17928642088E+03  0.19719518378E+03  0.00000000000E+00 0.  1.
</event>
<event>
12    1  0.8417180E-002  0.1977511E+03  0.7818608E-02  0.1151950E+00
         21   -1    0    0  503  502  0.00000000000E+00  0.00000000000E+00  0.16697031901E+03  0.16697031901E+03  0.00000000000E+00 0. -1.
         21   -1    0    0  501  503 -0.00000000000E+00 -0.00000000000E+00 -0.23276057650E+03  0.23276057650E+03  0.00000000000E+00 0.  1.
          6    2    1    2  501    0  0.83842466141E+00 -0.95470023769E+02 -0.38908655503E+02  0.20154248604E+03  0.17317696675E+03 0.  0.
         24    2    3    3    0    0 -0.56048266976E+02 -0.73420642363E+02 -0.62729056230E+02  0.13587839847E+03  0.77433879656E+02 0.  0.
         -6    2    1    2    0  502 -0.83842466141E+00  0.95470023769E+02 -0.26881601992E+02  0.19818840947E+03  0.17158320643E+03 0.  0.
        -24    2    5    5    0    0  0.34333105222E+02  0.97547241684E+02 -0.65637487628E+02  0.14560076814E+03  0.78721518201E+02 0.  0.
          5    1    3    3  501    0  0.56886691638E+02 -0.22049381405E+02  0.23820400727E+02  0.65664087572E+02  0.47000000000E+01 0. -1.
        -13    1    4    4    0    0 -0.22717080952E+02 -0.82836043618E+02 -0.44338784507E+02  0.96663352419E+02  0.00000000000E+00 0.  1.
         14    1    4    4    0    0 -0.33331186024E+02  0.94154012550E+01 -0.18390271723E+02  0.39215046049E+02  0.00000000000E+00 0. -1.
         -5    1    5    5    0  502 -0.35171529883E+02 -0.20772179159E+01  0.38755885637E+02  0.52587641324E+02  0.47000000000E+01 0.  1.
         11    1    6    6    0    0  0.21139585445E+02 -0.76302796232E+01 -0.35464859782E+01  0.22752599911E+02  0.00000000000E+00 0. -1.
        -12    1    6    6    0    0  0.13193519777E+02  0.10517752131E+03 -0.62091001650E+02  0.12284816823E+03  0.00000000000E+00 0.  1.
</event>
<event>
12    1  0.8417180E-002  0.1796130E+03  0.7818608E-02  0.1168344E+00
         21   -1    0    0  503  502  0.00000000000E+00  0.00000000000E+00  0.97639397379E+02  0.97639397379E+02  0.00000000000E+00 0.  1.
         21   -1    0    0  501  503 -0.00000000000E+00 -0.00000000000E+00 -0.56140105564E+03  0.56140105564E+03  0.00000000000E+00 0.  1.
          6    2    1    2  501    0  0.61270475194E+01 -0.49677806280E+02 -0.44356526623E+03  0.47829549717E+03  0.17178769471E+03 0.  0.
         24    2    3    3    0    0 -0.20142288232E+02 -0.95653832041E+02 -0.34122793464E+03  0.36297467345E+03  0.75886381035E+02 0.  0.
         -6    2    1    2    0  502 -0.61270475194E+01  0.49677806280E+02 -0.20196392024E+02  0.18074495585E+03  0.17249759322E+03 0.  0.
        -24    2    5    5    0    0 -0.15423232743E+02  0.18733921075E+02  0.52515740000E+02  0.10103869992E+03  0.82837672747E+02 0.  0.
          5    1    3    3  501    0  0.26269335751E+02  0.45976025761E+02 -0.10233733160E+03  0.11532082372E+03  0.47000000000E+01 0. -1.
        -13    1    4    4    0    0  0.13447908524E+02 -0.46719807513E+02 -0.24604632272E+03  0.25080346804E+03  0.00000000000E+00 0.  1.
         14    1    4    4    0    0 -0.33590196755E+02 -0.48934024528E+02 -0.95181611919E+02  0.11217120540E+03  0.00000000000E+00 0. -1.
         -5    1    5    5    0  502  0.92961852233E+01  0.30943885205E+02 -0.72712132024E+02  0.79706255932E+02  0.47000000000E+01 0.  1.
         13    1    6    6    0    0 -0.13776504430E+02 -0.99343744892E+01 -0.18091820994E+02  0.24815274685E+02  0.00000000000E+00 0. -1.
        -14    1    6    6    0    0 -0.16467283130E+01  0.28668295564E+02  0.70607560994E+02  0.76223425233E+02  0.00000000000E+00 0.  1.
</event>
<event>
12    1  0.8417180E-002  0.2649763E+03  0.7818608E-02  0.1104279E+00
         21   -1    0    0  501  502  0.00000000000E+00  0.00000000000E+00  0.12752662213E+03  0.12752662213E+03  0.00000000000E+00 0. -1.
         21   -1    0    0  502  503 -0.00000000000E+00 -0.00000000000E+00 -0.84485777739E+03  0.84485777739E+03  0.00000000000E+00 0.  1.
         -6    2    1    2    0  503  0.19989671237E+03 -0.22763621404E+02 -0.64649135012E+03  0.69868699032E+03  0.17244003766E+03 0.  0.
        -24    2    3    3    0    0  0.38824993139E+02  0.10785527820E+02 -0.31818871086E+03  0.33143454704E+03  0.83552950588E+02 0.  0.
          6    2    1    2  501    0 -0.19989671237E+03  0.22763621404E+02 -0.70839805142E+02  0.27369740920E+03  0.17150835470E+03 0.  0.
         24    2    5    5    0    0 -0.19847171546E+03 -0.45603299686E+01 -0.98242940486E+02  0.23468906699E+03  0.77559424724E+02 0.  0.
          5    1    5    5  501    0 -0.14249969063E+01  0.27323951372E+02  0.27403135343E+02  0.39008342203E+02  0.47000000000E+01 0. -1.
        -13    1    6    6    0    0 -0.10815138851E+03  0.20419500992E+02 -0.87022072558E+02  0.14030865964E+03  0.00000000000E+00 0.  1.
         14    1    6    6    0    0 -0.90320326951E+02 -0.24979830961E+02 -0.11220867928E+02  0.94380407355E+02  0.00000000000E+00 0. -1.
         -5    1    3    3    0  503  0.16107171923E+03 -0.33549149224E+02 -0.32830263926E+03  0.36725244328E+03  0.47000000000E+01 0.  1.
         13    1    4    4    0    0  0.39356618971E+02 -0.29221649838E+02 -0.12760677525E+03  0.13669797865E+03  0.00000000000E+00 0. -1.
        -14    1    4    4    0    0 -0.53162583195E+00  0.40007177658E+02 -0.19058193561E+03  0.19473656839E+03  0.00000000000E+00 0.  1.
</event>
<event>
12    1  0.8417180E-002  0.1953731E+03  0.7818608E-02  0.1153802E+00
         21   -1    0    0  503  502  0.00000000000E+00  0.00000000000E+00  0.28164271221E+03  0.28164271221E+03  0.00000000000E+00 0. -1.
         21   -1    0    0  501  503 -0.00000000000E+00 -0.00000000000E+00 -0.13618754061E+03  0.13618754061E+03  0.00000000000E+00 0.  1.
          6    2    1    2  501    0 -0.90653873858E+02 -0.78079304700E+01  0.90334459976E+02  0.21483040282E+03  0.17237371811E+03 0.  0.
         24    2    3    3    0    0  0.15972507726E+02 -0.18509231728E+02  0.45149711564E+02  0.98436869551E+02  0.83985761713E+02 0.  0.
         -6    2    1    2    0  502  0.90653873858E+02  0.78079304700E+01  0.55120711626E+02  0.20299985000E+03  0.17289175118E+03 0.  0.
        -24    2    5    5    0    0  0.10499264580E+03 -0.46305015408E+02  0.48650853307E+02  0.14645110679E+03  0.76898706277E+02 0.  0.
          5    1    3    3  501    0 -0.10662638158E+03  0.10701301258E+02  0.45184748412E+02  0.11639353327E+03  0.47000000000E+01 0. -1.
        -11    1    4    4    0    0 -0.20891723107E+02  0.15578152762E+01 -0.14515886414E+02  0.25487287835E+02  0.00000000000E+00 0.  1.
         12    1    4    4    0    0  0.36864230834E+02 -0.20067047005E+02  0.59665597978E+02  0.72949581716E+02  0.00000000000E+00 0. -1.
         -5    1    5    5    0  502 -0.14338771945E+02  0.54112945878E+02  0.64698583192E+01  0.56548743215E+02  0.47000000000E+01 0.  1.
         13    1    6    6    0    0  0.22628431454E+02 -0.19121505466E+02  0.51784972976E+02  0.59660383065E+02  0.00000000000E+00 0. -1.
        -14    1    6    6    0    0  0.82364214350E+02 -0.27183509942E+02 -0.31341196691E+01  0.86790723723E+02  0.00000000000E+00 0.  1.
</event>
<event>
12    1  0.8417180E-002  0.1936306E+03  0.7818608E-02  0.1155309E+00
         21   -1    0    0  501  502  0.00000000000E+00  0.00000000000E+00  0.11384657828E+03  0.11384657828E+03  0.00000000000E+00 0. -1.
         21   -1    0    0  502  503 -0.00000000000E+00 -0.00000000000E+00 -0.80796389042E+03  0.80796389042E+03  0.00000000000E+00 0.  1.
         -6    2    1    2    0  503 -0.38331300547E+02 -0.79753729323E+02 -0.70190352825E+03  0.72802333738E+03  0.17181231286E+03 0.  0.
        -24    2    3    3    0    0 -0.53438274019E+01  0.16826901152E+02 -0.42417409989E+03  0.43209814929E+03  0.80457706323E+02 0.  0.
          6    2    1    2  501    0  0.38331300547E+02  0.79753729323E+02  0.77862161150E+01  0.19378713132E+03  0.17222915305E+03 0.  0.
         24    2    5    5    0    0  0.89613004670E+02  0.66702523704E+02 -0.13115874618E+02  0.13669830104E+03  0.77683216113E+02 0.  0.
          5    1    5    5  501    0 -0.51281704123E+02  0.13051205619E+02  0.20902090733E+02  0.57088830281E+02  0.47000000000E+01 0. -1.
        -13    1    6    6    0    0  0.78109964737E+02  0.22559616644E+02 -0.31938007760E+02  0.87350668194E+02  0.00000000000E+00 0.  1.
         14    1    6    6    0    0  0.11503039933E+02  0.44142907060E+02  0.18822133142E+02  0.49347632845E+02  0.00000000000E+00 0. -1.
         -5    1    3    3    0  503 -0.32987473145E+02 -0.96580630474E+02 -0.27772942836E+03  0.29592518809E+03  0.47000000000E+01 0.  1.
         13    1    4    4    0    0  0.38036181338E+01 -0.84783632357E+01 -0.25769236266E+01  0.96431680190E+01  0.00000000000E+00 0. -1.
        -14    1    4    4    0    0 -0.91474455358E+01  0.25305264387E+02 -0.42159717627E+03  0.42245498127E+03  0.00000000000E+00 0.  1.
</event>
<event>
12    1  0.8417180E-002  0.1932607E+03  0.7818608E-02  0.1155566E+00
         21   -1    0    0  503  502  0.00000000000E+00  0.00000000000E+00  0.27883672386E+03  0.27883672386E+03  0.00000000000E+00 0.  1.
         21   -1    0    0  501  503 -0.00000000000E+00 -0.00000000000E+00 -0.35835107726E+03  0.35835107726E+03  0.00000000000E+00 0.  1.
          6    2    1    2  501    0  0.18045706881E+02 -0.86825367903E+02 -0.29189262471E+03  0.35003935984E+03  0.17164485727E+03 0.  0.
         24    2    3    3    0    0 -0.29634757688E+02 -0.59303508873E+01 -0.73228763099E+02  0.11201960256E+03  0.79199442475E+02 0.  0.
         -6    2    1    2    0  502 -0.18045706881E+02  0.86825367903E+02  0.21237827131E+03  0.28714844129E+03  0.17171314790E+03 0.  0.
        -24    2    5    5    0    0  0.20551754744E+02  0.98648275428E+02  0.88043918229E+02  0.15634069480E+03  0.80850630457E+02 0.  0.
          5    1    3    3  501    0  0.47680464569E+02 -0.80895017016E+02 -0.21866386161E+03  0.23801975727E+03  0.47000000000E+01 0. -1.
        -13    1    4    4    0    0 -0.66820822479E+01  0.78532595709E+01 -0.82910664591E+02  0.83549399830E+02  0.00000000000E+00 0.  1.
         14    1    4    4    0    0 -0.22952675440E+02 -0.13783610458E+02  0.96819014922E+01  0.28470202733E+02  0.00000000000E+00 0. -1.
         -5    1    5    5    0  502 -0.38597461624E+02 -0.11822907524E+02  0.12433435308E+03  0.13080774649E+03  0.47000000000E+01 0.  1.
         13    1    6    6    0    0  0.61211968243E+01  0.13299633347E+02 -0.15540276304E+02  0.21350631966E+02  0.00000000000E+00 0. -1.
        -14    1    6    6    0    0  0.14430557919E+02  0.85348642080E+02  0.10358419453E+03  0.13499006283E+03  0.00000000000E+00 0.  1.
</event>
<event>
12    1  0.8417180E-002  0.2514436E+03  0.7818608E-02  0.1112411E+00
         21   -1    0    0  503  502  0.00000000000E+00  0.00000000000E+00  0.30109303046E+03  0.30109303046E+03  0.00000000000E+00 0.  1.
         21   -1    0    0  501  503 -0.00000000000E+00 -0.00000000000E+00 -0.29667013391E+03  0.29667013391E+03  0.00000000000E+00 0.  1.
          6    2    1    2  501    0 -0.88155031838E+02  0.16005197796E+03  0.16384862508E+03  0.30003773864E+03  0.17259295287E+03 0.  0.
         24    2    3    3    0    0  0.21971547664E+02  0.60907736857E+02  0.63799405915E+02  0.12118198583E+03  0.80138680917E+02 0.  0.
         -6    2    1    2    0  502  0.88155031838E+02 -0.16005197796E+03 -0.15942572854E+03  0.29772542573E+03  0.17273077583E+03 0.  0.
        -24    2    5    5    0    0 -0.42471784786E+01 -0.90306276842E+02 -0.12973635529E+03  0.17811698046E+03  0.81980940979E+02 0.  0.
          5    1    3    3  501    0 -0.11012657950E+03  0.99144241101E+02  0.10004921917E+03  0.17885575281E+03  0.47000000000E+01 0. -1.
        -11    1    4    4    0    0  0.27127773994E+02  0.79357909642E+02  0.51515837423E+02  0.98424973711E+02  0.00000000000E+00 0.  1.
         12    1    4    4    0    0 -0.51562263302E+01 -0.18450172785E+02  0.12283568492E+02  0.22757012121E+02  0.00000000000E+00 0. -1.
         -5    1    5    5    0  502  0.92402210317E+02 -0.69745701116E+02 -0.29689373252E+02  0.11960844527E+03  0.47000000000E+01 0.  1.
         13    1    6    6    0    0  0.12662836392E+01 -0.25355993262E+02  0.72586256966E+01  0.26404876739E+02  0.00000000000E+00 0. -1.
        -14    1    6    6    0    0 -0.55134621178E+01 -0.64950283580E+02 -0.13699498098E+03  0.15171210372E+03  0.00000000000E+00 0.  1.
</event>
<event>
12    1  0.8417180E-002  0.2717989E+03  0.7818608E-02  0.1100341E+00
         21   -1    0    0  503  502  0.00000000000E+00  0.00000000000E+00  0.11759123259E+04  0.11759123259E+04  0.00000000000E+00 0.  1.
         21   -1    0    0  501  503 -0.00000000000E+00 -0.00000000000E+00 -0.64184490451E+02  0.64184490451E+02  0.00000000000E+00 0. -1.
          6    2    1    2  501    0  0.11199169492E+03  0.17702014129E+03  0.46038783510E+03  0.53432175362E+03  0.17223387450E+03 0.  0.
         24    2    3    3    0    0  0.12388416453E+03  0.16926182648E+03  0.30951380521E+03  0.38270814876E+03  0.81669329522E+02 0.  0.
         -6    2    1    2    0  502 -0.11199169492E+03 -0.17702014129E+03  0.65134000032E+03  0.70577506270E+03  0.17319461010E+03 0.  0.
        -24    2    5    5    0    0 -0.68986860847E+01 -0.88904246497E+02  0.19302629363E+03  0.22735840836E+03  0.80505520945E+02 0.  0.
          5    1    3    3  501    0 -0.11892469613E+02  0.77583148121E+01  0.15087402990E+03  0.15161360486E+03  0.47000000000E+01 0. -1.
        -11    1    4    4    0    0  0.32064019214E+02  0.80195035780E+01  0.86477661113E+02  0.92578613283E+02  0.00000000000E+00 0.  1.
         12    1    4    4    0    0  0.91820145320E+02  0.16124232290E+03  0.22303614409E+03  0.29012953547E+03  0.00000000000E+00 0. -1.
         -5    1    5    5    0  502 -0.10509300883E+03 -0.88115894793E+02  0.45831370668E+03  0.47841665434E+03  0.47000000000E+01 0.  1.
         11    1    6    6    0    0 -0.29526371779E+01 -0.67764333337E+02  0.54055658631E+02  0.86733714143E+02  0.00000000000E+00 0. -1.
        -12    1    6    6    0    0 -0.39460489068E+01 -0.21139913160E+02  0.13897063500E+03  0.14062469422E+03  0.00000000000E+00 0.  1.
</event>
<event>
12    1  0.8417180E-002  0.2068659E+03  0.7818608E-02  0.1144353E+00
         21   -1    0    0  501  502  0.00000000000E+00  0.00000000000E+00  0.13896569017E+04  0.13896569017E+04  0.00000000000E+00 0.  1.
         21   -1    0    0  502  503 -0.00000000000E+00 -0.00000000000E+00 -0.38703097536E+02  0.38703097536E+02  0.00000000000E+00 0. -1.
         -6    2    1    2    0  503 -0.11434739574E+03  0.56527236744E+01  0.35024930620E+03  0.40677765336E+03  0.17229684439E+03 0.  0.
        -24    2    3    3    0    0 -0.77446809660E+02  0.78517374758E+02  0.20449381773E+03  0.23963201911E+03  0.58675349415E+02 0.  0.
          6    2    1    2  501    0  0.11434739574E+03 -0.56527236744E+01  0.10007044980E+04  0.10215823459E+04  0.17062742147E+03 0.  0.
         24    2    5    5    0    0  0.51198339776E+02 -0.22988654604E+02  0.24962992386E+03  0.26764372527E+03  0.78538630963E+02 0.  0.
          5    1    5    5  501    0  0.63149055960E+02  0.17335930930E+02  0.75107457415E+03  0.75393862065E+03  0.47000000000E+01 0. -1.
        -11    1    6    6    0    0 -0.70362231132E+01 -0.10604627394E+02  0.15709950652E+03  0.15761415389E+03  0.00000000000E+00 0.  1.
         12    1    6    6    0    0  0.58234562889E+02 -0.12384027209E+02  0.92530417343E+02  0.11002957138E+03  0.00000000000E+00 0. -1.
         -5    1    3    3    0  503 -0.36900586076E+02 -0.72864651084E+02  0.14575548847E+03  0.16714563425E+03  0.47000000000E+01 0.  1.
         11    1    4    4    0    0  0.78821104747E+01  0.16278575602E+02  0.19383620462E+02  0.26511213314E+02  0.00000000000E+00 0. -1.
        -12    1    4    4    0    0 -0.85328920135E+02  0.62238799156E+02  0.18511019727E+03  0.21312080580E+03  0.00000000000E+00 0.  1.
</event>
<event>
12    1  0.8417180E-002  0.1917652E+03  0.7818608E-02  0.1156986E+00
         21   -1    0    0  501  502  0.00000000000E+00  0.00000000000E+00  0.13143695534E+03  0.13143695534E+03  0.00000000000E+00 0. -1.
         21   -1    0    0  502  503 -0.00000000000E+00 -0.00000000000E+00 -0.52127621508E+03  0.52127621508E+03  0.00000000000E+00 0.  1.
         -6    2    1    2    0  503 -0.77490714317E+02  0.31825177255E+02 -0.41724292026E+03  0.45899983383E+03  0.17196377594E+03 0.  0.
        -24    2    3    3    0    0 -0.14188829580E+02  0.75943764121E+02 -0.20455366144E+03  0.23269828913E+03  0.79608511849E+02 0.  0.
          6    2    1    2  501    0  0.77490714317E+02 -0.31825177255E+02  0.27403660511E+02  0.19371333660E+03  0.17249998102E+03 0.  0.
         24    2    5    5    0    0  0.23083066555E+02 -0.79626188197E+02  0.37374224330E+02  0.12045604396E+03  0.78991569632E+02 0.  0.
          5    1    5    5  501    0  0.54407647762E+02  0.47801010942E+02 -0.99705638191E+01  0.73257292640E+02  0.47000000000E+01 0. -1.
        -13    1    6    6    0    0  0.42459612175E+01  0.12988975005E+02 -0.77661740536E+01  0.15717987078E+02  0.00000000000E+00 0.  1.
         14    1    6    6    0    0  0.18837105337E+02 -0.92615163202E+02  0.45140398384E+02  0.10473805688E+03  0.00000000000E+00 0. -1.
         -5    1    3    3    0  503 -0.63301884737E+02 -0.44118586867E+02 -0.21268925881E+03  0.22630154470E+03  0.47000000000E+01 0.  1.
         11    1    4    4    0    0  0.10738096558E+02  0.35262335404E+02 -0.19716726659E+02  0.41802970301E+02  0.00000000000E+00 0. -1.
        -12    1    4    4    0    0 -0.24926926138E+02  0.40681428717E+02 -0.18483693478E+03  0.19089531883E+03  0.00000000000E+00 0.  1.
</event>
<event>
12    1  0.8417180E-002  0.1959888E+03  0.7818608E-02  0.1153271E+00
         21   -1    0    0  501  502  0.00000000000E+00  0.00000000000E+00  0.94137111384E+02  0.94137111384E+02  0.00000000000E+00 0.  1.
         21   -1    0    0  502  503 -0.00000000000E+00 -0.00000000000E+00 -0.43261917265E+03  0.43261917265E+03  0.00000000000E+00 0.  1.
         -6    2    1    2    0  503  0.86369692364E+02 -0.35910274697E+02 -0.23346881128E+03  0.30482663625E+03  0.17222752608E+03 0.  0.
        -24    2    3    3    0    0  0.14558948798E+02 -0.43021873799E+02 -0.21114827427E+03  0.22914536970E+03  0.76558226962E+02 0.  0.
          6    2    1    2  501    0 -0.86369692364E+02  0.35910274697E+02 -0.10501324999E+03  0.22192964779E+03  0.17168492743E+03 0.  0.
         24    2    5    5    0    0  0.11534181544E+02 -0.10773107055E+02 -0.69881584288E+02  0.10782079365E+03  0.80577853913E+02 0.  0.
          5    1    5    5  501    0 -0.97903873908E+02  0.46683381752E+02 -0.35131665703E+02  0.11410885414E+03  0.47000000000E+01 0. -1.
        -11    1    6    6    0    0  0.24817062414E+01  0.30160572514E+02 -0.51471191855E+01  0.30697098172E+02  0.00000000000E+00 0.  1.
         12    1    6    6    0    0  0.90524753022E+01 -0.40933679569E+02 -0.64734465102E+02  0.77123695479E+02  0.00000000000E+00 0. -1.
         -5    1    3    3    0  503  0.71810743566E+02  0.71115991022E+01 -0.22320537012E+02  0.75681266544E+02  0.47000000000E+01 0.  1.
         11    1    4    4    0    0 -0.80366349648E+01 -0.87002431759E+01  0.20526334366E+01  0.12020608841E+02  0.00000000000E+00 0. -1.
        -12    1    4    4    0    0  0.22595583763E+02 -0.34321630623E+02 -0.21320090770E+03  0.21712476086E+03  0.00000000000E+00 0.  1.
</event>
<event>
12    1  0.8417180E-002  0.2581842E+03  0.7818608E-02  0.1108520E+00
         21   -1    0    0  501  502  0.00000000000E+00  0.00000000000E+00  0.14586055083E+03  0.14586055083E+03  0.00000000000E+00 0. -1.
         21   -1    0    0  502  503 -0.00000000000E+00 -0.00000000000E+00 -0.73638601246E+03  0.73638601246E+03  0.00000000000E+00 0.  1.
         -6    2    1    2    0  503  0.18750288096E+03 -0.40328557319E+02 -0.56789915493E+03  0.62307286448E+03  0.17007828016E+03 0.  0.
        -24    2    3    3    0    0  0.20908476160E+03 -0.34233094027E+02 -0.45907425039E+03  0.51186188439E+03  0.79781445599E+02 0.  0.
          6    2    1    2  501    0 -0.18750288096E+03  0.40328557319E+02 -0.22626306708E+02  0.25917369880E+03  0.17284482490E+03 0.  0.
         24    2    5    5    0    0 -0.25026019000E+02  0.40647718297E+02 -0.97580729551E+01  0.96119983802E+02  0.82857061670E+02 0.  0.
          5    1    5    5  501    0 -0.16247686196E+03 -0.31916097837E+00 -0.12868233753E+02  0.16305371500E+03  0.47000000000E+01 0. -1.
        -11    1    6    6    0    0 -0.33485178211E+02  0.56877100406E+02 -0.26683396754E+02  0.71191750735E+02  0.00000000000E+00 0.  1.
         12    1    6    6    0    0  0.84591592108E+01 -0.16229382109E+02  0.16925323799E+02  0.24928233068E+02  0.00000000000E+00 0. -1.
         -5    1    3    3    0  503 -0.21581880642E+02 -0.60954632918E+01 -0.10882490454E+03  0.11121098009E+03  0.47000000000E+01 0.  1.
         13    1    4    4    0    0  0.85070853417E+02  0.24646610200E+02 -0.19753853754E+03  0.21648551755E+03  0.00000000000E+00 0. -1.
        -14    1    4    4    0    0  0.12401390819E+03 -0.58879704226E+02 -0.26153571285E+03  0.29537636684E+03  0.00000000000E+00 0.  1.
</event>
<event>
12    1  0.8417180E-002  0.2697688E+03  0.7818608E-02  0.1101978E+00
         21   -1    0    0  501  502  0.00000000000E+00  0.00000000000E+00  0.10006940427E+04  0.10006940427E+04  0.00000000000E+00 0. -1.
         21   -1    0    0  502  503 -0.00000000000E+00 -0.00000000000E+00 -0.74947678578E+02  0.74947678578E+02  0.00000000000E+00 0.  1.
         -6    2    1    2    0  503 -0.18376419125E+03  0.96427382147E+02  0.57856535372E+03  0.63836750715E+03  0.17235918205E+03 0.  0.
        -24    2    3    3    0    0 -0.80991705584E+02 -0.19087094930E+02  0.25134370984E+03  0.27642569905E+03  0.79457743804E+02 0.  0.
          6    2    1    2  501    0  0.18376419125E+03 -0.96427382147E+02  0.34718101038E+03  0.43727421411E+03  0.16615223846E+03 0.  0.
         24    2    5    5    0    0  0.17869989718E+03 -0.12269035443E+03  0.26771058568E+03  0.35329189937E+03  0.78483324047E+02 0.  0.
          5    1    5    5  501    0  0.50642940718E+01  0.26262972283E+02  0.79470424697E+02  0.83982314740E+02  0.47000000000E+01 0. -1.
        -13    1    6    6    0    0  0.92665907829E+02 -0.25250823627E+02  0.80164060132E+02  0.12510336168E+03  0.00000000000E+00 0.  1.
         14    1    6    6    0    0  0.86033989352E+02 -0.97439530804E+02  0.18754652555E+03  0.22818853769E+03  0.00000000000E+00 0. -1.
         -5    1    3    3    0  503 -0.10277248567E+03  0.11551447708E+03  0.32722164388E+03  0.36194180810E+03  0.47000000000E+01 0.  1.
         11    1    4    4    0    0 -0.93488591483E+02 -0.16683329917E+02  0.17572988586E+03  0.19974844935E+03  0.00000000000E+00 0. -1.
        -12    1    4    4    0    0  0.12496885899E+02 -0.24037650125E+01  0.75613823987E+02  0.76677249698E+02  0.00000000000E+00 0.  1.
</event>
<event>
12    1  0.8417180E-002  0.2060299E+03  0.7818608E-02  0.1145064E+00
         21   -1    0    0  501  502  0.00000000000E+00  0.00000000000E+00  0.36946949331E+03  0.36946949331E+03  0.00000000000E+00 0. -1.
         21   -1    0    0  502  503 -0.00000000000E+00 -0.00000000000E+00 -0.11728593366E+03  0.11728593366E+03  0.00000000000E+00 0.  1.
         -6    2    1    2    0  503 -0.10545075094E+03 -0.42539390013E+02  0.16618006742E+03  0.26349564287E+03  0.16995493057E+03 0.  0.
        -24    2    3    3    0    0 -0.10179568826E+03 -0.34704847793E+02  0.44327822848E+02  0.14124672041E+03  0.80117985123E+02 0.  0.
          6    2    1    2  501    0  0.10545075094E+03  0.42539390013E+02  0.86003492232E+02  0.22325978411E+03  0.17181056413E+03 0.  0.
         24    2    5    5    0    0  0.64518857160E+02  0.55980848574E+02 -0.10063259157E+02  0.11787001487E+03  0.80594868851E+02 0.  0.
          5    1    5    5  501    0  0.40931893783E+02 -0.13441458560E+02  0.96066751390E+02  0.10538976924E+03  0.47000000000E+01 0. -1.
        -13    1    6    6    0    0  0.56801776184E+01  0.53918514486E+02 -0.20714832233E+02  0.58039425364E+02  0.00000000000E+00 0.  1.
         14    1    6    6    0    0  0.58838679541E+02  0.20623340875E+01  0.10651573075E+02  0.59830589509E+02  0.00000000000E+00 0. -1.
         -5    1    3    3    0  503 -0.36550626872E+01 -0.78345422200E+01  0.12185224457E+03  0.12224892246E+03  0.47000000000E+01 0.  1.
         11    1    4    4    0    0 -0.37065444874E+02  0.23638824101E+02  0.29263027004E+02  0.52810661405E+02  0.00000000000E+00 0. -1.
        -12    1    4    4    0    0 -0.64730243382E+02 -0.58343671894E+02  0.15064795844E+02  0.88436059004E+02  0.00000000000E+00 0.  1.
</event>
<event>
12    1  0.8417180E-002  0.2193783E+03  0.7818608E-02  0.1134525E+00
         21   -1    0    0  501  502  0.00000000000E+00  0.00000000000E+00  0.39992910420E+03  0.39992910420E+03  0.00000000000E+00 0. -1.
         21   -1    0    0  502  503 -0.00000000000E+00 -0.00000000000E+00 -0.12107425104E+03  0.12107425104E+03  0.00000000000E+00 0.  1.
         -6    2    1    2    0  503 -0.89249590260E+02  0.10161882129E+03  0.11320578622E+03  0.24686508887E+03  0.17272795913E+03 0.  0.
        -24    2    3    3    0    0 -0.30297408728E+02  0.17672299730E+02  0.11463069602E+03  0.14416894211E+03  0.80088977059E+02 0.  0.
          6    2    1    2  501    0  0.89249590260E+02 -0.10161882129E+03  0.16564906695E+03  0.27413826637E+03  0.17152347217E+03 0.  0.
         24    2    5    5    0    0  0.60316693320E+02 -0.12423003331E+03  0.75196715617E+02  0.17640343484E+03  0.79952617935E+02 0.  0.
          5    1    5    5  501    0  0.28932896940E+02  0.22611212013E+02  0.90452351331E+02  0.97734831536E+02  0.47000000000E+01 0. -1.
        -11    1    6    6    0    0  0.77521711142E+02 -0.95270961161E+02  0.43933549052E+02  0.13044664990E+03  0.00000000000E+00 0.  1.
         12    1    6    6    0    0 -0.17205017822E+02 -0.28959072145E+02  0.31263166566E+02  0.45956784934E+02  0.00000000000E+00 0. -1.
         -5    1    3    3    0  503 -0.58952181533E+02  0.83946521562E+02 -0.14249098064E+01  0.10269614675E+03  0.47000000000E+01 0.  1.
         11    1    4    4    0    0 -0.13221005516E+02  0.37789426957E+02  0.11041193038E+03  0.11744628622E+03  0.00000000000E+00 0. -1.
        -12    1    4    4    0    0 -0.17076403212E+02 -0.20117127227E+02  0.42187656427E+01  0.26722655895E+02  0.00000000000E+00 0.  1.
</event>
<event>
12    1  0.8417180E-002  0.1875109E+03  0.7818608E-02  0.1162213E+00
         21   -1    0    0  501  502  0.00000000000E+00  0.00000000000E+00  0.75139151837E+02  0.75139151837E+02  0.00000000000E+00 0.  1.
         21   -1    0    0  502  503 -0.00000000000E+00 -0.00000000000E+00 -0.51448338899E+03  0.51448338899E+03  0.00000000000E+00 0.  1.
         -6    2    1    2    0  503 -0.18920560882E+02 -0.72134331232E+02 -0.31891303290E+03  0.36676827217E+03  0.16508208126E+03 0.  0.
        -24    2    3    3    0    0 -0.15729909753E+01  0.11321877291E+02 -0.82917656610E+02  0.11580655287E+03  0.80032247906E+02 0.  0.
          6    2    1    2  501    0  0.18920560882E+02  0.72134331232E+02 -0.12043120426E+03  0.22285426866E+03  0.17204360126E+03 0.  0.
         24    2    5    5    0    0 -0.10380463174E+02  0.62389379181E+02 -0.34265583174E+01  0.10175228159E+03  0.79634143782E+02 0.  0.
          5    1    5    5  501    0  0.29301024056E+02  0.97449520512E+01 -0.11700464594E+03  0.12110198707E+03  0.47000000000E+01 0. -1.
        -13    1    6    6    0    0  0.30167833123E+02  0.13972123275E+02  0.14249734589E+02  0.36171443433E+02  0.00000000000E+00 0.  1.
         14    1    6    6    0    0 -0.40548296297E+02  0.48417255906E+02 -0.17676292906E+02  0.65580838154E+02  0.00000000000E+00 0. -1.
         -5    1    3    3    0  503 -0.17347569907E+02 -0.83456208523E+02 -0.23599537629E+03  0.25096171930E+03  0.47000000000E+01 0.  1.
         11    1    4    4    0    0  0.13094291962E+02 -0.18433923447E+02  0.38287164724E+01  0.22933143820E+02  0.00000000000E+00 0. -1.
        -12    1    4    4    0    0 -0.14667282937E+02  0.29755800739E+02 -0.86746373082E+02  0.92873409054E+02  0.00000000000E+00 0.  1.
</event>
<event>
12    1  0.8417180E-002  0.1806815E+03  0.7818608E-02  0.1167579E+00
         21   -1    0    0  501  502  0.00000000000E+00  0.00000000000E+00  0.70902299566E+02  0.70902299566E+02  0.00000000000E+00 0. -1.
         21   -1    0    0  502  503 -0.00000000000E+00 -0.00000000000E+00 -0.61038392812E+03  0.61038392812E+03  0.00000000000E+00 0. -1.
         -6    2    1    2    0  503  0.25930054376E+02 -0.41744406918E+02 -0.44012113601E+03  0.47508654283E+03  0.17200478362E+03 0.  0.
        -24    2    3    3    0    0  0.18287536079E+02  0.40103892449E+01 -0.41422665310E+03  0.42175246645E+03  0.77077270484E+02 0.  0.
          6    2    1    2  501    0 -0.25930054376E+02  0.41744406918E+02 -0.99360492542E+02  0.20619968485E+03  0.17387017952E+03 0.  0.
         24    2    5    5    0    0 -0.29011742229E+02  0.93576748561E+02 -0.82415756587E+02  0.15137904534E+03  0.80777282542E+02 0.  0.
          5    1    5    5  501    0  0.30816878532E+01 -0.51832341643E+02 -0.16944735956E+02  0.54820639515E+02  0.47000000000E+01 0. -1.
        -13    1    6    6    0    0  0.22729564412E+02  0.12208660289E+02 -0.21006482592E+01  0.25886235870E+02  0.00000000000E+00 0.  1.
         14    1    6    6    0    0 -0.51741306642E+02  0.81368088273E+02 -0.80315108327E+02  0.12549280947E+03  0.00000000000E+00 0. -1.
         -5    1    3    3    0  503  0.76425182972E+01 -0.45754796163E+02 -0.25894482911E+02  0.53334076378E+02  0.47000000000E+01 0.  1.
         13    1    4    4    0    0  0.13875261506E+01 -0.34932812414E+02 -0.23376648129E+03  0.23636622937E+03  0.00000000000E+00 0. -1.
        -14    1    4    4    0    0  0.16900009928E+02  0.38943201659E+02 -0.18046017181E+03  0.18538623709E+03  0.00000000000E+00 0.  1.
</event>
<event>
12    1  0.8417180E-002  0.2051662E+03  0.7818608E-02  0.1145608E+00
         21   -1    0    0  501  502  0.00000000000E+00  0.00000000000E+00  0.45926101600E+03  0.45926101600E+03  0.00000000000E+00 0. -1.
         21   -1    0    0  502  503 -0.00000000000E+00 -0.00000000000E+00 -0.13025731947E+03  0.13025731947E+03  0.00000000000E+00 0. -1.
         -6    2    1    2    0  503 -0.72978823491E+02 -0.84734209239E+02  0.31171390378E+01  0.20442717073E+03  0.17109925974E+03 0.  0.
        -24    2    3    3    0    0  0.71850053710E+01 -0.48691794593E+02 -0.41081988835E+02  0.10593378001E+03  0.84331019066E+02 0.  0.
          6    2    1    2  501    0  0.72978823491E+02  0.84734209239E+02  0.32588655750E+03  0.38509116474E+03  0.17200977272E+03 0.  0.
         24    2    5    5    0    0 -0.23710848135E+02  0.52781504671E+02  0.20189843306E+03  0.22457632764E+03  0.79520174225E+02 0.  0.
          5    1    5    5  501    0  0.96689671626E+02  0.31952704568E+02  0.12398812444E+03  0.16051483710E+03  0.47000000000E+01 0. -1.
        -11    1    6    6    0    0 -0.23786649525E+02  0.14454348137E+02  0.11098822331E+02  0.29965258764E+02  0.00000000000E+00 0.  1.
         12    1    6    6    0    0  0.75801389230E-01  0.38327156534E+02  0.19079961073E+03  0.19461106887E+03  0.00000000000E+00 0. -1.
         -5    1    3    3    0  503 -0.80163828862E+02 -0.36042414646E+02  0.44199127873E+02  0.98493390723E+02  0.47000000000E+01 0.  1.
         11    1    4    4    0    0 -0.27784708016E+02 -0.48233166990E+02 -0.53256546215E+01  0.55917716286E+02  0.00000000000E+00 0. -1.
        -12    1    4    4    0    0  0.34969713387E+02 -0.45862760277E+00 -0.35756334214E+02  0.50016063720E+02  0.00000000000E+00 0.  1.
</event>
<event>
12    1  0.8417180E-002  0.1982918E+03  0.7818608E-02  0.1151332E+00
         21   -1    0    0  501  502  0.00000000000E+00  0.00000000000E+00  0.29901420645E+03  0.29901420645E+03  0.00000000000E+00 0. -1.
         21   -1    0    0  502  503 -0.00000000000E+00 -0.00000000000E+00 -0.17391681182E+03  0.17391681182E+03  0.00000000000E+00 0.  1.
         -6    2    1    2    0  503  0.87988994960E+02 -0.40281352569E+02  0.18002174281E+03  0.26781982215E+03  0.17307506653E+03 0.  0.
        -24    2    3    3    0    0  0.13970253816E+02  0.18650067281E+02  0.14128977126E+03  0.16547754396E+03  0.82927830614E+02 0.  0.
          6    2    1    2  501    0 -0.87988994960E+02  0.40281352569E+02 -0.54924348173E+02  0.20511119612E+03  0.17230574033E+03 0.  0.
         24    2    5    5    0    0 -0.10019810003E+03 -0.13774638886E+01 -0.82352566945E+02  0.15354651421E+03  0.82176822072E+02 0.  0.
          5    1    5    5  501    0  0.12209105073E+02  0.41658816457E+02  0.27428218772E+02  0.51564681908E+02  0.47000000000E+01 0. -1.
        -11    1    6    6    0    0 -0.34333009475E+02 -0.36499426847E+02 -0.54081978230E+02  0.73728041267E+02  0.00000000000E+00 0.  1.
         12    1    6    6    0    0 -0.65865090559E+02  0.35121962959E+02 -0.28270588716E+02  0.79818472942E+02  0.00000000000E+00 0. -1.
         -5    1    3    3    0  503  0.74018741144E+02 -0.58931419850E+02  0.38731971548E+02  0.10234227819E+03  0.47000000000E+01 0.  1.
         11    1    4    4    0    0  0.56493994772E+01  0.21784835828E+02  0.15079297137E+03  0.15246315949E+03  0.00000000000E+00 0. -1.
        -12    1    4    4    0    0  0.83208543390E+01 -0.31347685467E+01 -0.95032001106E+01  0.13014384469E+02  0.00000000000E+00 0.  1.
</event>
<event>
12    1  0.8417180E-002  0.1849725E+03  0.7818608E-02  0.1163448E+00
         21   -1    0    0  503  502  0.00000000000E+00  0.00000000000E+00  0.84549769740E+03  0.84549769740E+03  0.00000000000E+00 0. -1.
         21   -1    0    0  501  503 -0.00000000000E+00 -0.00000000000E+00 -0.87614351086E+02  0.87614351086E+02  0.00000000000E+00 0. -1.
          6    2    1    2  501    0  0.11341015629E+02 -0.67624051702E+02  0.34690318636E+02  0.18663835772E+03  0.17008476522E+03 0.  0.
         24    2    3    3    0    0 -0.53672387594E+01  0.98399553175E+01  0.57306930743E+02  0.10409479775E+03  0.86174303800E+02 0.  0.
         -6    2    1    2    0  502 -0.11341015629E+02  0.67624051702E+02  0.72319302768E+03  0.74647369077E+03  0.17179401831E+03 0.  0.
        -24    2    5    5    0    0 -0.66180991926E+02  0.45957651881E+02  0.33056998892E+03  0.34941979462E+03  0.79533928872E+02 0.  0.
          5    1    3    3  501    0  0.16708254388E+02 -0.77464007020E+02 -0.22616612107E+02  0.82543559963E+02  0.47000000000E+01 0. -1.
        -11    1    4    4    0    0  0.10079339259E+02  0.45866635518E+02  0.37945043645E+02  0.60375223981E+02  0.00000000000E+00 0.  1.
         12    1    4    4    0    0 -0.15446578018E+02 -0.36026680200E+02  0.19361887098E+02  0.43719573771E+02  0.00000000000E+00 0. -1.
         -5    1    5    5    0  502  0.54839976297E+02  0.21666399821E+02  0.39262303876E+03  0.39705389615E+03  0.47000000000E+01 0.  1.
         13    1    6    6    0    0 -0.25440580743E+02  0.46643955197E+02  0.83206436210E+02  0.98722807556E+02  0.00000000000E+00 0. -1.
        -14    1    6    6    0    0 -0.40740411183E+02 -0.68630331678E+00  0.24736355271E+03  0.25069698707E+03  0.00000000000E+00 0.  1.
</event>
<event>
12    1  0.8417180E-002  0.2045910E+03  0.7818608E-02  0.1146099E+00
         21   -1    0    0  503  502  0.00000000000E+00  0.00000000000E+00  0.89229766846E+02  0.89229766846E+02  0.00000000000E+00 0.  1.
         21   -1    0    0  501  503 -0.00000000000E+00 -0.00000000000E+00 -0.49203620449E+03  0.49203620449E+03  0.00000000000E+00 0. -1.
          6    2    1    2  501    0 -0.10906387224E+03  0.16764709583E+02 -0.26639198504E+03  0.33536681518E+03  0.17126069984E+03 0.  0.
         24    2    3    3    0    0 -0.66985879992E+02  0.30595513352E+02 -0.26304737991E+03  0.29069999362E+03  0.99445304833E+02 0.  0.
         -6    2    1    2    0  502  0.10906387224E+03 -0.16764709583E+02 -0.13641445261E+03  0.24589915616E+03  0.17228322149E+03 0.  0.
        -24    2    5    5    0    0  0.13431155275E+03 -0.42539313036E+02 -0.87022588371E+02  0.18455242189E+03  0.81470725925E+02 0.  0.
          5    1    3    3  501    0 -0.42077992252E+02 -0.13830803769E+02 -0.33446051299E+01  0.44666821561E+02  0.47000000000E+01 0. -1.
        -11    1    4    4    0    0 -0.49055494341E+02  0.17011308322E+02 -0.37533814764E+02  0.64067256744E+02  0.00000000000E+00 0.  1.
         12    1    4    4    0    0 -0.17930385651E+02  0.13584205030E+02 -0.22551356515E+03  0.22663273687E+03  0.00000000000E+00 0. -1.
         -5    1    5    5    0  502 -0.25247680503E+02  0.25774603452E+02 -0.49391864234E+02  0.61346734277E+02  0.47000000000E+01 0.  1.
         13    1    6    6    0    0  0.14282363123E+03 -0.34233334852E+02 -0.67374846799E+02  0.16158552174E+03  0.00000000000E+00 0. -1.
        -14    1    6    6    0    0 -0.85120784841E+01 -0.83059781837E+01 -0.19647741572E+02  0.22966900152E+02  0.00000000000E+00 0.  1.
</event>
<event>
12    1  0.8417180E-002  0.1827468E+03  0.7818608E-02  0.1165568E+00
         21   -1    0    0  503  502  0.00000000000E+00  0.00000000000E+00  0.52220238987E+02  0.52220238987E+02  0.00000000000E+00 0. -1.
         21   -1    0    0  501  503 -0.00000000000E+00 -0.00000000000E+00 -0.72120181298E+03  0.72120181298E+03  0.00000000000E+00 0. -1.
          6    2    1    2  501    0  0.43858887616E+02 -0.40546468420E+02 -0.46783666874E+03  0.50165807846E+03  0.17094461367E+03 0.  0.
         24    2    3    3    0    0  0.47233578585E+02 -0.86591812610E+02 -0.34125604502E+03  0.36683854514E+03  0.91573342121E+02 0.  0.
         -6    2    1    2    0  502 -0.43858887616E+02  0.40546468420E+02 -0.20114490525E+03  0.27176397350E+03  0.17271006416E+03 0.  0.
        -24    2    5    5    0    0 -0.80393962745E+02 -0.11253265558E+02 -0.15742257685E+03  0.19461634777E+03  0.80646325943E+02 0.  0.
          5    1    3    3  501    0 -0.33746909681E+01  0.46045344190E+02 -0.12658062373E+03  0.13481953332E+03  0.47000000000E+01 0. -1.
        -13    1    4    4    0    0  0.34104060887E+02  0.51980573807E+01 -0.46884986713E+02  0.58209180965E+02  0.00000000000E+00 0.  1.
         14    1    4    4    0    0  0.13129517697E+02 -0.91789869991E+02 -0.29437105830E+03  0.30862936418E+03  0.00000000000E+00 0. -1.
         -5    1    5    5    0  502  0.36535075129E+02  0.51799733979E+02 -0.43722328401E+02  0.77147625730E+02  0.47000000000E+01 0.  1.
         11    1    6    6    0    0 -0.50194579781E+02 -0.27726551025E+02 -0.34389847761E+02  0.66864931766E+02  0.00000000000E+00 0. -1.
        -12    1    6    6    0    0 -0.30199382964E+02  0.16473285467E+02 -0.12303272909E+03  0.12775141601E+03  0.00000000000E+00 0.  1.
</event>
<event>
12    1  0.8417180E-002  0.1951339E+03  0.7818608E-02  0.1154979E+00
         21   -1    0    0  503  502  0.00000000000E+00  0.00000000000E+00  0.15638313378E+04  0.15638313378E+04  0.00000000000E+00 0. -1.
         21   -1    0    0  501  503 -0.00000000000E+00 -0.00000000000E+00 -0.24190983794E+02  0.24190983794E+02  0.00000000000E+00 0. -1.
          6    2    1    2  501    0 -0.16992203709E+02 -0.78789277993E+02  0.65297972752E+03  0.68014329753E+03  0.17238299019E+03 0.  0.
         24    2    3    3    0    0 -0.44249814147E+02  0.34959295482E+01  0.39249962154E+03  0.40557853592E+03  0.92020260342E+02 0.  0.
         -6    2    1    2    0  502  0.16992203709E+02  0.78789277993E+02  0.88666062648E+03  0.90787902406E+03  0.17770979281E+03 0.  0.
        -24    2    5    5    0    0 -0.51148161736E+02  0.75885608613E+02  0.66651215815E+03  0.67736009033E+03  0.78762141714E+02 0.  0.
          5    1    3    3  501    0  0.27257610438E+02 -0.82285207541E+02  0.26048010598E+03  0.27456476161E+03  0.47000000000E+01 0. -1.
        -13    1    4    4    0    0 -0.55311997908E+02 -0.32595263831E+02  0.25969416154E+03  0.26751247798E+03  0.00000000000E+00 0.  1.
         14    1    4    4    0    0  0.11062183761E+02  0.36091193379E+02  0.13280546001E+03  0.13806605794E+03  0.00000000000E+00 0. -1.
         -5    1    5    5    0  502  0.68140365445E+02  0.29036693800E+01  0.22014846833E+03  0.23051893373E+03  0.47000000000E+01 0.  1.
         13    1    6    6    0    0 -0.61675265869E+01  0.64220535260E+02  0.24717359827E+03  0.25545469895E+03  0.00000000000E+00 0. -1.
        -14    1    6    6    0    0 -0.44980635149E+02  0.11665073353E+02  0.41933855988E+03  0.42190539138E+03  0.00000000000E+00 0.  1.
</event>
<event>
12    1  0.8417180E-002  0.2032535E+03  0.7818608E-02  0.1147097E+00
         21   -1    0    0  501  502  0.00000000000E+00  0.00000000000E+00  0.41742531151E+02  0.41742531151E+02  0.00000000000E+00 0.  1.
         21   -1    0    0  502  503 -0.00000000000E+00 -0.00000000000E+00 -0.13825500322E+04  0.13825500322E+04  0.00000000000E+00 0. -1.
         -6    2    1    2    0  503 -0.10554809748E+03 -0.19392860522E+02 -0.10512850688E+04  0.10707531283E+04  0.17261367813E+03 0.  0.
        -24    2    3    3    0    0 -0.48495870748E+02  0.48227155826E+02 -0.50362458495E+03  0.51597252410E+03  0.88950632476E+02 0.  0.
          6    2    1    2  501    0  0.10554809748E+03  0.19392860522E+02 -0.28952243217E+03  0.35353943501E+03  0.17219294253E+03 0.  0.
         24    2    5    5    0    0  0.42938311063E+02 -0.76479264443E+01 -0.52376110611E+02  0.10673656359E+03  0.82141631998E+02 0.  0.
          5    1    5    5  501    0  0.62609786418E+02  0.27040786966E+02 -0.23714632156E+03  0.24680287143E+03  0.47000000000E+01 0.  1.
        -11    1    6    6    0    0 -0.16088621378E+02 -0.25044306330E+02 -0.26947535050E+02  0.40152592228E+02  0.00000000000E+00 0.  1.
         12    1    6    6    0    0  0.59026932441E+02  0.17396379886E+02 -0.25428575561E+02  0.66583971357E+02  0.00000000000E+00 0. -1.
         -5    1    3    3    0  503 -0.57052226733E+02 -0.67620016348E+02 -0.54766048390E+03  0.55478060421E+03  0.47000000000E+01 0.  1.
         11    1    4    4    0    0 -0.74815865398E+02  0.32775233120E+02 -0.36462711692E+03  0.37366370444E+03  0.00000000000E+00 0. -1.
        -12    1    4    4    0    0  0.26319994650E+02  0.15451922706E+02 -0.13899746803E+03  0.14230881966E+03  0.00000000000E+00 0.  1.
</event>
<event>
12    1  0.8417180E-002  0.2078221E+03  0.7818608E-02  0.1143783E+00
         21   -1    0    0  503  502  0.00000000000E+00  0.00000000000E+00  0.26591245992E+03  0.26591245992E+03  0.00000000000E+00 0.  1.
         21   -1    0    0  501  503 -0.00000000000E+00 -0.00000000000E+00 -0.22048322467E+03  0.22048322467E+03  0.00000000000E+00 0.  1.
          6    2    1    2  501    0  0.11366601005E+03 -0.76650343925E+01 -0.10415664589E+03  0.23033720864E+03  0.17096171562E+03 0.  0.
         24    2    3    3    0    0  0.91096387281E+02  0.41633854038E+02 -0.11769409357E+03  0.17425583239E+03  0.80506309583E+02 0.  0.
         -6    2    1    2    0  502 -0.11366601005E+03  0.76650343925E+01  0.14958588114E+03  0.25605847595E+03  0.17381395996E+03 0.  0.
        -24    2    5    5    0    0 -0.11437761778E+03  0.13867416270E+02  0.41853772425E+02  0.14804332343E+03  0.83009292629E+02 0.  0.
          5    1    3    3  501    0  0.22569622766E+02 -0.49298888431E+02  0.13537447680E+02  0.56081376249E+02  0.47000000000E+01 0. -1.
        -11    1    4    4    0    0  0.20309048493E+02  0.33348772181E+01 -0.84880195229E+02  0.87339718335E+02  0.00000000000E+00 0.  1.
         12    1    4    4    0    0  0.70787338788E+02  0.38298976820E+02 -0.32813898345E+02  0.86916114057E+02  0.00000000000E+00 0. -1.
         -5    1    5    5    0  502  0.71160773259E+00 -0.62023818772E+01  0.10773210871E+03  0.10801515252E+03  0.47000000000E+01 0.  1.
         13    1    6    6    0    0 -0.10440369804E+02 -0.27314144432E+02  0.18374368771E+01  0.29299146438E+02  0.00000000000E+00 0. -1.
        -14    1    6    6    0    0 -0.10393724798E+03  0.41181560702E+02  0.40016335548E+02  0.11874417699E+03  0.00000000000E+00 0.  1.
</event>
<event>
12    1  0.8417180E-002  0.2946234E+03  0.7818608E-02  0.1088638E+00
         21   -1    0    0  503  502  0.00000000000E+00  0.00000000000E+00  0.59026153094E+03  0.59026153094E+03  0.00000000000E+00 0.  1.
         21   -1    0    0  501  503 -0.00000000000E+00 -0.00000000000E+00 -0.33576377629E+03  0.33576377629E+03  0.00000000000E+00 0.  1.
          6    2    1    2  501    0 -0.23836519789E+03  0.23872644505E+02 -0.22273986492E+03  0.36517000366E+03  0.16232132771E+03 0.  0.
         24    2    3    3    0    0 -0.21761926898E+03 -0.18571894337E+02 -0.14217581992E+03  0.27165750295E+03  0.76686202453E+02 0.  0.
         -6    2    1    2    0  502  0.23836519789E+03 -0.23872644505E+02  0.47723761957E+03  0.56085530357E+03  0.17150817847E+03 0.  0.
        -24    2    5    5    0    0  0.16703996797E+03  0.49807333499E+02  0.29391371517E+03  0.35074635205E+03  0.79086093222E+02 0.  0.
          5    1    3    3  501    0 -0.20745928910E+02  0.42444538842E+02 -0.80564044993E+02  0.93512500712E+02  0.47000000000E+01 0. -1.
        -13    1    4    4    0    0 -0.11954279785E+03 -0.48104856270E+02 -0.84759186137E+02  0.15423578492E+03  0.00000000000E+00 0.  1.
         14    1    4    4    0    0 -0.98076471133E+02  0.29532961934E+02 -0.57416633787E+02  0.11742171803E+03  0.00000000000E+00 0. -1.
         -5    1    5    5    0  502  0.71325229921E+02 -0.73679978003E+02  0.18332390440E+03  0.21010895151E+03  0.47000000000E+01 0.  1.
         11    1    6    6    0    0  0.12049318770E+03 -0.24471587605E+01  0.16907839336E+03  0.20763453463E+03  0.00000000000E+00 0. -1.
        -12    1    6    6    0    0  0.46546780270E+02  0.52254492259E+02  0.12483532181E+03  0.14311181742E+03  0.00000000000E+00 0.  1.
</event>
<event>
12    1  0.8417180E-002  0.1790678E+03  0.7818608E-02  0.1169142E+00
         21   -1    0    0  503  502  0.00000000000E+00  0.00000000000E+00  0.16425151731E+03  0.16425151731E+03  0.00000000000E+00 0.  1.
         21   -1    0    0  501  503 -0.00000000000E+00 -0.00000000000E+00 -0.20238035688E+03  0.20238035688E+03  0.00000000000E+00 0.  1.
          6    2    1    2  501    0  0.22632237649E+01 -0.44526414734E+02 -0.57998166089E+02  0.18822610101E+03  0.17342881549E+03 0.  0.
         24    2    3    3    0    0 -0.43978281745E+02 -0.66308957406E+02 -0.24474489997E+01  0.11259060560E+03  0.79622153732E+02 0.  0.
         -6    2    1    2    0  502 -0.22632237649E+01  0.44526414734E+02  0.19869326511E+02  0.17840577318E+03  0.17159867708E+03 0.  0.
        -24    2    5    5    0    0  0.70974478065E+01 -0.85373720674E+01 -0.46370339529E+02  0.92888693021E+02  0.79717252937E+02 0.  0.
          5    1    3    3  501    0  0.46241505510E+02  0.21782542673E+02 -0.55550717089E+02  0.75635495412E+02  0.47000000000E+01 0. -1.
        -11    1    4    4    0    0  0.86677992126E+01 -0.10296735314E+02 -0.28424517995E+02  0.31450067163E+02  0.00000000000E+00 0.  1.
         12    1    4    4    0    0 -0.52646080958E+02 -0.56012222093E+02  0.25977068996E+02  0.81140538435E+02  0.00000000000E+00 0. -1.
         -5    1    5    5    0  502 -0.93606715714E+01  0.53063786801E+02  0.66239666040E+02  0.85517080159E+02  0.47000000000E+01 0.  1.
         11    1    6    6    0    0  0.23756961845E+02 -0.35422072377E+02 -0.83983533321E+01  0.43470090709E+02  0.00000000000E+00 0. -1.
        -12    1    6    6    0    0 -0.16659514038E+02  0.26884700309E+02 -0.37971986197E+02  0.49418602312E+02  0.00000000000E+00 0.  1.
</event>
<event>
12    1  0.8417180E-002  0.1914090E+03  0.7818608E-02  0.1157592E+00
         21   -1    0    0  501  502  0.00000000000E+00  0.00000000000E+00  0.13903866476E+03  0.13903866476E+03  0.00000000000E+00 0. -1.
         21   -1    0    0  502  503 -0.00000000000E+00 -0.00000000000E+00 -0.28259962046E+03  0.28259962046E+03  0.00000000000E+00 0. -1.
         -6    2    1    2    0  503  0.69260962089E+02 -0.39185895156E+02 -0.13920700705E+02  0.19191451021E+03  0.17408267597E+03 0.  0.
        -24    2    3    3    0    0  0.88357998254E+02 -0.41174819461E+02 -0.62027681661E+02  0.13990466280E+03  0.78888400725E+02 0.  0.
          6    2    1    2  501    0 -0.69260962089E+02  0.39185895156E+02 -0.12964025500E+03  0.22972377501E+03  0.17214471191E+03 0.  0.
         24    2    5    5    0    0 -0.11258990686E+03  0.34910794814E+02 -0.75250898183E+02  0.15989565694E+03  0.77515628816E+02 0.  0.
          5    1    5    5  501    0  0.43328944769E+02  0.42751003416E+01 -0.54389356814E+02  0.69828118064E+02  0.47000000000E+01 0. -1.
        -11    1    6    6    0    0 -0.92760944935E+02  0.13962051163E+02 -0.17616046936E+02  0.95445570287E+02  0.00000000000E+00 0.  1.
         12    1    6    6    0    0 -0.19828961923E+02  0.20948743651E+02 -0.57634851247E+02  0.64450086655E+02  0.00000000000E+00 0. -1.
         -5    1    3    3    0  503 -0.19097036165E+02  0.19889243057E+01  0.48106980956E+02  0.52009847403E+02  0.47000000000E+01 0.  1.
         13    1    4    4    0    0 -0.49701625817E+01 -0.30651867191E+02 -0.20534061639E+02  0.37227505500E+02  0.00000000000E+00 0. -1.
        -14    1    4    4    0    0  0.93328160836E+02 -0.10522952270E+02 -0.41493620022E+02  0.10267715730E+03  0.00000000000E+00 0.  1.
</event>
<event>
12    1  0.8417180E-002  0.1811286E+03  0.7818608E-02  0.1167624E+00
         21   -1    0    0  501  502  0.00000000000E+00  0.00000000000E+00  0.21567145325E+03  0.21567145325E+03  0.00000000000E+00 0. -1.
         21   -1    0    0  502  503 -0.00000000000E+00 -0.00000000000E+00 -0.27354409156E+03  0.27354409156E+03  0.00000000000E+00 0. -1.
         -6    2    1    2    0  503  0.76299551403E+01  0.42929874822E+02 -0.19415472730E+03  0.26552518669E+03  0.17580209402E+03 0.  0.
        -24    2    3    3    0    0  0.54265876214E+02  0.29534633575E+02 -0.19180410189E+03  0.21671988920E+03  0.79759745316E+02 0.  0.
          6    2    1    2  501    0 -0.76299551403E+01 -0.42929874822E+02  0.13628208900E+03  0.22369035812E+03  0.17194004236E+03 0.  0.
         24    2    5    5    0    0 -0.38987100447E+02  0.72043004224E+01  0.13844202579E+03  0.16433160632E+03  0.79163036729E+02 0.  0.
          5    1    5    5  501    0  0.31357145307E+02 -0.50134175245E+02 -0.21599367870E+01  0.59358751808E+02  0.47000000000E+01 0. -1.
        -13    1    6    6    0    0 -0.58091208446E+02  0.19676608023E+02  0.74840899853E+02  0.96762170773E+02  0.00000000000E+00 0.  1.
         14    1    6    6    0    0  0.19104107999E+02 -0.12472307600E+02  0.63601125936E+02  0.67569435543E+02  0.00000000000E+00 0. -1.
         -5    1    3    3    0  503 -0.46635921074E+02  0.13395241247E+02 -0.23506254122E+01  0.48805297482E+02  0.47000000000E+01 0.  1.
         11    1    4    4    0    0  0.57355855314E+02  0.37848532874E+01 -0.62798527943E+02  0.85133274136E+02  0.00000000000E+00 0. -1.
        -12    1    4    4    0    0 -0.30899791000E+01  0.25749780288E+02 -0.12900557395E+03  0.13158661507E+03  0.00000000000E+00 0.  1.
</event>
<event>
12    1  0.8417180E-002  0.2703514E+03  0.7818608E-02  0.1101161E+00
         21   -1    0    0  501  502  0.00000000000E+00  0.00000000000E+00  0.73145304044E+03  0.73145304044E+03  0.00000000000E+00 0.  1.
         21   -1    0    0  502  503 -0.00000000000E+00 -0.00000000000E+00 -0.10111071828E+03  0.10111071828E+03  0.00000000000E+00 0. -1.
         -6    2    1    2    0  503 -0.16244975640E+03 -0.13008171665E+03  0.26655048849E+03  0.37965648293E+03  0.17256507687E+03 0.  0.
        -24    2    3    3    0    0 -0.18721296968E+03 -0.12228249963E+03  0.25994553464E+03  0.35245795478E+03  0.81567292309E+02 0.  0.
          6    2    1    2  501    0  0.16244975640E+03  0.13008171665E+03  0.36379183368E+03  0.45290727579E+03  0.17166632125E+03 0.  0.
         24    2    5    5    0    0  0.12169911380E+03  0.12216846931E+03  0.36469422054E+03  0.41112045181E+03  0.79261227672E+02 0.  0.
          5    1    5    5  501    0  0.40750642601E+02  0.79132473398E+01 -0.90238686444E+00  0.41786823974E+02  0.47000000000E+01 0. -1.
        -11    1    6    6    0    0  0.89523204626E+02  0.12526051803E+03  0.32721750185E+03  0.36162949971E+03  0.00000000000E+00 0.  1.
         12    1    6    6    0    0  0.32175909174E+02 -0.30920487208E+01  0.37476718690E+02  0.49490952104E+02  0.00000000000E+00 0. -1.
         -5    1    3    3    0  503  0.24763213282E+02 -0.77992170132E+01  0.66049538443E+01  0.27198528147E+02  0.47000000000E+01 0.  1.
         11    1    4    4    0    0 -0.11353303284E+03 -0.41707875531E+02  0.91248675502E+02  0.15151111249E+03  0.00000000000E+00 0. -1.
        -12    1    4    4    0    0 -0.73679936838E+02 -0.80574624102E+02  0.16869685914E+03  0.20094684229E+03  0.00000000000E+00 0.  1.
</event>
<event>
12    1  0.8417180E-002  0.1798405E+03  0.7818608E-02  0.1168447E+00
         21   -1    0    0  503  502  0.00000000000E+00  0.00000000000E+00  0.78156671017E+03  0.78156671017E+03  0.00000000000E+00 0. -1.
         21   -1    0    0  501  503 -0.00000000000E+00 -0.00000000000E+00 -0.49254410033E+02  0.49254410033E+02  0.00000000000E+00 0. -1.
          6    2    1    2  501    0 -0.57308169032E+01  0.49639109465E+02  0.19699691700E+03  0.26674032158E+03  0.17275916879E+03 0.  0.
         24    2    3    3    0    0 -0.47797001095E+02  0.40379983139E+02  0.48704893450E+02  0.11224789613E+03  0.79450155372E+02 0.  0.
         -6    2    1    2    0  502  0.57308169032E+01 -0.49639109465E+02  0.53531538315E+03  0.56408079863E+03  0.17066840509E+03 0.  0.
        -24    2    5    5    0    0 -0.32664696123E+02 -0.18290344496E+02  0.49207616930E+03  0.49813627574E+03  0.67817945515E+02 0.  0.
          5    1    3    3  501    0  0.42066184192E+02  0.92591263251E+01  0.14829202355E+03  0.15449242544E+03  0.47000000000E+01 0. -1.
        -13    1    4    4    0    0 -0.17889546155E+02  0.60455750423E+02  0.19859727693E+02  0.66101001542E+02  0.00000000000E+00 0.  1.
         14    1    4    4    0    0 -0.29907454940E+02 -0.20075767283E+02  0.28845165757E+02  0.46146894592E+02  0.00000000000E+00 0. -1.
         -5    1    5    5    0  502  0.38395513026E+02 -0.31348764969E+02  0.43239213843E+02  0.65944522891E+02  0.47000000000E+01 0.  1.
         11    1    6    6    0    0  0.12033357882E+02 -0.10996173205E+01  0.29778514967E+03  0.29803021025E+03  0.00000000000E+00 0. -1.
        -12    1    6    6    0    0 -0.44698054005E+02 -0.17190727176E+02  0.19429101963E+03  0.20010606548E+03  0.00000000000E+00 0.  1.
</event>
<event>
12    1  0.8417180E-002  0.1775817E+03  0.7818608E-02  0.1170572E+00
         21   -1    0    0  501  502  0.00000000000E+00  0.00000000000E+00  0.88647622538E+02  0.88647622538E+02  0.00000000000E+00 0. -1.
         21   -1    0    0  502  503 -0.00000000000E+00 -0.00000000000E+00 -0.10341900796E+04  0.10341900796E+04  0.00000000000E+00 0. -1.
         -6    2    1    2    0  503  0.13760731459E+02 -0.43072022658E+02 -0.92934343614E+03  0.94615774532E+03  0.17172856447E+03 0.  0.
        -24    2    3    3    0    0  0.22238079773E+02 -0.14467342147E+02 -0.89952588408E+03  0.90371637879E+03  0.82780680003E+02 0.  0.
          6    2    1    2  501    0 -0.13760731459E+02  0.43072022658E+02 -0.16199020931E+02  0.17667995683E+03  0.17002600390E+03 0.  0.
         24    2    5    5    0    0 -0.34511797193E+02  0.24361543026E+02 -0.70787515808E+02  0.11517644027E+03  0.80437497934E+02 0.  0.
          5    1    5    5  501    0  0.20751065734E+02  0.18710479632E+02  0.54588494878E+02  0.61503516568E+02  0.47000000000E+01 0. -1.
        -13    1    6    6    0    0 -0.51405213222E+02 -0.10122487162E+02 -0.38713227170E+02  0.65143492773E+02  0.00000000000E+00 0.  1.
         14    1    6    6    0    0  0.16893416029E+02  0.34484030188E+02 -0.32074288638E+02  0.50032947493E+02  0.00000000000E+00 0. -1.
         -5    1    3    3    0  503 -0.84773483143E+01 -0.28604680511E+02 -0.29817552059E+02  0.42441366523E+02  0.47000000000E+01 0.  1.
         11    1    4    4    0    0 -0.26847582709E+01 -0.24741833474E+02 -0.80596841691E+03  0.80635256266E+03  0.00000000000E+00 0. -1.
        -12    1    4    4    0    0  0.24922838044E+02  0.10274491327E+02 -0.93557467171E+02  0.97363816132E+02  0.00000000000E+00 0.  1.
</event>
<event>
12    1  0.8417180E-002  0.2248075E+03  0.7818608E-02  0.1130356E+00
         21   -1    0    0  501  502  0.00000000000E+00  0.00000000000E+00  0.41800510141E+03  0.41800510141E+03  0.00000000000E+00 0. -1.
         21   -1    0    0  502  503 -0.00000000000E+00 -0.00000000000E+00 -0.13391839519E+03  0.13391839519E+03  0.00000000000E+00 0.  1.
         -6    2    1    2    0  503 -0.14212722891E+03 -0.23617921654E+02  0.55937674006E+02  0.23162617594E+03  0.17252161195E+03 0.  0.
        -24    2    3    3    0    0 -0.12129190735E+03 -0.17033554133E+02  0.10474032302E+03  0.17794887095E+03  0.75454599928E+02 0.  0.
          6    2    1    2  501    0  0.14212722891E+03  0.23617921654E+02  0.22814903221E+03  0.32029732065E+03  0.17257009386E+03 0.  0.
         24    2    5    5    0    0  0.10543378885E+03  0.66383603523E+02  0.21603486164E+03  0.26246864940E+03  0.81827036062E+02 0.  0.
          5    1    5    5  501    0  0.36693440064E+02 -0.42765681869E+02  0.12114170576E+02  0.57828671247E+02  0.47000000000E+01 0. -1.
        -11    1    6    6    0    0 -0.38365635023E+01  0.33122449500E+02  0.34422917810E+02  0.47924452537E+02  0.00000000000E+00 0.  1.
         12    1    6    6    0    0  0.10927035235E+03  0.33261154023E+02  0.18161194383E+03  0.21454419687E+03  0.00000000000E+00 0. -1.
         -5    1    3    3    0  503 -0.20835321557E+02 -0.65843675208E+01 -0.48802649018E+02  0.53677304992E+02  0.47000000000E+01 0.  1.
         13    1    4    4    0    0 -0.61253251328E+02 -0.32200325549E+01  0.98485832050E+02  0.11602494785E+03  0.00000000000E+00 0. -1.
        -14    1    4    4    0    0 -0.60038656024E+02 -0.13813521578E+02  0.62544909739E+01  0.61923923106E+02  0.00000000000E+00 0.  1.
</event>
<event>
12    1  0.8417180E-002  0.2465108E+03  0.7818608E-02  0.1115861E+00
         21   -1    0    0  501  502  0.00000000000E+00  0.00000000000E+00  0.25556473915E+03  0.25556473915E+03  0.00000000000E+00 0.  1.
         21   -1    0    0  502  503 -0.00000000000E+00 -0.00000000000E+00 -0.23774082596E+03  0.23774082596E+03  0.00000000000E+00 0. -1.
         -6    2    1    2    0  503 -0.46147745066E+01  0.17655172419E+03  0.31120717123E+02  0.24643641866E+03  0.16902840575E+03 0.  0.
        -24    2    3    3    0    0 -0.64945260945E+02  0.78364896759E+02 -0.18484841853E+02  0.12088474740E+03  0.62549890585E+02 0.  0.
          6    2    1    2  501    0  0.46147745066E+01 -0.17655172419E+03 -0.13296803934E+02  0.24686914645E+03  0.17197605361E+03 0.  0.
         24    2    5    5    0    0 -0.64690037592E+02 -0.10559191618E+03 -0.13388369347E+02  0.14756884576E+03  0.79138246626E+02 0.  0.
          5    1    5    5  501    0  0.69304812099E+02 -0.70959808009E+02  0.91565413110E-01  0.99300300689E+02  0.47000000000E+01 0. -1.
        -11    1    6    6    0    0 -0.27154257924E+02  0.63174898125E+01  0.43169241257E+01  0.28211703862E+02  0.00000000000E+00 0.  1.
         12    1    6    6    0    0 -0.37535779669E+02 -0.11190940600E+03 -0.17705293473E+02  0.11935714190E+03  0.00000000000E+00 0. -1.
         -5    1    3    3    0  503  0.60330486438E+02  0.98186827433E+02  0.49605558976E+02  0.12555167126E+03  0.47000000000E+01 0.  1.
         11    1    4    4    0    0 -0.53829218516E+02  0.43639690473E+02  0.15535955890E+02  0.71016711245E+02  0.00000000000E+00 0. -1.
        -12    1    4    4    0    0 -0.11116042429E+02  0.34725206286E+02 -0.34020797743E+02  0.49868036155E+02  0.00000000000E+00 0.  1.
</event>
<event>
12    1  0.8417180E-002  0.2104319E+03  0.7818608E-02  0.1143449E+00
         21   -1    0    0  503  502  0.00000000000E+00  0.00000000000E+00  0.23121103253E+03  0.23121103253E+03  0.00000000000E+00 0.  1.
         21   -1    0    0  501  503 -0.00000000000E+00 -0.00000000000E+00 -0.18617432661E+03  0.18617432661E+03  0.00000000000E+00 0.  1.
          6    2    1    2  501    0 -0.73447543823E+02  0.69813715018E+02  0.54334427544E+02  0.20674814776E+03  0.17182569682E+03 0.  0.
         24    2    3    3    0    0 -0.26535220138E+02  0.10484858660E+03  0.14857492233E+02  0.13597578902E+03  0.81063716316E+02 0.  0.
         -6    2    1    2    0  502  0.73447543823E+02 -0.69813715018E+02 -0.92977216254E+01  0.21063721138E+03  0.18442638285E+03 0.  0.
        -24    2    5    5    0    0 -0.22945578747E+02 -0.46217626498E+02  0.34674420396E+02  0.10199077220E+03  0.80853160732E+02 0.  0.
          5    1    3    3  501    0 -0.46912323684E+02 -0.35034871583E+02  0.39476935311E+02  0.70772358742E+02  0.47000000000E+01 0. -1.
        -11    1    4    4    0    0 -0.41711036525E+02  0.23174218047E+02 -0.11008317573E+02  0.48969766243E+02  0.00000000000E+00 0.  1.
         12    1    4    4    0    0  0.15175816387E+02  0.81674368554E+02  0.25865809806E+02  0.87006022772E+02  0.00000000000E+00 0. -1.
         -5    1    5    5    0  502  0.96393122570E+02 -0.23596088519E+02 -0.43972142021E+02  0.10864643918E+03  0.47000000000E+01 0.  1.
         11    1    6    6    0    0 -0.23124465643E+02 -0.18625875159E+02 -0.23327503162E+02  0.37760250800E+02  0.00000000000E+00 0. -1.
        -12    1    6    6    0    0  0.17888689593E+00 -0.27591751340E+02  0.58001923558E+02  0.64230521397E+02  0.00000000000E+00 0.  1.
</event>
<event>
12    1  0.8417180E-002  0.2454142E+03  0.7818608E-02  0.1116424E+00
         21   -1    0    0  501  502  0.00000000000E+00  0.00000000000E+00  0.41512484870E+03  0.41512484870E+03  0.00000000000E+00 0. -1.
         21   -1    0    0  502  503 -0.00000000000E+00 -0.00000000000E+00 -0.31374476627E+03  0.31374476627E+03  0.00000000000E+00 0.  1.
         -6    2    1    2    0  503 -0.17087923953E+03  0.42848421501E+02 -0.21710317100E+03  0.32680033510E+03  0.16920097647E+03 0.  0.
        -24    2    3    3    0    0 -0.22153658512E+02  0.18461552945E+01 -0.41787582044E+02  0.93223516873E+02  0.80313319009E+02 0.  0.
          6    2    1    2  501    0  0.17087923953E+03 -0.42848421501E+02  0.31848325343E+03  0.40206927987E+03  0.17085789818E+03 0.  0.
         24    2    5    5    0    0  0.12393221958E+03 -0.72127984893E+02  0.13857267769E+03  0.21378433416E+03  0.77069535330E+02 0.  0.
          5    1    5    5  501    0  0.46947019942E+02  0.29279563392E+02  0.17991057575E+03  0.18828494571E+03  0.47000000000E+01 0. -1.
        -11    1    6    6    0    0  0.14264821208E+02 -0.13264319966E+02 -0.83796503763E+01  0.21204854366E+02  0.00000000000E+00 0.  1.
         12    1    6    6    0    0  0.10966739838E+03 -0.58863664927E+02  0.14695232806E+03  0.19257947980E+03  0.00000000000E+00 0. -1.
         -5    1    3    3    0  503 -0.14872558101E+03  0.41002266207E+02 -0.17531558896E+03  0.23357681823E+03  0.47000000000E+01 0.  1.
         11    1    4    4    0    0 -0.51721493673E+02  0.35003520629E+01 -0.35827409476E+02  0.63015622207E+02  0.00000000000E+00 0. -1.
        -12    1    4    4    0    0  0.29567835162E+02 -0.16541967684E+01 -0.59601725679E+01  0.30207894666E+02  0.00000000000E+00 0.  1.
</event>
<event>
12    1  0.8417180E-002  0.1783758E+03  0.7818608E-02  0.1169452E+00
         21   -1    0    0  501  502  0.00000000000E+00  0.00000000000E+00  0.22046195481E+02  0.22046195481E+02  0.00000000000E+00 0. -1.
         21   -1    0    0  502  503 -0.00000000000E+00 -0.00000000000E+00 -0.14933178566E+04  0.14933178566E+04  0.00000000000E+00 0. -1.
         -6    2    1    2    0  503  0.44932012448E+02  0.10517003106E+02 -0.59435361908E+03  0.62054343033E+03  0.17230331196E+03 0.  0.
        -24    2    3    3    0    0  0.84019644779E+02 -0.33103923278E+02 -0.37580228543E+03  0.39423080660E+03  0.77687841324E+02 0.  0.
          6    2    1    2  501    0 -0.44932012448E+02 -0.10517003106E+02 -0.87691804201E+03  0.89482062173E+03  0.17201511435E+03 0.  0.
         24    2    5    5    0    0 -0.53135688224E+02 -0.28313777543E+02 -0.27694811810E+03  0.29451234669E+03  0.80076156709E+02 0.  0.
          5    1    5    5  501    0  0.82036757758E+01  0.17796774437E+02 -0.59996992391E+03  0.60030827503E+03  0.47000000000E+01 0. -1.
        -11    1    6    6    0    0 -0.17621381884E+02  0.19176715227E+02 -0.26561220314E+02  0.37198896905E+02  0.00000000000E+00 0.  1.
         12    1    6    6    0    0 -0.35514306340E+02 -0.47490492770E+02 -0.25038689779E+03  0.25731344979E+03  0.00000000000E+00 0. -1.
         -5    1    3    3    0  503 -0.39087632330E+02  0.43620926384E+02 -0.21855133365E+03  0.22631262373E+03  0.47000000000E+01 0.  1.
         11    1    4    4    0    0  0.69009327183E+02  0.43095978830E+01 -0.15421261858E+03  0.16900411711E+03  0.00000000000E+00 0. -1.
        -12    1    4    4    0    0  0.15010317596E+02 -0.37413521161E+02 -0.22158966686E+03  0.22522668949E+03  0.00000000000E+00 0.  1.
</event>
<event>
12    1  0.8417180E-002  0.1897349E+03  0.7818608E-02  0.1159191E+00
         21   -1    0    0  501  502  0.00000000000E+00  0.00000000000E+00  0.19012674193E+04  0.19012674193E+04  0.00000000000E+00 0. -1.
         21   -1    0    0  502  503 -0.00000000000E+00 -0.00000000000E+00 -0.19130530728E+02  0.19130530728E+02  0.00000000000E+00 0. -1.
         -6    2    1    2    0  503 -0.37030114776E+02  0.69324341066E+02  0.80559331680E+03  0.82763513987E+03  0.17269116660E+03 0.  0.
        -24    2    3    3    0    0 -0.38586318557E+02  0.42013345116E+02  0.21628865355E+03  0.23767718510E+03  0.80346982004E+02 0.  0.
          6    2    1    2  501    0  0.37030114776E+02 -0.69324341066E+02  0.10765435717E+04  0.10927628101E+04  0.17031560016E+03 0.  0.
         24    2    5    5    0    0  0.28482953148E+02 -0.69660232832E+02  0.10758065848E+04  0.10829750655E+04  0.99052298383E+02 0.  0.
          5    1    5    5  501    0  0.85471616283E+01  0.33589176592E+00  0.73698688979E+00  0.97877446255E+01  0.47000000000E+01 0. -1.
        -11    1    6    6    0    0  0.55648682787E+01  0.19600046688E+02  0.68612272550E+02  0.71573553311E+02  0.00000000000E+00 0.  1.
         12    1    6    6    0    0  0.22918084869E+02 -0.89260279520E+02  0.10071943123E+04  0.10114015122E+04  0.00000000000E+00 0. -1.
         -5    1    3    3    0  503  0.15562037812E+01  0.27310995950E+02  0.58930466325E+03  0.58995795477E+03  0.47000000000E+01 0.  1.
         13    1    4    4    0    0 -0.16994228393E+02  0.59152805146E+02  0.18947493456E+03  0.19922000146E+03  0.00000000000E+00 0. -1.
        -14    1    4    4    0    0 -0.21592090164E+02 -0.17139460030E+02  0.26813718988E+02  0.38457183643E+02  0.00000000000E+00 0.  1.
</event>
<event>
12    1  0.8417180E-002  0.2464268E+03  0.7818608E-02  0.1115655E+00
         21   -1    0    0  501  502  0.00000000000E+00  0.00000000000E+00  0.49722037896E+02  0.49722037896E+02  0.00000000000E+00 0.  1.
         21   -1    0    0  502  503 -0.00000000000E+00 -0.00000000000E+00 -0.12201792346E+04  0.12201792346E+04  0.00000000000E+00 0. -1.
         -6    2    1    2    0  503 -0.11518271182E+03 -0.13523564296E+03 -0.60449696491E+03  0.65279609242E+03  0.17079350530E+03 0.  0.
        -24    2    3    3    0    0 -0.76478242677E+02 -0.37223951970E+01 -0.27602331478E+03  0.29683148869E+03  0.77828558701E+02 0.  0.
          6    2    1    2  501    0  0.11518271182E+03  0.13523564296E+03 -0.56596023183E+03  0.61710518013E+03  0.17015311661E+03 0.  0.
         24    2    5    5    0    0 -0.86251153883E+01  0.57201903339E+02 -0.18330650753E+03  0.20739356774E+03  0.77874038534E+02 0.  0.
          5    1    5    5  501    0  0.12380782721E+03  0.78033739623E+02 -0.38265372431E+03  0.40971161239E+03  0.47000000000E+01 0. -1.
        -11    1    6    6    0    0  0.91380605302E+01 -0.13326517346E+02 -0.89409366822E+01  0.18467283601E+02  0.00000000000E+00 0.  1.
         12    1    6    6    0    0 -0.17763175919E+02  0.70528420685E+02 -0.17436557084E+03  0.18892628414E+03  0.00000000000E+00 0. -1.
         -5    1    3    3    0  503 -0.38704469142E+02 -0.13151324777E+03 -0.32847365014E+03  0.35596460372E+03  0.47000000000E+01 0.  1.
         13    1    4    4    0    0 -0.76746020130E+02  0.13897145008E+02 -0.14515249707E+03  0.16477963967E+03  0.00000000000E+00 0. -1.
        -14    1    4    4    0    0  0.26777745316E+00 -0.17619540205E+02 -0.13087081771E+03  0.13205184902E+03  0.00000000000E+00 0.  1.
</event>
<event>
12    1  0.8417180E-002  0.1963491E+03  0.7818608E-02  0.1154212E+00
         21   -1    0    0  501  502  0.00000000000E+00  0.00000000000E+00  0.59939312628E+03  0.59939312628E+03  0.00000000000E+00 0. -1.
         21   -1    0    0  502  503 -0.00000000000E+00 -0.00000000000E+00 -0.62577405369E+02  0.62577405369E+02  0.00000000000E+00 0. -1.
         -6    2    1    2    0  503 -0.97924480232E+02  0.62927637704E+00  0.29407315161E+03  0.35359859912E+03  0.17018622443E+03 0.  0.
        -24    2    3    3    0    0 -0.91804649102E+02 -0.36373446481E+02  0.28836995451E+03  0.31537203389E+03  0.80939285213E+02 0.  0.
          6    2    1    2  501    0  0.97924480232E+02 -0.62927637704E+00  0.24274256931E+03  0.30837193253E+03  0.16303280039E+03 0.  0.
         24    2    5    5    0    0  0.77660064952E+02  0.43919665496E+02  0.22723168469E+03  0.25681679418E+03  0.79753398303E+02 0.  0.
          5    1    5    5  501    0  0.20264415280E+02 -0.44548941874E+02  0.15510884617E+02  0.51555138350E+02  0.47000000000E+01 0. -1.
        -13    1    6    6    0    0 -0.13336344400E+02 -0.62315790801E+01  0.18384793483E+02  0.23551885088E+02  0.00000000000E+00 0.  1.
         14    1    6    6    0    0  0.90996409352E+02  0.50151244577E+02  0.20884689121E+03  0.23326490910E+03  0.00000000000E+00 0. -1.
         -5    1    3    3    0  503 -0.61198311295E+01  0.37002722858E+02  0.57031970949E+01  0.38226565227E+02  0.47000000000E+01 0.  1.
         13    1    4    4    0    0 -0.10142573638E+03 -0.29528643094E+02  0.19969267837E+03  0.22591212132E+03  0.00000000000E+00 0. -1.
        -14    1    4    4    0    0  0.96210872810E+01 -0.68448033870E+01  0.88677276144E+02  0.89459912577E+02  0.00000000000E+00 0.  1.
</event>
<event>
12    1  0.8417180E-002  0.1786248E+03  0.7818608E-02  0.1169379E+00
         21   -1    0    0  503  502  0.00000000000E+00  0.00000000000E+00  0.76524953861E+02  0.76524953861E+02  0.00000000000E+00 0.  1.
         21   -1    0    0  501  503 -0.00000000000E+00 -0.00000000000E+00 -0.43844414804E+03  0.43844414804E+03  0.00000000000E+00 0.  1.
          6    2    1    2  501    0 -0.32960971136E+02 -0.31580838107E+02 -0.24137607524E+03  0.30028192398E+03  0.17269351237E+03 0.  0.
         24    2    3    3    0    0  0.38690572137E+02  0.70461382369E+01 -0.72212556344E+02  0.11249381711E+03  0.76769767214E+02 0.  0.
         -6    2    1    2    0  502  0.32960971136E+02  0.31580838107E+02 -0.12054311893E+03  0.21468717792E+03  0.17168624257E+03 0.  0.
        -24    2    5    5    0    0 -0.24193226878E+02  0.46957097808E+00 -0.12398672693E+03  0.14935371231E+03  0.79676158304E+02 0.  0.
          5    1    3    3  501    0 -0.71651543272E+02 -0.38626976344E+02 -0.16916351890E+03  0.18778810687E+03  0.47000000000E+01 0. -1.
        -13    1    4    4    0    0 -0.78929380443E+01  0.25800929777E+00 -0.64269552517E+02  0.64752918239E+02  0.00000000000E+00 0.  1.
         14    1    4    4    0    0  0.46583510181E+02  0.67881289391E+01 -0.79430038277E+01  0.47740898872E+02  0.00000000000E+00 0. -1.
         -5    1    5    5    0  502  0.57154198013E+02  0.31111267129E+02  0.34436079950E+01  0.65333465612E+02  0.47000000000E+01 0.  1.
         13    1    6    6    0    0  0.58980244529E+01 -0.13299361708E+02 -0.11380473210E+03  0.11473088844E+03  0.00000000000E+00 0. -1.
        -14    1    6    6    0    0 -0.30091251331E+02  0.13768932686E+02 -0.10181994832E+02  0.34622823870E+02  0.00000000000E+00 0.  1.
</event>
<event>
12    1  0.8417180E-002  0.1921008E+03  0.7818608E-02  0.1157747E+00
         21   -1    0    0  501  502  0.00000000000E+00  0.00000000000E+00  0.27507310195E+03  0.27507310195E+03  0.00000000000E+00 0. -1.
         21   -1    0    0  502  503 -0.00000000000E+00 -0.00000000000E+00 -0.18194605870E+03  0.18194605870E+03  0.00000000000E+00 0.  1.
         -6    2    1    2    0  503 -0.64667956492E+02  0.54039061860E+02  0.16844013367E+03  0.25548930156E+03  0.17262832844E+03 0.  0.
        -24    2    3    3    0    0 -0.44881822087E+02  0.92828521559E+02  0.70451510024E+02  0.14815816134E+03  0.79723980947E+02 0.  0.
          6    2    1    2  501    0  0.64667956492E+02 -0.54039061860E+02 -0.75313090415E+02  0.20152985909E+03  0.16685340186E+03 0.  0.
         24    2    5    5    0    0 -0.47729116375E+01  0.15986053844E+02 -0.45408195301E+02  0.98370061942E+02  0.85652964239E+02 0.  0.
          5    1    5    5  501    0  0.69440868130E+02 -0.70025115703E+02 -0.29904895115E+02  0.10315979715E+03  0.47000000000E+01 0. -1.
        -13    1    6    6    0    0  0.37605301706E+02  0.29580488920E+01 -0.37771518865E+02  0.53381611132E+02  0.00000000000E+00 0.  1.
         14    1    6    6    0    0 -0.42378213344E+02  0.13028004952E+02 -0.76366764353E+01  0.44988450809E+02  0.00000000000E+00 0. -1.
         -5    1    3    3    0  503 -0.19786134405E+02 -0.38789459700E+02  0.97988623642E+02  0.10733114022E+03  0.47000000000E+01 0.  1.
         11    1    4    4    0    0 -0.40792256364E+02  0.73277146842E+02  0.99617792012E+01  0.84455819654E+02  0.00000000000E+00 0. -1.
        -12    1    4    4    0    0 -0.40895657230E+01  0.19551374718E+02  0.60489730823E+02  0.63702341685E+02  0.00000000000E+00 0.  1.
</event>
<event>
12    1  0.8417180E-002  0.1916916E+03  0.7818608E-02  0.1157281E+00
         21   -1    0    0  503  502  0.00000000000E+00  0.00000000000E+00  0.31658692328E+03  0.31658692328E+03  0.00000000000E+00 0.  1.
         21   -1    0    0  501  503 -0.00000000000E+00 -0.00000000000E+00 -0.45066098631E+03  0.45066098631E+03  0.00000000000E+00 0.  1.
          6    2    1    2  501    0 -0.80257829389E+02 -0.20387033683E+02 -0.39796915227E+03  0.44107877597E+03  0.17121358046E+03 0.  0.
         24    2    3    3    0    0 -0.99229560717E+02 -0.58471331863E+02 -0.29912384100E+03  0.33336236164E+03  0.91596886025E+02 0.  0.
         -6    2    1    2    0  502  0.80257829389E+02  0.20387033683E+02  0.26389508924E+03  0.32616913361E+03  0.17288358880E+03 0.  0.
        -24    2    5    5    0    0  0.74958432954E+02 -0.12759517764E+01  0.27905722663E+03  0.29879489478E+03  0.76059573260E+02 0.  0.
          5    1    3    3  501    0  0.18971731328E+02  0.38084298180E+02 -0.98845311268E+02  0.10771641434E+03  0.47000000000E+01 0. -1.
        -13    1    4    4    0    0 -0.19644581325E+02 -0.26427103547E+02 -0.19812627157E+03  0.20084402122E+03  0.00000000000E+00 0.  1.
         14    1    4    4    0    0 -0.79584979392E+02 -0.32044228316E+02 -0.10099756944E+03  0.13251834041E+03  0.00000000000E+00 0. -1.
         -5    1    5    5    0  502  0.52993964349E+01  0.21662985459E+02 -0.15162137393E+02  0.27374238837E+02  0.47000000000E+01 0.  1.
         13    1    6    6    0    0  0.97404426670E+01 -0.71075561376E+00 -0.22532135620E+01  0.10022892210E+02  0.00000000000E+00 0. -1.
        -14    1    6    6    0    0  0.65217990287E+02 -0.56519616259E+00  0.28131044019E+03  0.28877200257E+03  0.00000000000E+00 0.  1.
</event>
<event>
12    1  0.8417180E-002  0.2552249E+03  0.7818608E-02  0.1110323E+00
         21   -1    0    0  501  502  0.00000000000E+00  0.00000000000E+00  0.35105853023E+03  0.35105853023E+03  0.00000000000E+00 0.  1.
         21   -1    0    0  502  503 -0.00000000000E+00 -0.00000000000E+00 -0.40953178824E+03  0.40953178824E+03  0.00000000000E+00 0.  1.
         -6    2    1    2    0  503  0.12072806103E+03  0.14057901303E+03 -0.31133855286E+03  0.40258099729E+03  0.17550510322E+03 0.  0.
        -24    2    3    3    0    0  0.75261843271E+02  0.16139026942E+03 -0.28625257592E+03  0.34644115771E+03  0.79810866552E+02 0.  0.
          6    2    1    2  501    0 -0.12072806103E+03 -0.14057901303E+03  0.25286529486E+03  0.35800932117E+03  0.17289329970E+03 0.  0.
         24    2    5    5    0    0 -0.11088441460E+03 -0.11886533219E+03  0.10813123480E+03  0.21124958742E+03  0.80682734519E+02 0.  0.
          5    1    5    5  501    0 -0.98436464296E+01 -0.21713680845E+02  0.14473406005E+03  0.14675973375E+03  0.47000000000E+01 0. -1.
        -11    1    6    6    0    0 -0.10245841388E+03 -0.63279451610E+02  0.50037687060E+02  0.13040623335E+03  0.00000000000E+00 0.  1.
         12    1    6    6    0    0 -0.84260007154E+01 -0.55585880580E+02  0.58093547741E+02  0.80843354069E+02  0.00000000000E+00 0. -1.
         -5    1    3    3    0  503  0.45466217757E+02 -0.20811256381E+02 -0.25085976949E+02  0.56139839587E+02  0.47000000000E+01 0.  1.
         13    1    4    4    0    0  0.25096924370E+01  0.30631394296E+02 -0.11494714786E+03  0.11898498928E+03  0.00000000000E+00 0. -1.
        -14    1    4    4    0    0  0.72752150834E+02  0.13075887512E+03 -0.17130542805E+03  0.22745616842E+03  0.00000000000E+00 0.  1.
</event>
<event>
12    1  0.8417180E-002  0.1764066E+03  0.7818608E-02  0.1171345E+00
         21   -1    0    0  501  502  0.00000000000E+00  0.00000000000E+00  0.26137631636E+03  0.26137631636E+03  0.00000000000E+00 0.  1.
         21   -1    0    0  502  503 -0.00000000000E+00 -0.00000000000E+00 -0.48104179229E+03  0.48104179229E+03  0.00000000000E+00 0.  1.
         -6    2    1    2    0  503 -0.14960326016E+02 -0.26610582423E+02 -0.43186012734E+03  0.46647273587E+03  0.17367126783E+03 0.  0.
        -24    2    3    3    0    0 -0.27283748988E+02 -0.73468751997E+02 -0.19504391607E+03  0.22470515588E+03  0.79424287261E+02 0.  0.
          6    2    1    2  501    0  0.14960326016E+02  0.26610582423E+02  0.21219465141E+03  0.27594537277E+03  0.17374505522E+03 0.  0.
         24    2    5    5    0    0 -0.26206552717E+02  0.11133631266E-01  0.40791088653E+02  0.97609975535E+02  0.84717240755E+02 0.  0.
          5    1    5    5  501    0  0.41166878733E+02  0.26599448792E+02  0.17140356276E+03  0.17833539724E+03  0.47000000000E+01 0. -1.
        -13    1    6    6    0    0 -0.29913034509E+02  0.25328399038E+02  0.55614677753E+02  0.68039031540E+02  0.00000000000E+00 0.  1.
         14    1    6    6    0    0  0.37064817918E+01 -0.25317265406E+02 -0.14823589100E+02  0.29570943995E+02  0.00000000000E+00 0. -1.
         -5    1    3    3    0  503  0.12323422973E+02  0.46858169573E+02 -0.23681621128E+03  0.24176757999E+03  0.47000000000E+01 0.  1.
         11    1    4    4    0    0 -0.43972171595E+02 -0.78702658244E+02 -0.18123927941E+03  0.20242365645E+03  0.00000000000E+00 0. -1.
        -12    1    4    4    0    0  0.16688422606E+02  0.52339062475E+01 -0.13804636651E+02  0.22281499428E+02  0.00000000000E+00 0.  1.
</event>
<event>
12    1  0.8417180E-002  0.2534943E+03  0.7818608E-02  0.1111200E+00
         21   -1    0    0  503  502  0.00000000000E+00  0.00000000000E+00  0.45619116316E+03  0.45619116316E+03  0.00000000000E+00 0. -1.
         21   -1    0    0  501  503 -0.00000000000E+00 -0.00000000000E+00 -0.14750274862E+03  0.14750274862E+03  0.00000000000E+00 0. -1.
          6    2    1    2  501    0 -0.16935979896E+03  0.73164564771E+02  0.21967114136E+03  0.33502411841E+03  0.17306055161E+03 0.  0.
         24    2    3    3    0    0 -0.78871999421E+02 -0.17996590911E+02  0.55944745743E+02  0.12687316166E+03  0.80139347371E+02 0.  0.
         -6    2    1    2    0  502  0.16935979896E+03 -0.73164564771E+02  0.89017273189E+02  0.26866979337E+03  0.17384932529E+03 0.  0.
        -24    2    5    5    0    0  0.17002901575E+03 -0.85260673515E+02  0.36948582183E+02  0.21500414066E+03  0.93179043422E+02 0.  0.
          5    1    3    3  501    0 -0.90487799543E+02  0.91161155682E+02  0.16372639562E+03  0.20815095674E+03  0.47000000000E+01 0. -1.
        -11    1    4    4    0    0 -0.61245631826E+02 -0.48189209248E+02  0.46129833465E+02  0.90560415421E+02  0.00000000000E+00 0.  1.
         12    1    4    4    0    0 -0.17626367596E+02  0.30192618337E+02  0.98149122781E+01  0.36312746243E+02  0.00000000000E+00 0. -1.
         -5    1    5    5    0  502 -0.66921678140E+00  0.12096108743E+02  0.52068691006E+02  0.53665652711E+02  0.47000000000E+01 0.  1.
         13    1    6    6    0    0  0.12470415266E+03 -0.79038758913E+02  0.65023604124E+02  0.16132674978E+03  0.00000000000E+00 0. -1.
        -14    1    6    6    0    0  0.45324863082E+02 -0.62219146015E+01 -0.28075021941E+02  0.53677390880E+02  0.00000000000E+00 0.  1.
</event>
<event>
12    1  0.8417180E-002  0.2205320E+03  0.7818608E-02  0.1133665E+00
         21   -1    0    0  503  502  0.00000000000E+00  0.00000000000E+00  0.22004515977E+03  0.22004515977E+03  0.00000000000E+00 0. -1.
         21   -1    0    0  501  503 -0.00000000000E+00 -0.00000000000E+00 -0.23849582111E+03  0.23849582111E+03  0.00000000000E+00 0.  1.
          6    2    1    2  501    0  0.13481950217E+03  0.27827979241E+02 -0.72981734126E+02  0.23229443795E+03  0.17228951736E+03 0.  0.
         24    2    3    3    0    0  0.63061209633E+02 -0.31957242188E+02 -0.85334762596E+02  0.13796410051E+03  0.82183269784E+02 0.  0.
         -6    2    1    2    0  502 -0.13481950217E+03 -0.27827979241E+02  0.54531072783E+02  0.22624654293E+03  0.17106479970E+03 0.  0.
        -24    2    5    5    0    0 -0.83020550708E+02 -0.27723794912E+01  0.10023743549E+03  0.15261179540E+03  0.79641187181E+02 0.  0.
          5    1    3    3  501    0  0.71758292541E+02  0.59785221429E+02  0.12353028469E+02  0.94330337443E+02  0.47000000000E+01 0. -1.
        -13    1    4    4    0    0  0.29749313789E+02  0.82486777869E+01 -0.79673013645E+02  0.85445020097E+02  0.00000000000E+00 0.  1.
         14    1    4    4    0    0  0.33311895844E+02 -0.40205919975E+02 -0.56617489507E+01  0.52519080408E+02  0.00000000000E+00 0. -1.
         -5    1    5    5    0  502 -0.51798951466E+02 -0.25055599750E+02 -0.45706362705E+02  0.73634747528E+02  0.47000000000E+01 0.  1.
         13    1    6    6    0    0 -0.30765703038E+02 -0.16527621203E+02  0.91417981340E+02  0.97861831468E+02  0.00000000000E+00 0. -1.
        -14    1    6    6    0    0 -0.52254847670E+02  0.13755241712E+02  0.88194541474E+01  0.54749963936E+02  0.00000000000E+00 0.  1.
</event>
<event>
12    1  0.8417180E-002  0.1948396E+03  0.7818608E-02  0.1154187E+00
         21   -1    0    0  501  502  0.00000000000E+00  0.00000000000E+00  0.20733041174E+03  0.20733041174E+03  0.00000000000E+00 0. -1.
         21   -1    0    0  502  503 -0.00000000000E+00 -0.00000000000E+00 -0.65018333052E+03  0.65018333052E+03  0.00000000000E+00 0. -1.
         -6    2    1    2    0  503 -0.88758340521E+02 -0.20813712749E+02 -0.58484855839E+03  0.61642199428E+03  0.17209586029E+03 0.  0.
        -24    2    3    3    0    0 -0.81236559192E+02  0.20191495808E+02 -0.23767444968E+03  0.26672218576E+03  0.87432861621E+02 0.  0.
          6    2    1    2  501    0  0.88758340521E+02  0.20813712749E+02  0.14199563960E+03  0.24109174798E+03  0.17219528340E+03 0.  0.
         24    2    5    5    0    0  0.41638892035E+00  0.52865268827E+02  0.99598611119E+02  0.13788709361E+03  0.79360300013E+02 0.  0.
          5    1    5    5  501    0  0.88341951600E+02 -0.32051556078E+02  0.42397028486E+02  0.10320465437E+03  0.47000000000E+01 0. -1.
        -11    1    6    6    0    0 -0.19191162999E+02  0.38648832894E+02  0.89641408810E+01  0.44072540692E+02  0.00000000000E+00 0.  1.
         12    1    6    6    0    0  0.19607551920E+02  0.14216435933E+02  0.90634470238E+02  0.93814552913E+02  0.00000000000E+00 0. -1.
         -5    1    3    3    0  503 -0.75217813285E+01 -0.41005208557E+02 -0.34717410871E+03  0.34969980852E+03  0.47000000000E+01 0.  1.
         13    1    4    4    0    0 -0.29834619420E+02 -0.66235624020E+01 -0.18772596139E+03  0.19019729933E+03  0.00000000000E+00 0. -1.
        -14    1    4    4    0    0 -0.51401939772E+02  0.26815058210E+02 -0.49948488290E+02  0.76524886420E+02  0.00000000000E+00 0.  1.
</event>
<event>
12    1  0.8417180E-002  0.1821359E+03  0.7818608E-02  0.1165936E+00
         21   -1    0    0  501  502  0.00000000000E+00  0.00000000000E+00  0.39156545062E+03  0.39156545062E+03  0.00000000000E+00 0.  1.
         21   -1    0    0  502  503 -0.00000000000E+00 -0.00000000000E+00 -0.44173508485E+03  0.44173508485E+03  0.00000000000E+00 0.  1.
         -6    2    1    2    0  503 -0.55233392314E+01  0.57178942423E+02 -0.39985311355E+03  0.43938139385E+03  0.17283968904E+03 0.  0.
        -24    2    3    3    0    0 -0.51296447684E+02 -0.74999809622E+01 -0.15868685136E+03  0.18548811586E+03  0.80850164321E+02 0.  0.
          6    2    1    2  501    0  0.55233392314E+01 -0.57178942423E+02  0.34968347932E+03  0.39391914162E+03  0.17202853163E+03 0.  0.
         24    2    5    5    0    0  0.64173957502E+02 -0.41880911016E+02  0.28225806744E+03  0.30313257348E+03  0.79670778453E+02 0.  0.
          5    1    5    5  501    0 -0.58650618270E+02 -0.15298031407E+02  0.67425411874E+02  0.90786568141E+02  0.47000000000E+01 0. -1.
        -11    1    6    6    0    0 -0.47812969846E+01  0.11312979149E+02  0.10416292764E+03  0.10488450692E+03  0.00000000000E+00 0.  1.
         12    1    6    6    0    0  0.68955254486E+02 -0.53193890165E+02  0.17809513980E+03  0.19824806656E+03  0.00000000000E+00 0. -1.
         -5    1    3    3    0  503  0.45773108453E+02  0.64678923385E+02 -0.24116626220E+03  0.25389327799E+03  0.47000000000E+01 0.  1.
         11    1    4    4    0    0  0.75368811771E+01  0.24235610656E+02 -0.23102036292E+02  0.34320161459E+02  0.00000000000E+00 0. -1.
        -12    1    4    4    0    0 -0.58833328861E+02 -0.31735591618E+02 -0.13558481507E+03  0.15116795440E+03  0.00000000000E+00 0.  1.
</event>
<event>
12    1  0.8417180E-002  0.2403961E+03  0.7818608E-02  0.1119906E+00
         21   -1    0    0  501  502  0.00000000000E+00  0.00000000000E+00  0.21557447246E+03  0.21557447246E+03  0.00000000000E+00 0. -1.
         21   -1    0    0  502  503 -0.00000000000E+00 -0.00000000000E+00 -0.29357288463E+03  0.29357288463E+03  0.00000000000E+00 0. -1.
         -6    2    1    2    0  503 -0.85755949987E+02 -0.14063750933E+03 -0.11746044896E+03  0.26553381385E+03  0.17198330512E+03 0.  0.
        -24    2    3    3    0    0  0.45590567659E+01 -0.95999923714E+02 -0.10662025028E+03  0.16409952772E+03  0.79523624655E+02 0.  0.
          6    2    1    2  501    0  0.85755949987E+02  0.14063750933E+03  0.39462036792E+02  0.24361354324E+03  0.17509230170E+03 0.  0.
         24    2    5    5    0    0  0.44098295516E+02  0.89133869359E+02  0.93713145894E+02  0.15786240363E+03  0.79049847764E+02 0.  0.
          5    1    5    5  501    0  0.41657654470E+02  0.51503639970E+02 -0.54251109101E+02  0.85751139613E+02  0.47000000000E+01 0. -1.
        -11    1    6    6    0    0  0.18159427974E+02 -0.73095045148E+01 -0.18164921613E+01  0.19659433470E+02  0.00000000000E+00 0.  1.
         12    1    6    6    0    0  0.25938867542E+02  0.96443373874E+02  0.95529638055E+02  0.13820297016E+03  0.00000000000E+00 0. -1.
         -5    1    3    3    0  503 -0.90315006752E+02 -0.44637585616E+02 -0.10840198682E+02  0.10143428613E+03  0.47000000000E+01 0.  1.
         13    1    4    4    0    0  0.22338583149E+02 -0.17283545024E+02  0.25292025694E+01  0.28357187648E+02  0.00000000000E+00 0. -1.
        -14    1    4    4    0    0 -0.17779526383E+02 -0.78716378690E+02 -0.10914945284E+03  0.13574234007E+03  0.00000000000E+00 0.  1.
</event>
<event>
12    1  0.8417180E-002  0.1762488E+03  0.7818608E-02  0.1171547E+00
         21   -1    0    0  503  502  0.00000000000E+00  0.00000000000E+00  0.40657229198E+03  0.40657229198E+03  0.00000000000E+00 0. -1.
         21   -1    0    0  501  503 -0.00000000000E+00 -0.00000000000E+00 -0.77008650923E+03  0.77008650923E+03  0.00000000000E+00 0. -1.
          6    2    1    2  501    0 -0.25536306982E+02 -0.24063299039E+02 -0.74017003347E+03  0.76080638354E+03  0.17246312490E+03 0.  0.
         24    2    3    3    0    0  0.24757755687E+02 -0.34881061023E+02 -0.14101716417E+03  0.15943065447E+03  0.60849470923E+02 0.  0.
         -6    2    1    2    0  502  0.25536306982E+02  0.24063299039E+02  0.37665581623E+03  0.41585241767E+03  0.17272082690E+03 0.  0.
        -24    2    5    5    0    0  0.31559828823E+02  0.77011004511E+02  0.21815203267E+03  0.24856439738E+03  0.85248065517E+02 0.  0.
          5    1    3    3  501    0 -0.50294062669E+02  0.10817761984E+02 -0.59915286931E+03  0.60137572907E+03  0.47000000000E+01 0. -1.
        -11    1    4    4    0    0 -0.10482724414E+02 -0.16543110081E+02 -0.89775146172E+01  0.21544321084E+02  0.00000000000E+00 0.  1.
         12    1    4    4    0    0  0.35240480100E+02 -0.18337950942E+02 -0.13203964955E+03  0.13788633339E+03  0.00000000000E+00 0. -1.
         -5    1    5    5    0  502 -0.60235218411E+01 -0.52947705472E+02  0.15850378355E+03  0.16728802028E+03  0.47000000000E+01 0.  1.
         11    1    6    6    0    0  0.12374718897E+02  0.91235638857E+02  0.19324036879E+03  0.21405353442E+03  0.00000000000E+00 0. -1.
        -12    1    6    6    0    0  0.19185109926E+02 -0.14224634347E+02  0.24911663884E+02  0.34510862965E+02  0.00000000000E+00 0.  1.
</event>
<event>
12    1  0.8417180E-002  0.1831749E+03  0.7818608E-02  0.1164926E+00
         21   -1    0    0  501  502  0.00000000000E+00  0.00000000000E+00  0.56366956383E+03  0.56366956383E+03  0.00000000000E+00 0.  1.
         21   -1    0    0  502  503 -0.00000000000E+00 -0.00000000000E+00 -0.76035714181E+02  0.76035714181E+02  0.00000000000E+00 0.  1.
         -6    2    1    2    0  503 -0.52319899416E+02  0.32001916988E+02  0.93429435382E+02  0.20502129042E+03  0.17188128335E+03 0.  0.
        -24    2    3    3    0    0 -0.76445654230E+02  0.46706621227E+02  0.12999729427E+02  0.11964384626E+03  0.78231774013E+02 0.  0.
          6    2    1    2  501    0  0.52319899416E+02 -0.32001916988E+02  0.39420441427E+03  0.43468398759E+03  0.17260230089E+03 0.  0.
         24    2    5    5    0    0  0.80890410708E+02  0.27394194465E+02  0.24134424286E+03  0.26815322714E+03  0.79783514791E+02 0.  0.
          5    1    5    5  501    0 -0.28570511292E+02 -0.59396111453E+02  0.15286017141E+03  0.16653076045E+03  0.47000000000E+01 0. -1.
        -11    1    6    6    0    0  0.38751299770E+02  0.48163451957E+02  0.18351105109E+03  0.19364319562E+03  0.00000000000E+00 0.  1.
         12    1    6    6    0    0  0.42139110939E+02 -0.20769257493E+02  0.57833191767E+02  0.74510031522E+02  0.00000000000E+00 0. -1.
         -5    1    3    3    0  503  0.24125754814E+02 -0.14704704239E+02  0.80429705954E+02  0.85377444164E+02  0.47000000000E+01 0.  1.
         11    1    4    4    0    0 -0.19181240638E+02 -0.47133187839E+01  0.34482894924E+02  0.39739217515E+02  0.00000000000E+00 0. -1.
        -12    1    4    4    0    0 -0.57264413592E+02  0.51419940011E+02 -0.21483165497E+02  0.79904628743E+02  0.00000000000E+00 0.  1.
</event>
<event>
12    1  0.8417180E-002  0.2132523E+03  0.7818608E-02  0.1139159E+00
         21   -1    0    0  501  502  0.00000000000E+00  0.00000000000E+00  0.72049257809E+03  0.72049257809E+03  0.00000000000E+00 0.  1.
         21   -1    0    0  502  503 -0.00000000000E+00 -0.00000000000E+00 -0.95488524406E+02  0.95488524406E+02  0.00000000000E+00 0. -1.
         -6    2    1    2    0  503  0.19362868220E+02  0.12183393297E+03  0.74518485836E+02  0.22589718067E+03  0.17394856600E+03 0.  0.
        -24    2    3    3    0    0  0.33976616946E+02  0.65786005037E+02 -0.22333619289E+02  0.11294873161E+03  0.82318992124E+02 0.  0.
          6    2    1    2  501    0 -0.19362868220E+02 -0.12183393297E+03  0.55048556785E+03  0.59008392182E+03  0.17304983819E+03 0.  0.
         24    2    5    5    0    0  0.21277268190E+02 -0.67487306872E+02  0.48211244080E+03  0.49363626266E+03  0.78975284170E+02 0.  0.
          5    1    5    5  501    0 -0.40640136409E+02 -0.54346626102E+02  0.68373127052E+02  0.96447659168E+02  0.47000000000E+01 0. -1.
        -11    1    6    6    0    0 -0.11048180095E+02  0.14089098193E+02  0.98725246108E+02  0.10033563270E+03  0.00000000000E+00 0.  1.
         12    1    6    6    0    0  0.32325448284E+02 -0.81576405065E+02  0.38338719469E+03  0.39330062995E+03  0.00000000000E+00 0. -1.
         -5    1    3    3    0  503 -0.14613748726E+02  0.56047927937E+02  0.96852105125E+02  0.11294844906E+03  0.47000000000E+01 0.  1.
         11    1    4    4    0    0 -0.66617487455E+01 -0.16694920797E+02 -0.87857633195E+01  0.20007221543E+02  0.00000000000E+00 0. -1.
        -12    1    4    4    0    0  0.40638365692E+02  0.82480925834E+02 -0.13547855970E+02  0.92941510069E+02  0.00000000000E+00 0.  1.
</event>
<event>
12    1  0.8417180E-002  0.1913071E+03  0.7818608E-02  0.1157329E+00
         21   -1    0    0  503  502  0.00000000000E+00  0.00000000000E+00  0.15218744884E+03  0.15218744884E+03  0.00000000000E+00 0.  1.
         21   -1    0    0  501  503 -0.00000000000E+00 -0.00000000000E+00 -0.35950893369E+03  0.35950893369E+03  0.00000000000E+00 0.  1.
          6    2    1    2  501    0  0.32116303822E+01 -0.84015335025E+02 -0.25105287153E+03  0.31563579980E+03  0.17184156284E+03 0.  0.
         24    2    3    3    0    0 -0.39690542816E+02 -0.82846620713E+01 -0.67361106528E+02  0.11231220102E+03  0.80203098504E+02 0.  0.
         -6    2    1    2    0  502 -0.32116303822E+01  0.84015335025E+02  0.43731386683E+02  0.19606058274E+03  0.17163457354E+03 0.  0.
        -24    2    5    5    0    0 -0.35334440870E+02  0.10339898828E+03  0.70883103075E+02  0.14951053795E+03  0.73410579395E+02 0.  0.
          5    1    3    3  501    0  0.42902173198E+02 -0.75730672954E+02 -0.18369176500E+03  0.20332359878E+03  0.47000000000E+01 0. -1.
        -13    1    4    4    0    0 -0.23452725117E+02  0.21139633857E+02 -0.71778272002E+02  0.78415781362E+02  0.00000000000E+00 0.  1.
         14    1    4    4    0    0 -0.16237817699E+02 -0.29424295928E+02  0.44171654745E+01  0.33896419654E+02  0.00000000000E+00 0. -1.
         -5    1    5    5    0  502  0.32122810488E+02 -0.19383653254E+02 -0.27151716393E+02  0.46550044792E+02  0.47000000000E+01 0.  1.
         11    1    6    6    0    0 -0.43617525611E+02  0.23082181040E+02  0.15986789841E+02  0.51873433194E+02  0.00000000000E+00 0. -1.
        -12    1    6    6    0    0  0.82830847405E+01  0.80316807239E+02  0.54896313234E+02  0.97637104753E+02  0.00000000000E+00 0.  1.
</event>
<event>
12    1  0.8417180E-002  0.1788827E+03  0.7818608E-02  0.1169389E+00
         21   -1    0    0  503  502  0.00000000000E+00  0.00000000000E+00  0.98829940309E+03  0.98829940309E+03  0.00000000000E+00 0.  1.
         21   -1    0    0  501  503 -0.00000000000E+00 -0.00000000000E+00 -0.28061894907E+03  0.28061894907E+03  0.00000000000E+00 0. -1.
          6    2    1    2  501    0 -0.44547227460E+02 -0.17475991534E+02 -0.24356763268E+03  0.30099690406E+03  0.17024711101E+03 0.  0.
         24    2    3    3    0    0  0.35407055837E+02 -0.16819149625E+02 -0.17123455893E+03  0.19307432803E+03  0.80124144762E+02 0.  0.
         -6    2    1    2    0  502  0.44547227460E+02  0.17475991534E+02  0.95124808670E+03  0.96792144810E+03  0.17236339947E+03 0.  0.
        -24    2    5    5    0    0  0.17806417949E+02  0.60056819365E+02  0.34504301019E+03  0.35961652244E+03  0.79658485151E+02 0.  0.
          5    1    3    3  501    0 -0.79954283297E+02 -0.65684190900E+00 -0.72333073752E+02  0.10792257603E+03  0.47000000000E+01 0. -1.
        -13    1    4    4    0    0  0.32137126658E+02  0.27718415875E+02 -0.62711415167E+02  0.75722038276E+02  0.00000000000E+00 0.  1.
         14    1    4    4    0    0  0.32699291790E+01 -0.44537565500E+02 -0.10852314377E+03  0.11735228975E+03  0.00000000000E+00 0. -1.
         -5    1    5    5    0  502  0.26740809512E+02 -0.42580827831E+02  0.60620507651E+03  0.60830492566E+03  0.47000000000E+01 0.  1.
         13    1    6    6    0    0  0.41672558612E+02  0.31176399701E+02  0.27786941455E+03  0.28270122317E+03  0.00000000000E+00 0. -1.
        -14    1    6    6    0    0 -0.23866140663E+02  0.28880419664E+02  0.67173595639E+02  0.76915299266E+02  0.00000000000E+00 0.  1.
</event>
<event>
12    1  0.8417180E-002  0.1766417E+03  0.7818608E-02  0.1171488E+00
         21   -1    0    0  501  502  0.00000000000E+00  0.00000000000E+00  0.71009277997E+02  0.71009277997E+02  0.00000000000E+00 0. -1.
         21   -1    0    0  502  503 -0.00000000000E+00 -0.00000000000E+00 -0.81223063403E+03  0.81223063403E+03  0.00000000000E+00 0. -1.
         -6    2    1    2    0  503 -0.35018769507E+02  0.10674524560E+02 -0.67227464568E+03  0.69509388103E+03  0.17280637870E+03 0.  0.
        -24    2    3    3    0    0 -0.38368744751E+02  0.62066539819E+02 -0.57602978841E+03  0.58583490373E+03  0.77896093377E+02 0.  0.
          6    2    1    2  501    0  0.35018769507E+02 -0.10674524560E+02 -0.68946710346E+02  0.18814603100E+03  0.17118709186E+03 0.  0.
         24    2    5    5    0    0  0.51456177507E+02 -0.26502102086E+02 -0.10534747403E+03  0.14492790762E+03  0.80968564907E+02 0.  0.
          5    1    5    5  501    0 -0.16437408000E+02  0.15827577525E+02  0.36400763682E+02  0.43218123383E+02  0.47000000000E+01 0. -1.
        -11    1    6    6    0    0 -0.17509702772E+02  0.84802276147E+01 -0.36633184395E+02  0.41478839792E+02  0.00000000000E+00 0.  1.
         12    1    6    6    0    0  0.68965880278E+02 -0.34982329700E+02 -0.68714289633E+02  0.10344906782E+03  0.00000000000E+00 0. -1.
         -5    1    3    3    0  503  0.33499752442E+01 -0.51392015259E+02 -0.96244857277E+02  0.10925897729E+03  0.47000000000E+01 0.  1.
         13    1    4    4    0    0 -0.43958339204E+02  0.17485179738E+02 -0.44090982285E+03  0.44344056984E+03  0.00000000000E+00 0. -1.
        -14    1    4    4    0    0  0.55895944531E+01  0.44581360080E+02 -0.13511996555E+03  0.14239433389E+03  0.00000000000E+00 0.  1.
</event>
<event>
12    1  0.8417180E-002  0.1806200E+03  0.7818608E-02  0.1168221E+00
         21   -1    0    0  503  502  0.00000000000E+00  0.00000000000E+00  0.68070801444E+03  0.68070801444E+03  0.00000000000E+00 0. -1.
         21   -1    0    0  501  503 -0.00000000000E+00 -0.00000000000E+00 -0.52688582849E+02  0.52688582849E+02  0.00000000000E+00 0. -1.
          6    2    1    2  501    0  0.29582040767E+02  0.47146930702E+02  0.19495781935E+03  0.26576705805E+03  0.17183028722E+03 0.  0.
         24    2    3    3    0    0 -0.23047208620E+02  0.15484482137E+02  0.48851191526E+02  0.10720607535E+03  0.91300386996E+02 0.  0.
         -6    2    1    2    0  502 -0.29582040767E+02 -0.47146930702E+02  0.43306161224E+03  0.46762953924E+03  0.16744281342E+03 0.  0.
        -24    2    5    5    0    0 -0.54067430393E+02 -0.86473929477E+02  0.29432713439E+03  0.32128920822E+03  0.78722714482E+02 0.  0.
          5    1    3    3  501    0  0.52629249387E+02  0.31662448564E+02  0.14610662783E+03  0.15856098270E+03  0.47000000000E+01 0. -1.
        -11    1    4    4    0    0 -0.46213570578E+02 -0.77838424577E+01  0.56586131758E+02  0.73472937986E+02  0.00000000000E+00 0.  1.
         12    1    4    4    0    0  0.23166361958E+02  0.23268324595E+02 -0.77349402325E+01  0.33733137361E+02  0.00000000000E+00 0. -1.
         -5    1    5    5    0  502  0.24485389626E+02  0.39326998776E+02  0.13873447785E+03  0.14634033102E+03  0.47000000000E+01 0.  1.
         11    1    6    6    0    0  0.17444857607E+02 -0.10453288468E+02  0.23676076287E+02  0.31211390310E+02  0.00000000000E+00 0. -1.
        -12    1    6    6    0    0 -0.71512288000E+02 -0.76020641009E+02  0.27065105810E+03  0.29007781791E+03  0.00000000000E+00 0.  1.
</event>
<event>
12    1  0.8417180E-002  0.2437640E+03  0.7818608E-02  0.1117535E+00
         21   -1    0    0  501  502  0.00000000000E+00  0.00000000000E+00  0.87204489977E+02  0.87204489977E+02  0.00000000000E+00 0.  1.
         21   -1    0    0  502  503 -0.00000000000E+00 -0.00000000000E+00 -0.75818621036E+03  0.75818621036E+03  0.00000000000E+00 0.  1.
         -6    2    1    2    0  503 -0.12957577161E+03  0.11287348521E+03 -0.47247725817E+03  0.53102639851E+03  0.17095020379E+03 0.  0.
        -24    2    3    3    0    0 -0.47188781184E+02  0.85044158589E+02 -0.14468469321E+03  0.19186251002E+03  0.80114120625E+02 0.  0.
          6    2    1    2  501    0  0.12957577161E+03 -0.11287348521E+03 -0.19850446221E+03  0.31436430182E+03  0.17288894844E+03 0.  0.
         24    2    5    5    0    0  0.37174794499E+02 -0.30399562351E+02 -0.15801040218E+03  0.18397355284E+03  0.81073313800E+02 0.  0.
          5    1    5    5  501    0  0.92400977108E+02 -0.82473922863E+02 -0.40494060033E+02  0.13039074899E+03  0.47000000000E+01 0. -1.
        -11    1    6    6    0    0  0.17852169927E+02 -0.30484706283E+01  0.39926909028E+01  0.18545477209E+02  0.00000000000E+00 0.  1.
         12    1    6    6    0    0  0.19322624572E+02 -0.27351091722E+02 -0.16200309308E+03  0.16542807563E+03  0.00000000000E+00 0. -1.
         -5    1    3    3    0  503 -0.82386990423E+02  0.27829326625E+02 -0.32779256496E+03  0.33916388849E+03  0.47000000000E+01 0.  1.
         13    1    4    4    0    0  0.74061886120E+01  0.64366313303E+02 -0.55729869031E+02  0.85461641806E+02  0.00000000000E+00 0. -1.
        -14    1    4    4    0    0 -0.54594969796E+02  0.20677845285E+02 -0.88954824178E+02  0.10640086822E+03  0.00000000000E+00 0.  1.
</event>
<event>
12    1  0.8417180E-002  0.2079119E+03  0.7818608E-02  0.1143315E+00
         21   -1    0    0  503  502  0.00000000000E+00  0.00000000000E+00  0.11196485116E+03  0.11196485116E+03  0.00000000000E+00 0. -1.
         21   -1    0    0  501  503 -0.00000000000E+00 -0.00000000000E+00 -0.50671279788E+03  0.50671279788E+03  0.00000000000E+00 0. -1.
          6    2    1    2  501    0  0.39456122703E+02 -0.10798148679E+03 -0.34864547476E+03  0.40571565984E+03  0.17272736454E+03 0.  0.
         24    2    3    3    0    0 -0.15649693972E+02 -0.10978398547E+03 -0.17088332253E+03  0.21954000945E+03  0.81849065018E+02 0.  0.
         -6    2    1    2    0  502 -0.39456122703E+02  0.10798148679E+03 -0.46102471968E+02  0.21296198920E+03  0.17323563090E+03 0.  0.
        -24    2    5    5    0    0 -0.67966003886E+02  0.91747584055E+02 -0.83913861756E+02  0.16268133565E+03  0.79916731106E+02 0.  0.
          5    1    3    3  501    0  0.55105816675E+02  0.18024986739E+01 -0.17776215223E+03  0.18617565039E+03  0.47000000000E+01 0. -1.
        -11    1    4    4    0    0  0.13408221816E+02 -0.25493481584E+02 -0.23800437724E+01  0.28902640431E+02  0.00000000000E+00 0.  1.
         12    1    4    4    0    0 -0.29057915788E+02 -0.84290503884E+02 -0.16850327875E+03  0.19063736902E+03  0.00000000000E+00 0. -1.
         -5    1    5    5    0  502  0.28509881183E+02  0.16233902739E+02  0.37811389788E+02  0.50280653545E+02  0.47000000000E+01 0.  1.
         11    1    6    6    0    0 -0.26180986139E+02  0.83312434704E+02 -0.26673726006E+02  0.91312066402E+02  0.00000000000E+00 0. -1.
        -12    1    6    6    0    0 -0.41785017748E+02  0.84351493513E+01 -0.57240135750E+02  0.71369269251E+02  0.00000000000E+00 0.  1.
</event>
<event>
12    1  0.8417180E-002  0.2980120E+03  0.7818608E-02  0.1086267E+00
         21   -1    0    0  501  502  0.00000000000E+00  0.00000000000E+00  0.64566914447E+03  0.64566914447E+03  0.00000000000E+00 0. -1.
         21   -1    0    0  502  503 -0.00000000000E+00 -0.00000000000E+00 -0.14163939881E+03  0.14163939881E+03  0.00000000000E+00 0.  1.
         -6    2    1    2    0  503  0.14953957348E+03  0.19150811995E+03  0.18437512066E+03  0.35043590214E+03  0.17255055011E+03 0.  0.
        -24    2    3    3    0    0  0.14273452345E+03  0.10402935160E+03  0.17509410090E+03  0.26207827119E+03  0.82654860000E+02 0.  0.
          6    2    1    2  501    0 -0.14953957348E+03 -0.19150811995E+03  0.31965462501E+03  0.43687264114E+03  0.17216614429E+03 0.  0.
         24    2    5    5    0    0 -0.46716582962E+02 -0.36706723157E+02  0.53782821710E+02  0.11245632586E+03  0.78892399293E+02 0.  0.
          5    1    5    5  501    0 -0.10282299052E+03 -0.15480139679E+03  0.26587180330E+03  0.32441631528E+03  0.47000000000E+01 0. -1.
        -13    1    6    6    0    0 -0.55648142543E+02 -0.52528937230E+02  0.29241245322E+02  0.81921031750E+02  0.00000000000E+00 0.  1.
         14    1    6    6    0    0  0.89315595816E+01  0.15822214073E+02  0.24541576389E+02  0.30535294110E+02  0.00000000000E+00 0. -1.
         -5    1    3    3    0  503  0.68050500367E+01  0.87478768355E+02  0.92810197516E+01  0.88357630947E+02  0.47000000000E+01 0.  1.
         13    1    4    4    0    0  0.13099053800E+03  0.11825030760E+03  0.15610106132E+03  0.23560389988E+03  0.00000000000E+00 0. -1.
        -14    1    4    4    0    0  0.11743985448E+02 -0.14220956001E+02  0.18993039583E+02  0.26474371313E+02  0.00000000000E+00 0.  1.
</event>
<event>
12    1  0.8417180E-002  0.2056306E+03  0.7818608E-02  0.1146676E+00
         21   -1    0    0  503  502  0.00000000000E+00  0.00000000000E+00  0.63582949063E+03  0.63582949063E+03  0.00000000000E+00 0. -1.
         21   -1    0    0  501  503 -0.00000000000E+00 -0.00000000000E+00 -0.28588952730E+03  0.28588952730E+03  0.00000000000E+00 0.  1.
          6    2    1    2  501    0  0.83484246207E+02  0.79431355576E+02 -0.23024772969E+03  0.30870365999E+03  0.17030846442E+03 0.  0.
         24    2    3    3    0    0 -0.89486141985E+01  0.23489600188E+01 -0.59252471280E+02  0.99545830146E+02  0.79453896300E+02 0.  0.
         -6    2    1    2    0  502 -0.83484246207E+02 -0.79431355576E+02  0.58018769301E+03  0.61301535794E+03  0.16090714818E+03 0.  0.
        -24    2    5    5    0    0 -0.13323671923E+02 -0.10184084556E+03  0.33293128328E+03  0.35497948141E+03  0.67956712514E+02 0.  0.
          5    1    3    3  501    0  0.92432860405E+02  0.77082395557E+02 -0.17099525841E+03  0.20915782984E+03  0.47000000000E+01 0. -1.
        -13    1    4    4    0    0 -0.16981622138E+02 -0.32053463436E+02 -0.52127761286E+02  0.63506720159E+02  0.00000000000E+00 0.  1.
         14    1    4    4    0    0  0.80330079391E+01  0.34402423455E+02 -0.71247099945E+01  0.36039109987E+02  0.00000000000E+00 0. -1.
         -5    1    5    5    0  502 -0.70160574284E+02  0.22409489984E+02  0.24725640973E+03  0.25803587653E+03  0.47000000000E+01 0.  1.
         13    1    6    6    0    0 -0.19237389642E+02 -0.17537583327E+02  0.16437844239E+03  0.16642690982E+03  0.00000000000E+00 0. -1.
        -14    1    6    6    0    0  0.59137177191E+01 -0.84303262233E+02  0.16855284088E+03  0.18855257158E+03  0.00000000000E+00 0.  1.
</event>
<event>
12    1  0.8417180E-002  0.2210228E+03  0.7818608E-02  0.1133420E+00
         21   -1    0    0  501  502  0.00000000000E+00  0.00000000000E+00  0.14556886589E+03  0.14556886589E+03  0.00000000000E+00 0.  1.
         21   -1    0    0  502  503 -0.00000000000E+00 -0.00000000000E+00 -0.34285312677E+03  0.34285312677E+03  0.00000000000E+00 0.  1.
         -6    2    1    2    0  503 -0.27210203940E+02 -0.13502850701E+03 -0.57252996157E+02  0.22677366044E+03  0.17080777089E+03 0.  0.
        -24    2    3    3    0    0  0.34787117308E+02 -0.20497673545E+02 -0.26595389262E+02  0.92897006328E+02  0.79323646559E+02 0.  0.
          6    2    1    2  501    0  0.27210203940E+02  0.13502850701E+03 -0.14003126472E+03  0.26164833223E+03  0.17285254339E+03 0.  0.
         24    2    5    5    0    0 -0.26179473571E+02  0.14214001806E+03 -0.11861452120E+03  0.20349510225E+03  0.80322490184E+02 0.  0.
          5    1    5    5  501    0  0.53389677510E+02 -0.71115110504E+01 -0.21416743517E+02  0.58153229979E+02  0.47000000000E+01 0. -1.
        -11    1    6    6    0    0 -0.26783286109E+02  0.14000943241E+03 -0.12937796230E+03  0.19250621472E+03  0.00000000000E+00 0.  1.
         12    1    6    6    0    0  0.60381253865E+00  0.21305856503E+01  0.10763441098E+02  0.10988887526E+02  0.00000000000E+00 0. -1.
         -5    1    3    3    0  503 -0.61997321248E+02 -0.11453083346E+03 -0.30657606896E+02  0.13387665411E+03  0.47000000000E+01 0.  1.
         13    1    4    4    0    0  0.12095058962E+01  0.51013778801E+01  0.25389639117E+02  0.25925291421E+02  0.00000000000E+00 0. -1.
        -14    1    4    4    0    0  0.33577611412E+02 -0.25599051425E+02 -0.51985028379E+02  0.66971714907E+02  0.00000000000E+00 0.  1.
</event>
<event>
12    1  0.8417180E-002  0.2040482E+03  0.7818608E-02  0.1146379E+00
         21   -1    0    0  501  502  0.00000000000E+00  0.00000000000E+00  0.31887468715E+03  0.31887468715E+03  0.00000000000E+00 0. -1.
         21   -1    0    0  502  503 -0.00000000000E+00 -0.00000000000E+00 -0.26448729152E+03  0.26448729152E+03  0.00000000000E+00 0. -1.
         -6    2    1    2    0  503 -0.10470472662E+03  0.33380986536E+02 -0.18038249432E+03  0.27234813974E+03  0.17192525971E+03 0.  0.
        -24    2    3    3    0    0 -0.11815575602E+03  0.31865710361E+02 -0.62869049700E+02  0.15396433206E+03  0.69110722460E+02 0.  0.
          6    2    1    2  501    0  0.10470472662E+03 -0.33380986536E+02  0.23476988995E+03  0.31101383893E+03  0.17185847882E+03 0.  0.
         24    2    5    5    0    0  0.72300655355E+02 -0.19403134010E+02  0.32260662643E+02  0.10539895295E+03  0.66815586160E+02 0.  0.
          5    1    5    5  501    0  0.32404071261E+02 -0.13977852526E+02  0.20250922731E+03  0.20561488599E+03  0.47000000000E+01 0. -1.
        -13    1    6    6    0    0  0.37988927112E+02  0.16318416260E+02 -0.73292456910E+01  0.41990083767E+02  0.00000000000E+00 0.  1.
         14    1    6    6    0    0  0.34311728243E+02 -0.35721550270E+02  0.39589908334E+02  0.63408869179E+02  0.00000000000E+00 0. -1.
         -5    1    3    3    0  503  0.13451029406E+02  0.15152761745E+01 -0.11751344462E+03  0.11838380768E+03  0.47000000000E+01 0.  1.
         13    1    4    4    0    0 -0.52265900288E+02  0.49468467711E+02 -0.26628825906E+02  0.76732965534E+02  0.00000000000E+00 0. -1.
        -14    1    4    4    0    0 -0.65889855734E+02 -0.17602757350E+02 -0.36240223795E+02  0.77231366527E+02  0.00000000000E+00 0.  1.
</event>
<event>
12    1  0.8417180E-002  0.2035026E+03  0.7818608E-02  0.1147048E+00
         21   -1    0    0  501  502  0.00000000000E+00  0.00000000000E+00  0.50719515787E+02  0.50719515787E+02  0.00000000000E+00 0. -1.
         21   -1    0    0  502  503 -0.00000000000E+00 -0.00000000000E+00 -0.15390004143E+04  0.15390004143E+04  0.00000000000E+00 0. -1.
         -6    2    1    2    0  503 -0.59046659912E+02  0.90768362629E+02 -0.12915170447E+04  0.13074515554E+04  0.17230173935E+03 0.  0.
        -24    2    3    3    0    0 -0.28347533401E+02  0.18009421211E+02 -0.29847912274E+03  0.31126748392E+03  0.81668463483E+02 0.  0.
          6    2    1    2  501    0  0.59046659912E+02 -0.90768362629E+02 -0.19676385387E+03  0.28226837470E+03  0.17097958201E+03 0.  0.
         24    2    5    5    0    0  0.31414207775E+02 -0.12359200401E+03 -0.18271815335E+03  0.23687767579E+03  0.80394488736E+02 0.  0.
          5    1    5    5  501    0  0.27632452138E+02  0.32823641377E+02 -0.14045700520E+02  0.45390698909E+02  0.47000000000E+01 0. -1.
        -11    1    6    6    0    0  0.39787462846E+02 -0.16119647408E+02 -0.50241299455E+02  0.66083836172E+02  0.00000000000E+00 0.  1.
         12    1    6    6    0    0 -0.83732550711E+01 -0.10747235660E+03 -0.13247685389E+03  0.17079383962E+03  0.00000000000E+00 0. -1.
         -5    1    3    3    0  503 -0.30699126511E+02  0.72758941418E+02 -0.99303792192E+03  0.99618407150E+03  0.47000000000E+01 0.  1.
         11    1    4    4    0    0 -0.38498742832E+02  0.31357958591E+02 -0.28621867180E+03  0.29049372257E+03  0.00000000000E+00 0. -1.
        -12    1    4    4    0    0  0.10151209431E+02 -0.13348537379E+02 -0.12260450944E+02  0.20773761346E+02  0.00000000000E+00 0.  1.
</event>
<event>
12    1  0.8417180E-002  0.1907677E+03  0.7818608E-02  0.1158603E+00
         21   -1    0    0  503  502  0.00000000000E+00  0.00000000000E+00  0.49531617788E+03  0.49531617788E+03  0.00000000000E+00 0. -1.
         21   -1    0    0  501  503 -0.00000000000E+00 -0.00000000000E+00 -0.73027761317E+02  0.73027761317E+02  0.00000000000E+00 0. -1.
          6    2    1    2  501    0  0.60788471151E+02 -0.43794751137E+02  0.24579080821E+03  0.31113572950E+03  0.17543973985E+03 0.  0.
         24    2    3    3    0    0  0.77800806440E+01 -0.55025592471E+02  0.52783723499E+02  0.11061180073E+03  0.79752764917E+02 0.  0.
         -6    2    1    2    0  502 -0.60788471151E+02  0.43794751137E+02  0.17649760835E+03  0.25720820969E+03  0.17143931559E+03 0.  0.
        -24    2    5    5    0    0 -0.54853464182E+01  0.38211328798E+02  0.17964333560E+03  0.20133696655E+03  0.82308270549E+02 0.  0.
          5    1    3    3  501    0  0.53008390507E+02  0.11230841333E+02  0.19300708472E+03  0.20052392878E+03  0.47000000000E+01 0. -1.
        -13    1    4    4    0    0 -0.30890842616E+02 -0.35868167781E+02  0.47625114000E+02  0.67148500363E+02  0.00000000000E+00 0.  1.
         14    1    4    4    0    0  0.38670923260E+02 -0.19157424690E+02  0.51586094990E+01  0.43463300363E+02  0.00000000000E+00 0. -1.
         -5    1    5    5    0  502 -0.55303124733E+02  0.55834223397E+01 -0.31457272531E+01  0.55871243141E+02  0.47000000000E+01 0.  1.
         13    1    6    6    0    0 -0.31989502067E+02  0.33897628808E+02  0.16348094035E+03  0.16999528034E+03  0.00000000000E+00 0. -1.
        -14    1    6    6    0    0  0.26504155649E+02  0.43136999892E+01  0.16162395256E+02  0.31341686213E+02  0.00000000000E+00 0.  1.
</event>
<event>
12    1  0.8417180E-002  0.6419587E+03  0.7818608E-02  0.9823312E-01
         21   -1    0    0  503  502  0.00000000000E+00  0.00000000000E+00  0.84682815527E+03  0.84682815527E+03  0.00000000000E+00 0. -1.
         21   -1    0    0  501  503 -0.00000000000E+00 -0.00000000000E+00 -0.55632384261E+03  0.55632384261E+03  0.00000000000E+00 0.  1.
          6    2    1    2  501    0 -0.78716749516E+02  0.61285135541E+03 -0.10701818784E+03  0.64807904591E+03  0.16361676790E+03 0.  0.
         24    2    3    3    0    0 -0.61067725783E+02  0.20463130251E+03 -0.10021752082E+02  0.22809631034E+03  0.79525179514E+02 0.  0.
         -6    2    1    2    0  502  0.78716749516E+02 -0.61285135541E+03  0.39752250050E+03  0.75507295197E+03  0.17414911401E+03 0.  0.
        -24    2    5    5    0    0  0.72153608181E+02 -0.22107458219E+03  0.10884461933E+03  0.26836038388E+03  0.78038646934E+02 0.  0.
          5    1    3    3  501    0 -0.17649023733E+02  0.40822005290E+03 -0.96996435761E+02  0.41998273557E+03  0.47000000000E+01 0. -1.
        -11    1    4    4    0    0 -0.17767969881E+01  0.13689368036E+03 -0.16216602371E+02  0.13786230421E+03  0.00000000000E+00 0.  1.
         12    1    4    4    0    0 -0.59290928795E+02  0.67737622151E+02  0.61948502897E+01  0.90234006130E+02  0.00000000000E+00 0. -1.
         -5    1    5    5    0  502  0.65631413353E+01 -0.39177677322E+03  0.28867788117E+03  0.48671256809E+03  0.47000000000E+01 0.  1.
         13    1    6    6    0    0  0.43110278028E+02 -0.61667072909E+02  0.67630619700E+02  0.10116928721E+03  0.00000000000E+00 0. -1.
        -14    1    6    6    0    0  0.29043330152E+02 -0.15940750928E+03  0.41213999630E+02  0.16719109667E+03  0.00000000000E+00 0.  1.
</event>
<event>
12    1  0.8417180E-002  0.2338631E+03  0.7818608E-02  0.1124233E+00
         21   -1    0    0  503  502  0.00000000000E+00  0.00000000000E+00  0.83489987686E+03  0.83489987686E+03  0.00000000000E+00 0.  1.
         21   -1    0    0  501  503 -0.00000000000E+00 -0.00000000000E+00 -0.71457969954E+02  0.71457969954E+02  0.00000000000E+00 0.  1.
          6    2    1    2  501    0  0.15433809447E+03  0.26251786193E+02  0.51864890427E+03  0.56893639603E+03  0.17373120948E+03 0.  0.
         24    2    3    3    0    0  0.12728601031E+03 -0.40328212483E+02  0.41197422617E+03  0.44022630152E+03  0.79046444446E+02 0.  0.
         -6    2    1    2    0  502 -0.15433809447E+03 -0.26251786193E+02  0.24479300264E+03  0.33742145079E+03  0.17152322766E+03 0.  0.
        -24    2    5    5    0    0 -0.32598739528E+02 -0.88892132196E+01  0.17761334093E+03  0.19721757627E+03  0.78781835360E+02 0.  0.
          5    1    3    3  501    0  0.27052084155E+02  0.66579998676E+02  0.10667467810E+03  0.12871009451E+03  0.47000000000E+01 0. -1.
        -11    1    4    4    0    0  0.90994443483E+02 -0.21704734833E+01  0.33367081810E+03  0.34586256599E+03  0.00000000000E+00 0.  1.
         12    1    4    4    0    0  0.36291566832E+02 -0.38157739000E+02  0.78303408070E+02  0.94363735535E+02  0.00000000000E+00 0. -1.
         -5    1    5    5    0  502 -0.12173935494E+03 -0.17362572973E+02  0.67179661709E+02  0.14020387452E+03  0.47000000000E+01 0.  1.
         11    1    6    6    0    0 -0.57578758656E+02 -0.54398865300E+01  0.14412780937E+03  0.15529884497E+03  0.00000000000E+00 0. -1.
        -12    1    6    6    0    0  0.24980019128E+02 -0.34493266896E+01  0.33485531559E+02  0.41918731303E+02  0.00000000000E+00 0.  1.
</event>
<event>
12    1  0.8417180E-002  0.3686262E+03  0.7818608E-02  0.1055235E+00
         21   -1    0    0  503  502  0.00000000000E+00  0.00000000000E+00  0.57631785921E+03  0.57631785921E+03  0.00000000000E+00 0. -1.
         21   -1    0    0  501  503 -0.00000000000E+00 -0.00000000000E+00 -0.32946382892E+03  0.32946382892E+03  0.00000000000E+00 0. -1.
          6    2    1    2  501    0 -0.21377179105E+03 -0.24618872621E+03 -0.11818502187E+03  0.38710851463E+03  0.17198265942E+03 0.  0.
         24    2    3    3    0    0 -0.31866793277E+02 -0.10263459859E+03 -0.69769200751E+02  0.15033140951E+03  0.78628480668E+02 0.  0.
         -6    2    1    2    0  502  0.21377179105E+03  0.24618872621E+03  0.36503905215E+03  0.51867317350E+03  0.17164231341E+03 0.  0.
        -24    2    5    5    0    0  0.20781175810E+03  0.25049487823E+03  0.37655170259E+03  0.50422685709E+03  0.80747308664E+02 0.  0.
          5    1    3    3  501    0 -0.18190499777E+03 -0.14355412763E+03 -0.48415821117E+02  0.23677710512E+03  0.47000000000E+01 0. -1.
        -13    1    4    4    0    0 -0.34807548864E+02 -0.76933800734E+02 -0.85407496502E+02  0.12010335387E+03  0.00000000000E+00 0.  1.
         14    1    4    4    0    0  0.29407555869E+01 -0.25700797852E+02  0.15638295751E+02  0.30228055638E+02  0.00000000000E+00 0. -1.
         -5    1    5    5    0  502  0.59600329439E+01 -0.43061520138E+01 -0.11512650441E+02  0.14446316417E+02  0.47000000000E+01 0.  1.
         11    1    6    6    0    0  0.18551786185E+03  0.18700422137E+03  0.26298411397E+03  0.37222049926E+03  0.00000000000E+00 0. -1.
        -12    1    6    6    0    0  0.22293896256E+02  0.63490656860E+02  0.11356758863E+03  0.13200635782E+03  0.00000000000E+00 0.  1.
</event>
<event>
12    1  0.8417180E-002  0.2166293E+03  0.7818608E-02  0.1136468E+00
         21   -1    0    0  503  502  0.00000000000E+00  0.00000000000E+00  0.62659893754E+03  0.62659893754E+03  0.00000000000E+00 0. -1.
         21   -1    0    0  501  503 -0.00000000000E+00 -0.00000000000E+00 -0.77085461674E+02  0.77085461674E+02  0.00000000000E+00 0. -1.
          6    2    1    2  501    0  0.24861317643E+01 -0.13016569367E+03  0.33537921857E+03  0.39925865511E+03  0.17314434663E+03 0.  0.
         24    2    3    3    0    0  0.68189880007E+02 -0.73526053809E+02  0.22289237170E+03  0.25713050148E+03  0.79869550528E+02 0.  0.
         -6    2    1    2    0  502 -0.24861317643E+01  0.13016569367E+03  0.21413425730E+03  0.30442574411E+03  0.17283594785E+03 0.  0.
        -24    2    5    5    0    0 -0.54549611130E+02  0.31466434407E+02  0.13044847766E+03  0.16486375295E+03  0.78723917236E+02 0.  0.
          5    1    3    3  501    0 -0.65703748243E+02 -0.56639639858E+02  0.11248684686E+03  0.14212815363E+03  0.47000000000E+01 0. -1.
        -11    1    4    4    0    0 -0.12097756194E+01  0.15267783874E+02  0.22404350160E+02  0.27138969906E+02  0.00000000000E+00 0.  1.
         12    1    4    4    0    0  0.69399655627E+02 -0.88793837682E+02  0.20048802155E+03  0.22999153157E+03  0.00000000000E+00 0. -1.
         -5    1    5    5    0  502  0.52063479366E+02  0.98699259260E+02  0.83685779638E+02  0.13956199116E+03  0.47000000000E+01 0.  1.
         11    1    6    6    0    0 -0.31005725005E+02  0.36384675199E+02  0.13236766122E+03  0.14073520281E+03  0.00000000000E+00 0. -1.
        -12    1    6    6    0    0 -0.23543886125E+02 -0.49182407914E+01 -0.19191835637E+01  0.24128550141E+02  0.00000000000E+00 0.  1.
</event>
<event>
12    1  0.8417180E-002  0.1921681E+03  0.7818608E-02  0.1156672E+00
         21   -1    0    0  503  502  0.00000000000E+00  0.00000000000E+00  0.37709091804E+03  0.37709091804E+03  0.00000000000E+00 0.  1.
         21   -1    0    0  501  503 -0.00000000000E+00 -0.00000000000E+00 -0.12336538880E+03  0.12336538880E+03  0.00000000000E+00 0.  1.
          6    2    1    2  501    0  0.78951581926E+02 -0.26387042722E+02  0.12293536692E+02  0.19188217120E+03  0.17244711731E+03 0.  0.
         24    2    3    3    0    0  0.16638350333E+02 -0.42936439739E+02 -0.47239060238E+02  0.10400133444E+03  0.80401344475E+02 0.  0.
         -6    2    1    2    0  502 -0.78951581926E+02  0.26387042722E+02  0.24143199254E+03  0.30857413565E+03  0.17320208386E+03 0.  0.
        -24    2    5    5    0    0 -0.23096567282E+02  0.74207827288E+02  0.10263783577E+03  0.15143560424E+03  0.79736841228E+02 0.  0.
          5    1    3    3  501    0  0.62313231592E+02  0.16549397017E+02  0.59532596930E+02  0.87880836764E+02  0.47000000000E+01 0. -1.
        -13    1    4    4    0    0 -0.11277849832E+02  0.20255267018E+02 -0.78417147478E+01  0.24473623128E+02  0.00000000000E+00 0.  1.
         14    1    4    4    0    0  0.27916200165E+02 -0.63191706757E+02 -0.39397345490E+02  0.79527711310E+02  0.00000000000E+00 0. -1.
         -5    1    5    5    0  502 -0.55855014643E+02 -0.47820784567E+02  0.13879415677E+03  0.15713853140E+03  0.47000000000E+01 0.  1.
         13    1    6    6    0    0 -0.33028493073E+02  0.85203719088E+02  0.68450720563E+02  0.11417555013E+03  0.00000000000E+00 0. -1.
        -14    1    6    6    0    0  0.99319257904E+01 -0.10995891800E+02  0.34187115209E+02  0.37260054115E+02  0.00000000000E+00 0.  1.
</event>
<event>
12    1  0.8417180E-002  0.2429431E+03  0.7818608E-02  0.1119163E+00
         21   -1    0    0  501  502  0.00000000000E+00  0.00000000000E+00  0.10869592303E+03  0.10869592303E+03  0.00000000000E+00 0. -1.
         21   -1    0    0  502  503 -0.00000000000E+00 -0.00000000000E+00 -0.52606659415E+03  0.52606659415E+03  0.00000000000E+00 0.  1.
         -6    2    1    2    0  503  0.17057986741E+03  0.17411711349E+02 -0.19496425980E+03  0.30539045949E+03  0.16078436271E+03 0.  0.
        -24    2    3    3    0    0  0.12480163700E+03 -0.87895730900E+00 -0.20692386091E+03  0.25444620566E+03  0.79681655320E+02 0.  0.
          6    2    1    2  501    0 -0.17057986741E+03 -0.17411711349E+02 -0.22240641133E+03  0.32937205768E+03  0.17210659989E+03 0.  0.
         24    2    5    5    0    0 -0.64648421519E+02 -0.58616715242E+02 -0.69154296647E+02  0.13851183598E+03  0.82388556553E+02 0.  0.
          5    1    5    5  501    0 -0.10593144589E+03  0.41205003893E+02 -0.15325211468E+03  0.19086022171E+03  0.47000000000E+01 0. -1.
        -11    1    6    6    0    0 -0.30513730427E+02 -0.65403706675E+02 -0.74007325667E+02  0.10337222472E+03  0.00000000000E+00 0.  1.
         12    1    6    6    0    0 -0.34134691092E+02  0.67869914336E+01  0.48530290197E+01  0.35139611258E+02  0.00000000000E+00 0. -1.
         -5    1    3    3    0  503  0.45778230419E+02  0.18290668658E+02  0.11959601118E+02  0.50944253838E+02  0.47000000000E+01 0.  1.
         13    1    4    4    0    0  0.59493197338E+01  0.17599576304E+02 -0.68930794590E+02  0.71390433072E+02  0.00000000000E+00 0. -1.
        -14    1    4    4    0    0  0.11885231726E+03 -0.18478533613E+02 -0.13799306632E+03  0.18305577258E+03  0.00000000000E+00 0.  1.
</event>
<event>
12    1  0.8417180E-002  0.3250662E+03  0.7818608E-02  0.1073353E+00
         21   -1    0    0  503  502  0.00000000000E+00  0.00000000000E+00  0.94002811820E+03  0.94002811820E+03  0.00000000000E+00 0. -1.
         21   -1    0    0  501  503 -0.00000000000E+00 -0.00000000000E+00 -0.26008008572E+03  0.26008008572E+03  0.00000000000E+00 0.  1.
          6    2    1    2  501    0 -0.18866704595E+03  0.20119107909E+03 -0.11225768460E+03  0.34380338192E+03  0.17183094348E+03 0.  0.
         24    2    3    3    0    0 -0.15997371587E+03  0.20354484920E+03 -0.13875646643E+03  0.30439370211E+03  0.79875362276E+02 0.  0.
         -6    2    1    2    0  502  0.18866704595E+03 -0.20119107909E+03  0.79220571708E+03  0.85630482200E+03  0.17203181531E+03 0.  0.
        -24    2    5    5    0    0  0.16973433100E+03 -0.86730023170E+02  0.54924349487E+03  0.58702334763E+03  0.81216709917E+02 0.  0.
          5    1    3    3  501    0 -0.28693330074E+02 -0.23537701146E+01  0.26498781833E+02  0.39409679815E+02  0.47000000000E+01 0. -1.
        -11    1    4    4    0    0 -0.11600261996E+03  0.89346209875E+02 -0.94482458405E+02  0.17425925514E+03  0.00000000000E+00 0.  1.
         12    1    4    4    0    0 -0.43971095913E+02  0.11419863933E+03 -0.44274008029E+02  0.13013444697E+03  0.00000000000E+00 0. -1.
         -5    1    5    5    0  502  0.18932714950E+02 -0.11446105592E+03  0.24296222221E+03  0.26928147437E+03  0.47000000000E+01 0.  1.
         11    1    6    6    0    0  0.47148139563E+02 -0.67684263233E+02  0.19699187347E+03  0.21356475544E+03  0.00000000000E+00 0. -1.
        -12    1    6    6    0    0  0.12258619143E+03 -0.19045759938E+02  0.35225162140E+03  0.37345859219E+03  0.00000000000E+00 0.  1.
</event>
<event>
12    1  0.8417180E-002  0.2190180E+03  0.7818608E-02  0.1135320E+00
         21   -1    0    0  501  502  0.00000000000E+00  0.00000000000E+00  0.15323147893E+03  0.15323147893E+03  0.00000000000E+00 0.  1.
         21   -1    0    0  502  503 -0.00000000000E+00 -0.00000000000E+00 -0.31175250504E+03  0.31175250504E+03  0.00000000000E+00 0.  1.
         -6    2    1    2    0  503 -0.89841567499E+02  0.92841923134E+02 -0.10622850510E+03  0.24342017949E+03  0.17685519089E+03 0.  0.
        -24    2    3    3    0    0 -0.26696211130E+01  0.95868507761E+02 -0.36134606205E+02  0.13142306741E+03  0.82270378785E+02 0.  0.
          6    2    1    2  501    0  0.89841567499E+02 -0.92841923134E+02 -0.52292521003E+02  0.22156380448E+03  0.17223496092E+03 0.  0.
         24    2    5    5    0    0  0.94289262180E+02 -0.12435164546E+03 -0.63933466795E+02  0.18735494295E+03  0.81612436427E+02 0.  0.
          5    1    5    5  501    0 -0.44476946808E+01  0.31509722322E+02  0.11640945792E+02  0.34208861537E+02  0.47000000000E+01 0. -1.
        -11    1    6    6    0    0  0.51746251001E+02 -0.81809712206E+01 -0.18405906619E+02  0.55528192671E+02  0.00000000000E+00 0.  1.
         12    1    6    6    0    0  0.42543011179E+02 -0.11617067424E+03 -0.45527560175E+02  0.13182675027E+03  0.00000000000E+00 0. -1.
         -5    1    3    3    0  503 -0.87171946386E+02 -0.30265846265E+01 -0.70093898896E+02  0.11199711208E+03  0.47000000000E+01 0.  1.
         13    1    4    4    0    0 -0.24054188676E+02  0.13621462271E+02  0.15788649091E+02  0.31834410116E+02  0.00000000000E+00 0. -1.
        -14    1    4    4    0    0  0.21384567563E+02  0.82247045489E+02 -0.51923255296E+02  0.99588657297E+02  0.00000000000E+00 0.  1.
</event>
<event>
12    1  0.8417180E-002  0.3337018E+03  0.7818608E-02  0.1070488E+00
         21   -1    0    0  501  502  0.00000000000E+00  0.00000000000E+00  0.31902161920E+03  0.31902161920E+03  0.00000000000E+00 0. -1.
         21   -1    0    0  502  503 -0.00000000000E+00 -0.00000000000E+00 -0.44209642844E+03  0.44209642844E+03  0.00000000000E+00 0.  1.
         -6    2    1    2    0  503 -0.12549261492E+03 -0.24417517554E+03 -0.24514756947E+03  0.41407030980E+03  0.18970234022E+03 0.  0.
        -24    2    3    3    0    0 -0.86130480131E+02 -0.64339295958E+02 -0.16758388346E+03  0.21424904809E+03  0.79122007058E+02 0.  0.
          6    2    1    2  501    0  0.12549261492E+03  0.24417517554E+03  0.12207276023E+03  0.34704773785E+03  0.17369646169E+03 0.  0.
         24    2    5    5    0    0  0.81789816063E+02  0.22275452740E+03  0.42318322642E+02  0.25349754218E+03  0.78492101323E+02 0.  0.
          5    1    5    5  501    0  0.43702798860E+02  0.21420648140E+02  0.79754437586E+02  0.93550195668E+02  0.47000000000E+01 0. -1.
        -13    1    6    6    0    0 -0.70696552514E+01  0.76856856724E+02 -0.12877080935E+01  0.77192063342E+02  0.00000000000E+00 0.  1.
         14    1    6    6    0    0  0.88859471315E+02  0.14589767068E+03  0.43606030736E+02  0.17630547884E+03  0.00000000000E+00 0. -1.
         -5    1    3    3    0  503 -0.39362134793E+02 -0.17983587958E+03 -0.77563686015E+02  0.19982126170E+03  0.47000000000E+01 0.  1.
         13    1    4    4    0    0 -0.14659626821E+02 -0.38549383681E+02 -0.15166992733E+02  0.43943114470E+02  0.00000000000E+00 0. -1.
        -14    1    4    4    0    0 -0.71470853310E+02 -0.25789912277E+02 -0.15241689073E+03  0.17030593362E+03  0.00000000000E+00 0.  1.
</event>
<event>
12    1  0.8417180E-002  0.1951394E+03  0.7818608E-02  0.1156238E+00
         21   -1    0    0  503  502  0.00000000000E+00  0.00000000000E+00  0.20014693893E+04  0.20014693893E+04  0.00000000000E+00 0.  1.
         21   -1    0    0  501  503 -0.00000000000E+00 -0.00000000000E+00 -0.18397941791E+02  0.18397941791E+02  0.00000000000E+00 0. -1.
          6    2    1    2  501    0  0.77961088582E+02 -0.25554869498E+01  0.11617853221E+04  0.11780596356E+04  0.17887120719E+03 0.  0.
         24    2    3    3    0    0  0.49082281010E+02 -0.10932531468E+02  0.11272014291E+04  0.11319912512E+04  0.91063385944E+02 0.  0.
         -6    2    1    2    0  502 -0.77961088582E+02  0.25554869498E+01  0.82128612547E+03  0.84180769546E+03  0.16746592010E+03 0.  0.
        -24    2    5    5    0    0 -0.11686290741E+02  0.11208721485E+02  0.18085969025E+03  0.19788585530E+03  0.78653539930E+02 0.  0.
          5    1    3    3  501    0  0.28878807572E+02  0.83770445178E+01  0.34583892906E+02  0.46068384497E+02  0.47000000000E+01 0. -1.
        -13    1    4    4    0    0  0.48411771956E+02  0.32057312309E+02  0.51013415833E+03  0.51342792136E+03  0.00000000000E+00 0.  1.
         14    1    4    4    0    0  0.67050905419E+00 -0.42989843776E+02  0.61706727082E+03  0.61856332979E+03  0.00000000000E+00 0. -1.
         -5    1    5    5    0  502 -0.66274797841E+02 -0.86532345351E+01  0.64042643523E+03  0.64392184016E+03  0.47000000000E+01 0.  1.
         11    1    6    6    0    0 -0.35608116642E+02  0.32536981340E+02  0.10653590179E+03  0.11694653263E+03  0.00000000000E+00 0. -1.
        -12    1    6    6    0    0  0.23921825901E+02 -0.21328259855E+02  0.74323788458E+02  0.80939322666E+02  0.00000000000E+00 0.  1.
</event>
<event>
12    1  0.8417180E-002  0.2776123E+03  0.7818608E-02  0.1097040E+00
         21   -1    0    0  501  502  0.00000000000E+00  0.00000000000E+00  0.41773014083E+02  0.41773014083E+02  0.00000000000E+00 0. -1.
         21   -1    0    0  502  503 -0.00000000000E+00 -0.00000000000E+00 -0.18903142426E+04  0.18903142426E+04  0.00000000000E+00 0.  1.
         -6    2    1    2    0  503 -0.18966870162E+03 -0.10752207571E+03 -0.10766197834E+04  0.11117633462E+04  0.17138368349E+03 0.  0.
        -24    2    3    3    0    0 -0.17931629077E+03 -0.78206193868E+02 -0.63871500151E+03  0.67273113637E+03  0.79622784294E+02 0.  0.
          6    2    1    2  501    0  0.18966870162E+03  0.10752207571E+03 -0.77192144516E+03  0.82032391045E+03  0.17185280743E+03 0.  0.
         24    2    5    5    0    0  0.37134851128E+02  0.22494038445E+02 -0.15944638325E+03  0.18342192889E+03  0.79595702958E+02 0.  0.
          5    1    5    5  501    0  0.15253385049E+03  0.85028037269E+02 -0.61247506190E+03  0.63690198156E+03  0.47000000000E+01 0. -1.
        -11    1    6    6    0    0  0.47161936367E+02  0.31486623972E+01 -0.15381884661E+03  0.16091736976E+03  0.00000000000E+00 0.  1.
         12    1    6    6    0    0 -0.10027085239E+02  0.19345376047E+02 -0.56275366400E+01  0.22504559126E+02  0.00000000000E+00 0. -1.
         -5    1    3    3    0  503 -0.10352410845E+02 -0.29315881846E+02 -0.43790478184E+03  0.43903220987E+03  0.47000000000E+01 0.  1.
         11    1    4    4    0    0 -0.18027331120E+03 -0.88532818174E+02 -0.60687131715E+03  0.63924120816E+03  0.00000000000E+00 0. -1.
        -12    1    4    4    0    0  0.95702042106E+00  0.10326624306E+02 -0.31843684363E+02  0.33489928209E+02  0.00000000000E+00 0.  1.
</event>
<event>
12    1  0.8417180E-002  0.2998887E+03  0.7818608E-02  0.1085510E+00
         21   -1    0    0  501  502  0.00000000000E+00  0.00000000000E+00  0.33867545605E+03  0.33867545605E+03  0.00000000000E+00 0. -1.
         21   -1    0    0  502  503 -0.00000000000E+00 -0.00000000000E+00 -0.26825696845E+03  0.26825696845E+03  0.00000000000E+00 0.  1.
         -6    2    1    2    0  503  0.13738279431E+03  0.20205703280E+03  0.73161539943E+02  0.30703117178E+03  0.17092235910E+03 0.  0.
        -24    2    3    3    0    0  0.37440750338E+02  0.17001121659E+03  0.33278146652E+02  0.19465625665E+03  0.80486021502E+02 0.  0.
          6    2    1    2  501    0 -0.13738279431E+03 -0.20205703280E+03 -0.27430523464E+01  0.29990125272E+03  0.17387397841E+03 0.  0.
         24    2    5    5    0    0 -0.19965026724E+02 -0.74398421121E+02 -0.47471640853E+02  0.12071869243E+03  0.79910691772E+02 0.  0.
          5    1    5    5  501    0 -0.11741776758E+03 -0.12765861168E+03  0.44728588506E+02  0.17918256029E+03  0.47000000000E+01 0. -1.
        -13    1    6    6    0    0  0.12162609368E+02  0.12930922874E+02 -0.10249195382E+02  0.20498386253E+02  0.00000000000E+00 0.  1.
         14    1    6    6    0    0 -0.32127636092E+02 -0.87329343995E+02 -0.37222445471E+02  0.10022030618E+03  0.00000000000E+00 0. -1.
         -5    1    3    3    0  503  0.99942043968E+02  0.32045816213E+02  0.39883393291E+02  0.11237491513E+03  0.47000000000E+01 0.  1.
         13    1    4    4    0    0  0.49177133126E+02  0.63214020552E+02  0.34511074186E+02  0.87209042297E+02  0.00000000000E+00 0. -1.
        -14    1    4    4    0    0 -0.11736382788E+02  0.10679719604E+03 -0.12329275346E+01  0.10744721436E+03  0.00000000000E+00 0.  1.
</event>
<event>
12    1  0.8417180E-002  0.2146729E+03  0.7818608E-02  0.1138174E+00
         21   -1    0    0  503  502  0.00000000000E+00  0.00000000000E+00  0.45792966653E+02  0.45792966653E+02  0.00000000000E+00 0.  1.
         21   -1    0    0  501  503 -0.00000000000E+00 -0.00000000000E+00 -0.12032039280E+04  0.12032039280E+04  0.00000000000E+00 0.  1.
          6    2    1    2  501    0 -0.98112900303E+02 -0.80380040010E+02 -0.83673037224E+03  0.86382994246E+03  0.17319746427E+03 0.  0.
         24    2    3    3    0    0 -0.12856515311E+03 -0.72316477613E+02 -0.54167582114E+03  0.56706128027E+03  0.79919514758E+02 0.  0.
         -6    2    1    2    0  502  0.98112900303E+02  0.80380040010E+02 -0.32068058909E+03  0.38516695218E+03  0.17155304949E+03 0.  0.
        -24    2    5    5    0    0  0.26499002677E+02  0.62202227119E+01 -0.23803098712E+03  0.25295017736E+03  0.81142794424E+02 0.  0.
          5    1    3    3  501    0  0.30452252805E+02 -0.80635623969E+01 -0.29505455109E+03  0.29676866219E+03  0.47000000000E+01 0. -1.
        -13    1    4    4    0    0 -0.64951069687E+02 -0.23227861078E+02 -0.12557651859E+03  0.14327469073E+03  0.00000000000E+00 0.  1.
         14    1    4    4    0    0 -0.63614083420E+02 -0.49088616535E+02 -0.41609930255E+03  0.42378658953E+03  0.00000000000E+00 0. -1.
         -5    1    5    5    0  502  0.71613897625E+02  0.74159817298E+02 -0.82649601975E+02  0.13221677481E+03  0.47000000000E+01 0.  1.
         13    1    6    6    0    0  0.46272981751E+02 -0.92122231105E+01 -0.21042924230E+03  0.21565370368E+03  0.00000000000E+00 0. -1.
        -14    1    6    6    0    0 -0.19773979073E+02  0.15432445822E+02 -0.27601744814E+02  0.37296473684E+02  0.00000000000E+00 0.  1.
</event>
<event>
12    1  0.8417180E-002  0.1832046E+03  0.7818608E-02  0.1164745E+00
         21   -1    0    0  503  502  0.00000000000E+00  0.00000000000E+00  0.33271563030E+03  0.33271563030E+03  0.00000000000E+00 0.  1.
         21   -1    0    0  501  503 -0.00000000000E+00 -0.00000000000E+00 -0.12635189926E+03  0.12635189926E+03  0.00000000000E+00 0.  1.
          6    2    1    2  501    0  0.56117046546E+02 -0.30456264175E+02  0.74712042651E-01  0.18317064936E+03  0.17168218971E+03 0.  0.
         24    2    3    3    0    0 -0.35022949093E+02 -0.17959576366E+02  0.14512635830E+02  0.89933266007E+02  0.79550125013E+02 0.  0.
         -6    2    1    2    0  502 -0.56117046546E+02  0.30456264175E+02  0.20628901899E+03  0.27589688020E+03  0.17171843876E+03 0.  0.
        -24    2    5    5    0    0  0.24900624038E+02  0.53347142781E+02  0.97153931914E+02  0.13798236863E+03  0.78321700996E+02 0.  0.
          5    1    3    3  501    0  0.91139995638E+02 -0.12496687809E+02 -0.14437923787E+02  0.93237383353E+02  0.47000000000E+01 0. -1.
        -13    1    4    4    0    0  0.22983708379E+02 -0.54558774023E+00 -0.93753315603E+01  0.24828317678E+02  0.00000000000E+00 0.  1.
         14    1    4    4    0    0 -0.58006657472E+02 -0.17413988626E+02  0.23887967390E+02  0.65104948329E+02  0.00000000000E+00 0. -1.
         -5    1    5    5    0  502 -0.81017670584E+02 -0.22890878606E+02  0.10913508708E+03  0.13791451157E+03  0.47000000000E+01 0.  1.
         11    1    6    6    0    0 -0.58178040463E+01  0.39089995714E+02  0.50404057021E+01  0.39840686471E+02  0.00000000000E+00 0. -1.
        -12    1    6    6    0    0  0.30718428085E+02  0.14257147067E+02  0.92113526212E+02  0.98141682162E+02  0.00000000000E+00 0.  1.
</event>
<event>
12    1  0.8417180E-002  0.1914618E+03  0.7818608E-02  0.1157548E+00
         21   -1    0    0  503  502  0.00000000000E+00  0.00000000000E+00  0.10383281536E+03  0.10383281536E+03  0.00000000000E+00 0.  1.
         21   -1    0    0  501  503 -0.00000000000E+00 -0.00000000000E+00 -0.11813624038E+04  0.11813624038E+04  0.00000000000E+00 0.  1.
          6    2    1    2  501    0 -0.80458520988E+02 -0.23070488289E+02 -0.10771587299E+04  0.10937330356E+04  0.17022104039E+03 0.  0.
         24    2    3    3    0    0  0.23885583703E+02  0.33190207102E+01 -0.48221527068E+03  0.48911422336E+03  0.78227995035E+02 0.  0.
         -6    2    1    2    0  502  0.80458520988E+02  0.23070488289E+02 -0.37085853217E+00  0.19146218362E+03  0.17219700691E+03 0.  0.
        -24    2    5    5    0    0  0.67863729340E+02 -0.49896552142E+02  0.99563571529E+01  0.11655184288E+03  0.79937796786E+02 0.  0.
          5    1    3    3  501    0 -0.10434410469E+03 -0.26389508999E+02 -0.59494345924E+03  0.60461881220E+03  0.47000000000E+01 0. -1.
        -11    1    4    4    0    0  0.10883225692E+02 -0.30100024350E+02 -0.36829984804E+03  0.36968802271E+03  0.00000000000E+00 0.  1.
         12    1    4    4    0    0  0.13002358011E+02  0.33419045060E+02 -0.11391542264E+03  0.11942620065E+03  0.00000000000E+00 0. -1.
         -5    1    5    5    0  502  0.12594791648E+02  0.72967040430E+02 -0.10327215685E+02  0.74910340739E+02  0.47000000000E+01 0.  1.
         13    1    6    6    0    0  0.35273254279E+02 -0.58082438374E+02 -0.20730000709E+02  0.71045795402E+02  0.00000000000E+00 0. -1.
        -14    1    6    6    0    0  0.32590475061E+02  0.81858862326E+01  0.30686357862E+02  0.45506047476E+02  0.00000000000E+00 0.  1.
</event>
<event>
12    1  0.8417180E-002  0.1899046E+03  0.7818608E-02  0.1158691E+00
         21   -1    0    0  501  502  0.00000000000E+00  0.00000000000E+00  0.45072384618E+03  0.45072384618E+03  0.00000000000E+00 0.  1.
         21   -1    0    0  502  503 -0.00000000000E+00 -0.00000000000E+00 -0.94261363826E+02  0.94261363826E+02  0.00000000000E+00 0.  1.
         -6    2    1    2    0  503  0.64245693332E+02 -0.47509362153E+02  0.71049069137E+02  0.20216663819E+03  0.17157718603E+03 0.  0.
        -24    2    3    3    0    0  0.37550212408E+01  0.13354401391E+00  0.25903100030E+02  0.11278422132E+03  0.10970502254E+03 0.  0.
          6    2    1    2  501    0 -0.64245693332E+02  0.47509362153E+02  0.28541341322E+03  0.34281857182E+03  0.17227625529E+03 0.  0.
         24    2    5    5    0    0 -0.95664200888E+02  0.72245054843E+02  0.25305310253E+03  0.29116339959E+03  0.79807676841E+02 0.  0.
          5    1    5    5  501    0  0.31418507556E+02 -0.24735692690E+02  0.32360310694E+02  0.51655172230E+02  0.47000000000E+01 0. -1.
        -13    1    6    6    0    0 -0.66544009152E+02  0.70935452523E+01  0.82139837338E+02  0.10594987690E+03  0.00000000000E+00 0.  1.
         14    1    6    6    0    0 -0.29120191736E+02  0.65151509590E+02  0.17091326519E+03  0.18521352269E+03  0.00000000000E+00 0. -1.
         -5    1    3    3    0  503  0.60490672091E+02 -0.47642906167E+02  0.45145969107E+02  0.89382416865E+02  0.47000000000E+01 0.  1.
         13    1    4    4    0    0 -0.20136268371E+02 -0.44872346091E+02  0.35857666137E+02  0.60866813358E+02  0.00000000000E+00 0. -1.
        -14    1    4    4    0    0  0.23891289611E+02  0.45005890105E+02 -0.99545661074E+01  0.51917407965E+02  0.00000000000E+00 0.  1.
</event>
<event>
12    1  0.8417180E-002  0.2129711E+03  0.7818608E-02  0.1139363E+00
         21   -1    0    0  501  502  0.00000000000E+00  0.00000000000E+00  0.56767039035E+02  0.56767039035E+02  0.00000000000E+00 0.  1.
         21   -1    0    0  502  503 -0.00000000000E+00 -0.00000000000E+00 -0.13408345617E+04  0.13408345617E+04  0.00000000000E+00 0.  1.
         -6    2    1    2    0  503  0.39576785774E+02  0.11847561893E+03 -0.10878581379E+04  0.11085089115E+04  0.17249314312E+03 0.  0.
        -24    2    3    3    0    0  0.42340295028E+02  0.43853021823E+02 -0.90681059004E+03  0.91260977018E+03  0.82676225812E+02 0.  0.
          6    2    1    2  501    0 -0.39576785774E+02 -0.11847561893E+03 -0.19620938477E+03  0.28909268924E+03  0.17167896215E+03 0.  0.
         24    2    5    5    0    0 -0.77827012199E+02 -0.12016395715E+03 -0.18826216563E+03  0.24970768448E+03  0.80092847720E+02 0.  0.
          5    1    5    5  501    0  0.38250226425E+02  0.16883382147E+01 -0.79472191318E+01  0.39385004754E+02  0.47000000000E+01 0. -1.
        -11    1    6    6    0    0 -0.26712205521E+02 -0.66851147466E+02 -0.15033020251E+03  0.16667869579E+03  0.00000000000E+00 0.  1.
         12    1    6    6    0    0 -0.51114806678E+02 -0.53312809680E+02 -0.37931963119E+02  0.83028988696E+02  0.00000000000E+00 0. -1.
         -5    1    3    3    0  503 -0.27635092536E+01  0.74622597108E+02 -0.18104754784E+03  0.19589914130E+03  0.47000000000E+01 0.  1.
         11    1    4    4    0    0 -0.14273868165E+02 -0.15206222246E+02 -0.17289907599E+03  0.17415241309E+03  0.00000000000E+00 0. -1.
        -12    1    4    4    0    0  0.56614163192E+02  0.59059244069E+02 -0.73391151406E+03  0.73845735709E+03  0.00000000000E+00 0.  1.
</event>
<event>
12    1  0.8417180E-002  0.2032362E+03  0.7818608E-02  0.1147103E+00
         21   -1    0    0  501  502  0.00000000000E+00  0.00000000000E+00  0.10611562735E+04  0.10611562735E+04  0.00000000000E+00 0. -1.
         21   -1    0    0  502  503 -0.00000000000E+00 -0.00000000000E+00 -0.39040222609E+02  0.39040222609E+02  0.00000000000E+00 0. -1.
         -6    2    1    2    0  503  0.10350777172E+03  0.29288367738E+02  0.47361181317E+03  0.51525048201E+03  0.17205592796E+03 0.  0.
        -24    2    3    3    0    0  0.91794219704E+02 -0.31833875183E+02  0.20880068326E+03  0.24318401880E+03  0.78109969198E+02 0.  0.
          6    2    1    2  501    0 -0.10350777172E+03 -0.29288367738E+02  0.54850423771E+03  0.58494601409E+03  0.17243338807E+03 0.  0.
         24    2    5    5    0    0  0.10194938953E+01 -0.30481663619E+02  0.14681888581E+03  0.16985495764E+03  0.79779384682E+02 0.  0.
          5    1    5    5  501    0 -0.10452726561E+03  0.11932958805E+01  0.40168535190E+03  0.41509105645E+03  0.47000000000E+01 0. -1.
        -13    1    6    6    0    0  0.38436962629E+02 -0.21882853984E+01  0.65827270413E+02  0.76258889443E+02  0.00000000000E+00 0.  1.
         14    1    6    6    0    0 -0.37417468734E+02 -0.28293378220E+02  0.80991615392E+02  0.93596068194E+02  0.00000000000E+00 0. -1.
         -5    1    3    3    0  503  0.11713552015E+02  0.61122242921E+02  0.26481112991E+03  0.27206646322E+03  0.47000000000E+01 0.  1.
         13    1    4    4    0    0  0.95829354348E+02 -0.11925619427E+02  0.13082457014E+03  0.16260551560E+03  0.00000000000E+00 0. -1.
        -14    1    4    4    0    0 -0.40351346447E+01 -0.19908255757E+02  0.77976113125E+02  0.80578503193E+02  0.00000000000E+00 0.  1.
</event>
<event>
12    1  0.8417180E-002  0.2766933E+03  0.7818608E-02  0.1097567E+00
         21   -1    0    0  503  502  0.00000000000E+00  0.00000000000E+00  0.43520020821E+03  0.43520020821E+03  0.00000000000E+00 0. -1.
         21   -1    0    0  501  503 -0.00000000000E+00 -0.00000000000E+00 -0.22359167474E+03  0.22359167474E+03  0.00000000000E+00 0.  1.
          6    2    1    2  501    0  0.11219913128E+03 -0.18534440943E+03 -0.46656246130E+02  0.28059938499E+03  0.17209885062E+03 0.  0.
         24    2    3    3    0    0  0.79918471509E+02 -0.28933255281E+02 -0.21698920159E+02  0.11888529080E+03  0.80241970833E+02 0.  0.
         -6    2    1    2    0  502 -0.11219913128E+03  0.18534440943E+03  0.25826477960E+03  0.37819249796E+03  0.17142833476E+03 0.  0.
        -24    2    5    5    0    0 -0.79242404281E+02  0.93683453296E+02  0.24186739116E+03  0.27930447501E+03  0.66747335490E+02 0.  0.
          5    1    3    3  501    0  0.32280659773E+02 -0.15641115415E+03 -0.24957325971E+02  0.16171409419E+03  0.47000000000E+01 0. -1.
        -13    1    4    4    0    0  0.29756684987E+02 -0.30490929274E+02  0.25781677126E+02  0.49798111860E+02  0.00000000000E+00 0.  1.
         14    1    4    4    0    0  0.50161786522E+02  0.15576739927E+01 -0.47480597285E+02  0.69087178941E+02  0.00000000000E+00 0. -1.
         -5    1    5    5    0  502 -0.32956727001E+02  0.91660956138E+02  0.16397388440E+02  0.98888022948E+02  0.47000000000E+01 0.  1.
         11    1    6    6    0    0 -0.22493023547E+02  0.64100869951E+02  0.78292359509E+02  0.10365592696E+03  0.00000000000E+00 0. -1.
        -12    1    6    6    0    0 -0.56749380733E+02  0.29582583345E+02  0.16357503165E+03  0.17564854805E+03  0.00000000000E+00 0.  1.
</event>
<event>
12    1  0.8417180E-002  0.1945646E+03  0.7818608E-02  0.1154594E+00
         21   -1    0    0  503  502  0.00000000000E+00  0.00000000000E+00  0.16340544177E+04  0.16340544177E+04  0.00000000000E+00 0. -1.
         21   -1    0    0  501  503 -0.00000000000E+00 -0.00000000000E+00 -0.25776920248E+02  0.25776920248E+02  0.00000000000E+00 0. -1.
          6    2    1    2  501    0 -0.86097991273E+02  0.30766587971E+02  0.53339784079E+03  0.56748447887E+03  0.17078035651E+03 0.  0.
         24    2    3    3    0    0 -0.73622883572E+01 -0.20138979378E+02  0.12798064420E+03  0.15134041609E+03  0.77878716427E+02 0.  0.
         -6    2    1    2    0  502  0.86097991273E+02 -0.30766587971E+02  0.10748796567E+04  0.10923468591E+04  0.17174381264E+03 0.  0.
        -24    2    5    5    0    0  0.76889453902E+02  0.29865068858E+02  0.46920049972E+03  0.48355270164E+03  0.82886644670E+02 0.  0.
          5    1    3    3  501    0 -0.78735702916E+02  0.50905567349E+02  0.40541719659E+03  0.41614406279E+03  0.47000000000E+01 0. -1.
        -11    1    4    4    0    0  0.64765735658E+01 -0.86627557017E+01  0.13238856742E+03  0.13282967336E+03  0.00000000000E+00 0.  1.
         12    1    4    4    0    0 -0.13838861923E+02 -0.11476223676E+02 -0.44079232229E+01  0.18510742728E+02  0.00000000000E+00 0. -1.
         -5    1    5    5    0  502  0.92085373712E+01 -0.60631656830E+02  0.60567915695E+03  0.60879415744E+03  0.47000000000E+01 0.  1.
         13    1    6    6    0    0  0.12707325214E+02  0.31051749343E+02  0.31129307329E+03  0.31309593534E+03  0.00000000000E+00 0. -1.
        -14    1    6    6    0    0  0.64182128687E+02 -0.11866804844E+01  0.15790742644E+03  0.17045676630E+03  0.00000000000E+00 0.  1.
</event>
<event>
12    1  0.8417180E-002  0.1901271E+03  0.7818608E-02  0.1158814E+00
         21   -1    0    0  503  502  0.00000000000E+00  0.00000000000E+00  0.12934208983E+04  0.12934208983E+04  0.00000000000E+00 0. -1.
         21   -1    0    0  501  503 -0.00000000000E+00 -0.00000000000E+00 -0.33132852671E+02  0.33132852671E+02  0.00000000000E+00 0. -1.
          6    2    1    2  501    0 -0.70769242148E+02 -0.31504778120E+02  0.36308491898E+03  0.40985238141E+03  0.17363029540E+03 0.  0.
         24    2    3    3    0    0 -0.31439145137E+01  0.12031529682E+01  0.30397077864E+03  0.31414676359E+03  0.79237762679E+02 0.  0.
         -6    2    1    2    0  502  0.70769242148E+02  0.31504778120E+02  0.89720312664E+03  0.91670136955E+03  0.17136835706E+03 0.  0.
        -24    2    5    5    0    0  0.18609810197E+02 -0.23372765642E+01  0.77703101834E+03  0.78131556298E+03  0.79529979224E+02 0.  0.
          5    1    3    3  501    0 -0.67625327634E+02 -0.32707931088E+02  0.59114140335E+02  0.95705617814E+02  0.47000000000E+01 0. -1.
        -11    1    4    4    0    0  0.34782595326E+01 -0.38693094367E+02  0.15228041589E+03  0.15715781528E+03  0.00000000000E+00 0.  1.
         12    1    4    4    0    0 -0.66221740463E+01  0.39896247335E+02  0.15169036275E+03  0.15698894832E+03  0.00000000000E+00 0. -1.
         -5    1    5    5    0  502  0.52159431951E+02  0.33842054684E+02  0.12017210830E+03  0.13538580656E+03  0.47000000000E+01 0.  1.
         11    1    6    6    0    0  0.34803151204E+02  0.18091652881E+02  0.67031585757E+03  0.67146252028E+03  0.00000000000E+00 0. -1.
        -12    1    6    6    0    0 -0.16193341008E+02 -0.20428929445E+02  0.10671516078E+03  0.10985304270E+03  0.00000000000E+00 0.  1.
</event>
<event>
12    1  0.8417180E-002  0.1971143E+03  0.7818608E-02  0.1153177E+00
         21   -1    0    0  503  502  0.00000000000E+00  0.00000000000E+00  0.19433398678E+03  0.19433398678E+03  0.00000000000E+00 0.  1.
         21   -1    0    0  501  503 -0.00000000000E+00 -0.00000000000E+00 -0.22796080105E+03  0.22796080105E+03  0.00000000000E+00 0. -1.
          6    2    1    2  501    0  0.79628448314E+02  0.36719946425E+02 -0.96784900095E+02  0.21959360995E+03  0.17653609376E+03 0.  0.
         24    2    3    3    0    0 -0.18830118269E+02 -0.80563034256E+01 -0.11295556647E+02  0.81646084685E+02  0.78224140554E+02 0.  0.
         -6    2    1    2    0  502 -0.79628448314E+02 -0.36719946425E+02  0.63158085824E+02  0.20270117788E+03  0.17149279712E+03 0.  0.
        -24    2    5    5    0    0 -0.79600063756E+02 -0.67697366290E+02 -0.43050443046E+01  0.12831727321E+03  0.74348407146E+02 0.  0.
          5    1    3    3  501    0  0.98458566583E+02  0.44776249851E+02 -0.85489343447E+02  0.13794752527E+03  0.47000000000E+01 0. -1.
        -11    1    4    4    0    0 -0.28221316159E+02  0.14633192710E+01 -0.40581613709E+02  0.49451505136E+02  0.00000000000E+00 0.  1.
         12    1    4    4    0    0  0.93911978896E+01 -0.95196226966E+01  0.29286057061E+02  0.32194579548E+02  0.00000000000E+00 0. -1.
         -5    1    5    5    0  502 -0.28384557588E-01  0.30977419865E+02  0.67463130129E+02  0.74383904670E+02  0.47000000000E+01 0.  1.
         11    1    6    6    0    0 -0.60133791452E+02 -0.54746832546E+02 -0.35997960090E+02  0.88933355266E+02  0.00000000000E+00 0. -1.
        -12    1    6    6    0    0 -0.19466272304E+02 -0.12950533744E+02  0.31692915786E+02  0.39383917945E+02  0.00000000000E+00 0.  1.
</event>
<event>
12    1  0.8417180E-002  0.2712916E+03  0.7818608E-02  0.1101243E+00
         21   -1    0    0  501  502  0.00000000000E+00  0.00000000000E+00  0.19544946157E+04  0.19544946157E+04  0.00000000000E+00 0. -1.
         21   -1    0    0  502  503 -0.00000000000E+00 -0.00000000000E+00 -0.56079635141E+02  0.56079635141E+02  0.00000000000E+00 0.  1.
         -6    2    1    2    0  503  0.17003112489E+03  0.11165191851E+03  0.15301544588E+04  0.15531740409E+04  0.17204708433E+03 0.  0.
        -24    2    3    3    0    0  0.56466803267E+02  0.10760254509E+03  0.68469563498E+03  0.70009962133E+03  0.81021970092E+02 0.  0.
          6    2    1    2  501    0 -0.17003112489E+03 -0.11165191851E+03  0.36826052177E+03  0.45740020995E+03  0.17950600498E+03 0.  0.
         24    2    5    5    0    0 -0.18136791486E+02 -0.32577093876E+00  0.12102676844E+03  0.14657547084E+03  0.80671188420E+02 0.  0.
          5    1    5    5  501    0 -0.15189433341E+03 -0.11132614757E+03  0.24723375333E+03  0.31082473911E+03  0.47000000000E+01 0. -1.
        -13    1    6    6    0    0  0.12137573866E+02 -0.34396175175E+02  0.44907329124E+02  0.57854003968E+02  0.00000000000E+00 0.  1.
         14    1    6    6    0    0 -0.30274365352E+02  0.34070404237E+02  0.76119439316E+02  0.88721466873E+02  0.00000000000E+00 0. -1.
         -5    1    3    3    0  503  0.11356432162E+03  0.40493734202E+01  0.84545882385E+03  0.85307441961E+03  0.47000000000E+01 0.  1.
         13    1    4    4    0    0  0.25684321659E+02  0.40420090672E+02  0.48163634819E+03  0.48401140483E+03  0.00000000000E+00 0. -1.
        -14    1    4    4    0    0  0.30782481608E+02  0.67182454420E+02  0.20305928679E+03  0.21608821650E+03  0.00000000000E+00 0.  1.
</event>
<event>
12    1  0.8417180E-002  0.1971446E+03  0.7818608E-02  0.1154862E+00
         21   -1    0    0  503  502  0.00000000000E+00  0.00000000000E+00  0.98634352817E+03  0.98634352817E+03  0.00000000000E+00 0. -1.
         21   -1    0    0  501  503 -0.00000000000E+00 -0.00000000000E+00 -0.37036058144E+02  0.37036058144E+02  0.00000000000E+00 0. -1.
          6    2    1    2  501    0 -0.85237457598E+02 -0.51079144589E+02  0.49983259608E+03  0.53730681614E+03  0.17026886791E+03 0.  0.
         24    2    3    3    0    0 -0.34301250406E+01 -0.50715988087E+02  0.14504022514E+03  0.17317457640E+03  0.79805324365E+02 0.  0.
         -6    2    1    2    0  502  0.85237457598E+02  0.51079144589E+02  0.44947487395E+03  0.48607277018E+03  0.15609155136E+03 0.  0.
        -24    2    5    5    0    0  0.23496881230E+02  0.81314714410E+02  0.27595707010E+03  0.29937352887E+03  0.79423038476E+02 0.  0.
          5    1    3    3  501    0 -0.81807332558E+02 -0.36315650243E+00  0.35479237093E+03  0.36413223974E+03  0.47000000000E+01 0. -1.
        -11    1    4    4    0    0  0.75371811471E+01 -0.10831138504E+02  0.12760431769E+03  0.12828477912E+03  0.00000000000E+00 0.  1.
         12    1    4    4    0    0 -0.10967306188E+02 -0.39884849582E+02  0.17435907453E+02  0.44889797281E+02  0.00000000000E+00 0. -1.
         -5    1    5    5    0  502  0.61740576368E+02 -0.30235569821E+02  0.17351780386E+03  0.18669924131E+03  0.47000000000E+01 0.  1.
         11    1    6    6    0    0 -0.94133056148E+00 -0.88391166499E+01  0.97904682304E+02  0.98307389872E+02  0.00000000000E+00 0. -1.
        -12    1    6    6    0    0  0.24438211791E+02  0.90153831060E+02  0.17805238779E+03  0.20106613899E+03  0.00000000000E+00 0.  1.
</event>
<event>
12    1  0.8417180E-002  0.2278688E+03  0.7818608E-02  0.1128508E+00
         21   -1    0    0  503  502  0.00000000000E+00  0.00000000000E+00  0.85840525405E+03  0.85840525405E+03  0.00000000000E+00 0. -1.
         21   -1    0    0  501  503 -0.00000000000E+00 -0.00000000000E+00 -0.65813431585E+02  0.65813431585E+02  0.00000000000E+00 0.  1.
          6    2    1    2  501    0  0.14642136520E+03  0.17634657921E+02  0.26005092809E+03  0.34576100769E+03  0.17370662593E+03 0.  0.
         24    2    3    3    0    0  0.13129948906E+02 -0.30735877235E+02  0.11952454537E+03  0.14607108664E+03  0.77029576780E+02 0.  0.
         -6    2    1    2    0  502 -0.14642136520E+03 -0.17634657921E+02  0.53254089438E+03  0.57845767794E+03  0.17106514443E+03 0.  0.
        -24    2    5    5    0    0 -0.92310391299E+01  0.42710063926E+01  0.13561137194E+03  0.15789117966E+03  0.80222981967E+02 0.  0.
          5    1    3    3  501    0  0.13329141630E+03  0.48370535156E+02  0.14052638272E+03  0.19968992105E+03  0.47000000000E+01 0. -1.
        -11    1    4    4    0    0  0.44168140398E+02 -0.72295792022E+01  0.57973547434E+02  0.73239495109E+02  0.00000000000E+00 0.  1.
         12    1    4    4    0    0 -0.31038191492E+02 -0.23506298032E+02  0.61550997931E+02  0.72831591528E+02  0.00000000000E+00 0. -1.
         -5    1    5    5    0  502 -0.13719032607E+03 -0.21905664314E+02  0.39692952244E+03  0.42056649829E+03  0.47000000000E+01 0.  1.
         11    1    6    6    0    0  0.37222957993E+01  0.40465408466E+02  0.53108141816E+02  0.66871365288E+02  0.00000000000E+00 0. -1.
        -12    1    6    6    0    0 -0.12953334929E+02 -0.36194402074E+02  0.82503230121E+02  0.91019814368E+02  0.00000000000E+00 0.  1.
</event>
<event>
12    1  0.8417180E-002  0.2592193E+03  0.7818608E-02  0.1107662E+00
         21   -1    0    0  503  502  0.00000000000E+00  0.00000000000E+00  0.22088009015E+03  0.22088009015E+03  0.00000000000E+00 0.  1.
         21   -1    0    0  501  503 -0.00000000000E+00 -0.00000000000E+00 -0.30572514572E+03  0.30572514572E+03  0.00000000000E+00 0. -1.
          6    2    1    2  501    0  0.32468805336E+01 -0.19386567703E+03 -0.21729876878E+02  0.26012849637E+03  0.17204709853E+03 0.  0.
         24    2    3    3    0    0  0.96321555996E+01 -0.63688757663E+02  0.48161410849E+02  0.11216335124E+03  0.78179662269E+02 0.  0.
         -6    2    1    2    0  502 -0.32468805336E+01  0.19386567703E+03 -0.63115178686E+02  0.26647673950E+03  0.17155723229E+03 0.  0.
        -24    2    5    5    0    0 -0.14794907881E+02  0.15875990635E+03 -0.10764548325E+03  0.20841806146E+03  0.80168205147E+02 0.  0.
          5    1    3    3  501    0 -0.63852750661E+01 -0.13017691937E+03 -0.69891287726E+02  0.14796514513E+03  0.47000000000E+01 0. -1.
        -13    1    4    4    0    0  0.14453207563E+02  0.66310738544E+01  0.37686931949E+02  0.40904415276E+02  0.00000000000E+00 0.  1.
         14    1    4    4    0    0 -0.48210519631E+01 -0.70319831517E+02  0.10474478900E+02  0.71258935965E+02  0.00000000000E+00 0. -1.
         -5    1    5    5    0  502  0.11548027347E+02  0.35105770681E+02  0.44530304564E+02  0.58058678036E+02  0.47000000000E+01 0.  1.
         13    1    6    6    0    0 -0.38434154214E+02  0.13057211898E+03 -0.61384835987E+02  0.14931296177E+03  0.00000000000E+00 0. -1.
        -14    1    6    6    0    0  0.23639246333E+02  0.28187787372E+02 -0.46260647263E+02  0.59105099690E+02  0.00000000000E+00 0.  1.
</event>
<event>
12    1  0.8417180E-002  0.2102342E+03  0.7818608E-02  0.1141433E+00
         21   -1    0    0  503  502  0.00000000000E+00  0.00000000000E+00  0.13268041675E+03  0.13268041675E+03  0.00000000000E+00 0.  1.
         21   -1    0    0  501  503 -0.00000000000E+00 -0.00000000000E+00 -0.17425931647E+04  0.17425931647E+04  0.00000000000E+00 0.  1.
          6    2    1    2  501    0  0.16633671561E+02  0.11921179315E+03 -0.16484436437E+04  0.16617956760E+04  0.17236673646E+03 0.  0.
         24    2    3    3    0    0  0.52321360399E+02  0.82548766951E+02 -0.64085412993E+03  0.65289701568E+03  0.77644533410E+02 0.  0.
         -6    2    1    2    0  502 -0.16633671561E+02 -0.11921179315E+03  0.38530895771E+02  0.21347790538E+03  0.17204666663E+03 0.  0.
        -24    2    5    5    0    0 -0.60427495336E+02 -0.12936561309E+03  0.19721181415E+02  0.16451981703E+03  0.79315201305E+02 0.  0.
          5    1    3    3  501    0 -0.35687688838E+02  0.36663026203E+02 -0.10075895138E+04  0.10088986604E+04  0.47000000000E+01 0. -1.
        -11    1    4    4    0    0  0.39649057880E+02  0.76442553382E+02 -0.62788941500E+03  0.63376701495E+03  0.00000000000E+00 0.  1.
         12    1    4    4    0    0  0.12672302520E+02  0.61062135694E+01 -0.12964714921E+02  0.19130000739E+02  0.00000000000E+00 0. -1.
         -5    1    5    5    0  502  0.43793823775E+02  0.10153819934E+02  0.18809714356E+02  0.48958088343E+02  0.47000000000E+01 0.  1.
         11    1    6    6    0    0 -0.21453899491E+02 -0.79884189696E+02 -0.25980952684E+02  0.86699270292E+02  0.00000000000E+00 0. -1.
        -12    1    6    6    0    0 -0.38973595845E+02 -0.49481423393E+02  0.45702134099E+02  0.77820546742E+02  0.00000000000E+00 0.  1.
</event>
<event>
12    1  0.8417180E-002  0.2225235E+03  0.7818608E-02  0.1132205E+00
         21   -1    0    0  503  502  0.00000000000E+00  0.00000000000E+00  0.33053139134E+03  0.33053139134E+03  0.00000000000E+00 0.  1.
         21   -1    0    0  501  503 -0.00000000000E+00 -0.00000000000E+00 -0.26403385636E+03  0.26403385636E+03  0.00000000000E+00 0.  1.
          6    2    1    2  501    0 -0.30639194723E+02  0.13645124651E+03 -0.16291924228E+03  0.27495800977E+03  0.17176007890E+03 0.  0.
         24    2    3    3    0    0 -0.49753155741E+02  0.54145367365E+02 -0.15617324287E+03  0.19006278166E+03  0.79540441719E+02 0.  0.
         -6    2    1    2    0  502  0.30639194723E+02 -0.13645124651E+03  0.22941677726E+03  0.31960723793E+03  0.17308675836E+03 0.  0.
        -24    2    5    5    0    0  0.36829031377E+02 -0.15215143375E+03  0.24133641251E+03  0.29841814494E+03  0.79395773724E+02 0.  0.
          5    1    3    3  501    0  0.19113961018E+02  0.82305879149E+02 -0.67459994088E+01  0.84895228113E+02  0.47000000000E+01 0. -1.
        -13    1    4    4    0    0  0.89215768488E+01 -0.43818948772E+01  0.31897987291E+01  0.10438886536E+02  0.00000000000E+00 0.  1.
         14    1    4    4    0    0 -0.58674732590E+02  0.58527262243E+02 -0.15936304160E+03  0.17962389512E+03  0.00000000000E+00 0. -1.
         -5    1    5    5    0  502 -0.61898366537E+01  0.15700187237E+02 -0.11919635248E+02  0.21189092985E+02  0.47000000000E+01 0.  1.
         11    1    6    6    0    0  0.44097469299E+02 -0.32852430826E+02  0.61639337272E+02  0.82603128930E+02  0.00000000000E+00 0. -1.
        -12    1    6    6    0    0 -0.72684379223E+01 -0.11929900293E+03  0.17969707524E+03  0.21581501601E+03  0.00000000000E+00 0.  1.
</event>
<event>
12    1  0.8417180E-002  0.1939247E+03  0.7818608E-02  0.1155119E+00
         21   -1    0    0  501  502  0.00000000000E+00  0.00000000000E+00  0.17100076146E+03  0.17100076146E+03  0.00000000000E+00 0. -1.
         21   -1    0    0  502  503 -0.00000000000E+00 -0.00000000000E+00 -0.23761878609E+03  0.23761878609E+03  0.00000000000E+00 0. -1.
         -6    2    1    2    0  503 -0.34612154762E+02  0.81165282514E+02 -0.90326072229E+02  0.21392897045E+03  0.17268758129E+03 0.  0.
        -24    2    3    3    0    0  0.48156097996E+02  0.42660051539E+02 -0.49216124409E+02  0.11370245556E+03  0.79794308865E+02 0.  0.
          6    2    1    2  501    0  0.34612154762E+02 -0.81165282514E+02  0.23708047602E+02  0.19469057710E+03  0.17192017028E+03 0.  0.
         24    2    5    5    0    0 -0.30409731500E+02 -0.82779160900E+02  0.38046021386E+02  0.12792143911E+03  0.84494103880E+02 0.  0.
          5    1    5    5  501    0  0.65021886261E+02  0.16138783860E+01 -0.14337973784E+02  0.66769137995E+02  0.47000000000E+01 0. -1.
        -13    1    6    6    0    0 -0.27839649657E+02  0.20173088664E+01 -0.10915510469E+02  0.29971052649E+02  0.00000000000E+00 0.  1.
         14    1    6    6    0    0 -0.25700818424E+01 -0.84796469767E+02  0.48961531855E+02  0.97950386457E+02  0.00000000000E+00 0. -1.
         -5    1    3    3    0  503 -0.82768252758E+02  0.38505230976E+02 -0.41109947820E+02  0.10022651489E+03  0.47000000000E+01 0.  1.
         13    1    4    4    0    0  0.36316735003E+02  0.34805414063E+02 -0.71411282350E+02  0.87349260651E+02  0.00000000000E+00 0. -1.
        -14    1    4    4    0    0  0.11839362993E+02  0.78546374759E+01  0.22195157941E+02  0.26353194910E+02  0.00000000000E+00 0.  1.
</event>
<event>
12    1  0.8417180E-002  0.2487012E+03  0.7818608E-02  0.1114156E+00
         21   -1    0    0  501  502  0.00000000000E+00  0.00000000000E+00  0.49314333242E+03  0.49314333242E+03  0.00000000000E+00 0.  1.
         21   -1    0    0  502  503 -0.00000000000E+00 -0.00000000000E+00 -0.12585477692E+03  0.12585477692E+03  0.00000000000E+00 0.  1.
         -6    2    1    2    0  503  0.28562380920E+02 -0.17738180979E+03  0.16385860488E+03  0.29782867025E+03  0.17196557325E+03 0.  0.
        -24    2    3    3    0    0 -0.50304661293E+02 -0.98749599528E+02  0.10439591866E+03  0.17149207266E+03  0.78923892440E+02 0.  0.
          6    2    1    2  501    0 -0.28562380920E+02  0.17738180979E+03  0.20342995063E+03  0.32116943909E+03  0.17171472780E+03 0.  0.
         24    2    5    5    0    0 -0.38491847749E+02  0.16592519910E+03  0.92658397612E+02  0.20926646684E+03  0.78702486979E+02 0.  0.
          5    1    5    5  501    0  0.99294668289E+01  0.11456610690E+02  0.11077155301E+03  0.11190297224E+03  0.47000000000E+01 0. -1.
        -11    1    6    6    0    0 -0.31586191246E+02  0.22871253067E+02  0.58221524684E+00  0.39001547006E+02  0.00000000000E+00 0.  1.
         12    1    6    6    0    0 -0.69056565025E+01  0.14305394604E+03  0.92076182365E+02  0.17026491984E+03  0.00000000000E+00 0. -1.
         -5    1    3    3    0  503  0.78867042212E+02 -0.78632210266E+02  0.59462686216E+02  0.12633659759E+03  0.47000000000E+01 0.  1.
         13    1    4    4    0    0 -0.13025340389E+02 -0.80325642401E+02  0.30892909859E+02  0.87041600393E+02  0.00000000000E+00 0. -1.
        -14    1    4    4    0    0 -0.37279320904E+02 -0.18423957127E+02  0.73503008806E+02  0.84450472271E+02  0.00000000000E+00 0.  1.
</event>
<event>
12    1  0.8417180E-002  0.2848352E+03  0.7818608E-02  0.1093617E+00
         21   -1    0    0  501  502  0.00000000000E+00  0.00000000000E+00  0.20916925122E+03  0.20916925122E+03  0.00000000000E+00 0. -1.
         21   -1    0    0  502  503 -0.00000000000E+00 -0.00000000000E+00 -0.38810813176E+03  0.38810813176E+03  0.00000000000E+00 0.  1.
         -6    2    1    2    0  503 -0.18699156219E+03 -0.12835609893E+03 -0.12621513231E+03  0.31154668745E+03  0.17230770840E+03 0.  0.
        -24    2    3    3    0    0 -0.75936865645E+02 -0.93203454518E+02 -0.11536354931E+03  0.19446252590E+03  0.10026781123E+03 0.  0.
          6    2    1    2  501    0  0.18699156219E+03  0.12835609893E+03 -0.52723748225E+02  0.28573069553E+03  0.16559318912E+03 0.  0.
         24    2    5    5    0    0  0.17883355576E+03  0.51780573323E+02 -0.36473078129E+02  0.20688566735E+03  0.82515001596E+02 0.  0.
          5    1    5    5  501    0  0.81580064265E+01  0.76575525606E+02 -0.16250670096E+02  0.78845028183E+02  0.47000000000E+01 0. -1.
        -11    1    6    6    0    0 -0.82320443692E+01 -0.29272199394E+01 -0.19150540026E+01  0.89444174155E+01  0.00000000000E+00 0.  1.
         12    1    6    6    0    0  0.18706560013E+03  0.54707793262E+02 -0.34558024126E+02  0.19794124994E+03  0.00000000000E+00 0. -1.
         -5    1    3    3    0  503 -0.11105469654E+03 -0.35152644411E+02 -0.10851583001E+02  0.11708416155E+03  0.47000000000E+01 0.  1.
         13    1    4    4    0    0 -0.54445212093E+02 -0.10619281194E+03 -0.59785879932E+02  0.13347488852E+03  0.00000000000E+00 0. -1.
        -14    1    4    4    0    0 -0.21491653552E+02  0.12989357419E+02 -0.55577669381E+02  0.60987637373E+02  0.00000000000E+00 0.  1.
</event>
<event>
12    1  0.8417180E-002  0.1811501E+03  0.7818608E-02  0.1167282E+00
         21   -1    0    0  501  502  0.00000000000E+00  0.00000000000E+00  0.39327196765E+03  0.39327196765E+03  0.00000000000E+00 0. -1.
         21   -1    0    0  502  503 -0.00000000000E+00 -0.00000000000E+00 -0.16335961733E+03  0.16335961733E+03  0.00000000000E+00 0. -1.
         -6    2    1    2    0  503 -0.22893124270E+02 -0.44094763383E+02 -0.81452821990E+02  0.19640439128E+03  0.17167317615E+03 0.  0.
        -24    2    3    3    0    0 -0.33395344208E+02  0.33677046084E+00  0.17296124403E+02  0.87510395872E+02  0.79016144156E+02 0.  0.
          6    2    1    2  501    0  0.22893124270E+02  0.44094763383E+02  0.31136517231E+03  0.36022719370E+03  0.17420366603E+03 0.  0.
         24    2    5    5    0    0  0.40478665747E+02 -0.36129668156E+02  0.19479881972E+03  0.21755619020E+03  0.80251108573E+02 0.  0.
          5    1    5    5  501    0 -0.17585541478E+02  0.80224431539E+02  0.11656635259E+03  0.14267100350E+03  0.47000000000E+01 0. -1.
        -11    1    6    6    0    0  0.18358829297E+02  0.22504908378E+02  0.98243163115E+02  0.10244626207E+03  0.00000000000E+00 0.  1.
         12    1    6    6    0    0  0.22119836450E+02 -0.58634576534E+02  0.96555656603E+02  0.11510992812E+03  0.00000000000E+00 0. -1.
         -5    1    3    3    0  503  0.10502219938E+02 -0.44431533844E+02 -0.98748946392E+02  0.10889399541E+03  0.47000000000E+01 0.  1.
         13    1    4    4    0    0  0.23912663453E+02 -0.43248818664E+00  0.18417585234E+02  0.30186254576E+02  0.00000000000E+00 0. -1.
        -14    1    4    4    0    0 -0.57308007661E+02  0.76925864748E+00 -0.11214608312E+01  0.57324141296E+02  0.00000000000E+00 0.  1.
</event>
<event>
12    1  0.8417180E-002  0.2010812E+03  0.7818608E-02  0.1149046E+00
         21   -1    0    0  501  502  0.00000000000E+00  0.00000000000E+00  0.73050381257E+03  0.73050381257E+03  0.00000000000E+00 0. -1.
         21   -1    0    0  502  503 -0.00000000000E+00 -0.00000000000E+00 -0.19194645192E+03  0.19194645192E+03  0.00000000000E+00 0. -1.
         -6    2    1    2    0  503 -0.59454349877E+02  0.85374272765E+02 -0.12000834423E+03  0.23417015018E+03  0.17207576930E+03 0.  0.
        -24    2    3    3    0    0 -0.42110864847E+01  0.29054435100E+02  0.62216296167E+01  0.85241178646E+02  0.79783810472E+02 0.  0.
          6    2    1    2  501    0  0.59454349877E+02 -0.85374272765E+02  0.65856570488E+03  0.68828011431E+03  0.17087171195E+03 0.  0.
         24    2    5    5    0    0  0.60909145079E+02 -0.82320885276E+00  0.23823409034E+03  0.25950073629E+03  0.82912898314E+02 0.  0.
          5    1    5    5  501    0 -0.14547952019E+01 -0.84551063913E+02  0.42033161454E+03  0.42877937802E+03  0.47000000000E+01 0. -1.
        -13    1    6    6    0    0 -0.56225435078E+01 -0.18072003917E+02  0.10548826439E+02  0.21667673164E+02  0.00000000000E+00 0.  1.
         14    1    6    6    0    0  0.66531688587E+02  0.17248795065E+02  0.22768526390E+03  0.23783306312E+03  0.00000000000E+00 0. -1.
         -5    1    3    3    0  503 -0.55243263393E+02  0.56319837665E+02 -0.12622997385E+03  0.14892897153E+03  0.47000000000E+01 0.  1.
         11    1    4    4    0    0 -0.34425244826E+01  0.48564796188E+02 -0.19927087756E+02  0.52606836343E+02  0.00000000000E+00 0. -1.
        -12    1    4    4    0    0 -0.76856200208E+00 -0.19510361087E+02  0.26148717372E+02  0.32634342303E+02  0.00000000000E+00 0.  1.
</event>
<event>
12    1  0.8417180E-002  0.1927788E+03  0.7818608E-02  0.1156249E+00
         21   -1    0    0  503  502  0.00000000000E+00  0.00000000000E+00  0.23479921063E+03  0.23479921063E+03  0.00000000000E+00 0. -1.
         21   -1    0    0  501  503 -0.00000000000E+00 -0.00000000000E+00 -0.20360185732E+03  0.20360185732E+03  0.00000000000E+00 0.  1.
          6    2    1    2  501    0  0.44840615248E+02 -0.73769899790E+02 -0.88991875060E+02  0.21122464973E+03  0.17100766047E+03 0.  0.
         24    2    3    3    0    0  0.14590202743E+02  0.33131654918E+02 -0.46016362161E+02  0.92010495521E+02  0.70977779100E+02 0.  0.
         -6    2    1    2    0  502 -0.44840615248E+02  0.73769899790E+02  0.12018922837E+03  0.22717641821E+03  0.17236877758E+03 0.  0.
        -24    2    5    5    0    0 -0.68334303068E+01  0.61596294051E+02  0.11819722394E+01  0.10156766137E+03  0.80459887944E+02 0.  0.
          5    1    3    3  501    0  0.30250412505E+02 -0.10690155471E+03 -0.42975512899E+02  0.11921415421E+03  0.47000000000E+01 0. -1.
        -13    1    4    4    0    0  0.22028014387E+02 -0.72353044025E+01 -0.45378901253E+02  0.50959078941E+02  0.00000000000E+00 0.  1.
         14    1    4    4    0    0 -0.74378116437E+01  0.40366959321E+02 -0.63746090786E+00  0.41051416580E+02  0.00000000000E+00 0. -1.
         -5    1    5    5    0  502 -0.38007184941E+02  0.12173605739E+02  0.11900725613E+03  0.12560875684E+03  0.47000000000E+01 0.  1.
         13    1    6    6    0    0  0.28900306394E+02  0.26088295070E+02  0.24558760307E+02  0.46032157859E+02  0.00000000000E+00 0. -1.
        -14    1    6    6    0    0 -0.35733736701E+02  0.35507998980E+02 -0.23376788068E+02  0.55535503514E+02  0.00000000000E+00 0.  1.
</event>
<event>
12    1  0.8417180E-002  0.1943790E+03  0.7818608E-02  0.1154944E+00
         21   -1    0    0  501  502  0.00000000000E+00  0.00000000000E+00  0.35233539629E+03  0.35233539629E+03  0.00000000000E+00 0. -1.
         21   -1    0    0  502  503 -0.00000000000E+00 -0.00000000000E+00 -0.31931858469E+03  0.31931858469E+03  0.00000000000E+00 0. -1.
         -6    2    1    2    0  503 -0.18668302277E+02  0.88210909078E+02 -0.25775777233E+03  0.32283473117E+03  0.17220198741E+03 0.  0.
        -24    2    3    3    0    0 -0.76929404136E+02  0.48555862026E+02 -0.19619833639E+03  0.22914090588E+03  0.75736137905E+02 0.  0.
          6    2    1    2  501    0  0.18668302277E+02 -0.88210909078E+02  0.29077458393E+03  0.34881924981E+03  0.17028018202E+03 0.  0.
         24    2    5    5    0    0 -0.38594782572E+01 -0.73535230513E+02  0.77058204667E+02  0.13336703422E+03  0.80165286828E+02 0.  0.
          5    1    5    5  501    0  0.22527780534E+02 -0.14675678565E+02  0.21371637926E+03  0.21545221559E+03  0.47000000000E+01 0. -1.
        -13    1    6    6    0    0 -0.18174488903E+02 -0.35128078828E+02 -0.67027392247E+01  0.40115092947E+02  0.00000000000E+00 0.  1.
         14    1    6    6    0    0  0.14315010646E+02 -0.38407151685E+02  0.83760943891E+02  0.93251941277E+02  0.00000000000E+00 0. -1.
         -5    1    3    3    0  503  0.58261101859E+02  0.39655047052E+02 -0.61559435936E+02  0.93693825299E+02  0.47000000000E+01 0.  1.
         11    1    4    4    0    0 -0.87370919847E+01 -0.19876219178E+02 -0.33443093703E+02  0.39872815070E+02  0.00000000000E+00 0. -1.
        -12    1    4    4    0    0 -0.68192312151E+02  0.68432081204E+02 -0.16275524269E+03  0.18926809080E+03  0.00000000000E+00 0.  1.
</event>
<event>
12    1  0.8417180E-002  0.2013269E+03  0.7818608E-02  0.1148716E+00
         21   -1    0    0  501  502  0.00000000000E+00  0.00000000000E+00  0.14887280643E+03  0.14887280643E+03  0.00000000000E+00 0.  1.
         21   -1    0    0  502  503 -0.00000000000E+00 -0.00000000000E+00 -0.27291100085E+03  0.27291100085E+03  0.00000000000E+00 0.  1.
         -6    2    1    2    0  503 -0.77083646146E+02  0.71218892021E+02 -0.76182705823E+02  0.21484739212E+03  0.17129383571E+03 0.  0.
        -24    2    3    3    0    0 -0.24483601612E+02  0.90420300548E+02 -0.94877938097E+02  0.15562695237E+03  0.80266105354E+02 0.  0.
          6    2    1    2  501    0  0.77083646146E+02 -0.71218892021E+02 -0.47855488600E+02  0.20693641516E+03  0.17180952548E+03 0.  0.
         24    2    5    5    0    0  0.10342335748E+03 -0.53902980515E+01 -0.33961065838E+02  0.13453248460E+03  0.78868176306E+02 0.  0.
          5    1    5    5  501    0 -0.26339711330E+02 -0.65828593970E+02 -0.13894422762E+02  0.72403930562E+02  0.47000000000E+01 0. -1.
        -11    1    6    6    0    0  0.25044080367E+02  0.14151047430E+02 -0.44584053968E+02  0.53058420377E+02  0.00000000000E+00 0.  1.
         12    1    6    6    0    0  0.78379277109E+02 -0.19541345481E+02  0.10622988130E+02  0.81474064218E+02  0.00000000000E+00 0. -1.
         -5    1    3    3    0  503 -0.52600044534E+02 -0.19201408526E+02  0.18695232274E+02  0.59220439749E+02  0.47000000000E+01 0.  1.
         11    1    4    4    0    0  0.12492716753E+02  0.36175724587E+02  0.23129225791E+01  0.38341891348E+02  0.00000000000E+00 0. -1.
        -12    1    4    4    0    0 -0.36976318365E+02  0.54244575961E+02 -0.97190860676E+02  0.11728506103E+03  0.00000000000E+00 0.  1.
</event>
<event>
12    1  0.8417180E-002  0.2305510E+03  0.7818608E-02  0.1128038E+00
         21   -1    0    0  503  502  0.00000000000E+00  0.00000000000E+00  0.68480039416E+03  0.68480039416E+03  0.00000000000E+00 0. -1.
         21   -1    0    0  501  503 -0.00000000000E+00 -0.00000000000E+00 -0.75097747930E+02  0.75097747930E+02  0.00000000000E+00 0. -1.
          6    2    1    2  501    0  0.95876581583E+02  0.10092083629E+03  0.35044850014E+03  0.41948528230E+03  0.18378361386E+03 0.  0.
         24    2    3    3    0    0  0.79335562832E+02  0.69258221363E+02  0.35878361749E+03  0.38250298024E+03  0.80573028713E+02 0.  0.
         -6    2    1    2    0  502 -0.95876581583E+02 -0.10092083629E+03  0.25925414609E+03  0.34041285979E+03  0.17114575295E+03 0.  0.
        -24    2    5    5    0    0 -0.85879895700E+02 -0.10211057349E+03  0.27806360401E+03  0.31856715288E+03  0.79773036257E+02 0.  0.
          5    1    3    3  501    0  0.16541018751E+02  0.31662614922E+02 -0.83351173449E+01  0.36982302067E+02  0.47000000000E+01 0. -1.
        -11    1    4    4    0    0 -0.45628159510E+01  0.22006938781E+02  0.16061151208E+03  0.16217639303E+03  0.00000000000E+00 0.  1.
         12    1    4    4    0    0  0.83898378783E+02  0.47251282582E+02  0.19817210541E+03  0.22032658721E+03  0.00000000000E+00 0. -1.
         -5    1    5    5    0  502 -0.99966858835E+01  0.11897372013E+01 -0.18809457920E+02  0.21845706913E+02  0.47000000000E+01 0.  1.
         13    1    6    6    0    0 -0.42716098767E+02 -0.10338410380E+03  0.21065605096E+03  0.23851396148E+03  0.00000000000E+00 0. -1.
        -14    1    6    6    0    0 -0.43163796932E+02  0.12735303175E+01  0.67407553047E+02  0.80053191397E+02  0.00000000000E+00 0.  1.
</event>
<event>
12    1  0.8417180E-002  0.2550701E+03  0.7818608E-02  0.1110170E+00
         21   -1    0    0  503  502  0.00000000000E+00  0.00000000000E+00  0.88219699324E+02  0.88219699324E+02  0.00000000000E+00 0. -1.
         21   -1    0    0  501  503 -0.00000000000E+00 -0.00000000000E+00 -0.73715493345E+03  0.73715493345E+03  0.00000000000E+00 0.  1.
          6    2    1    2  501    0  0.97812467139E+02  0.16108600062E+03 -0.33129122083E+03  0.41810837904E+03  0.17188590780E+03 0.  0.
         24    2    3    3    0    0  0.21404654809E+02  0.15571443471E+03 -0.25420367718E+03  0.30933528084E+03  0.79772564570E+02 0.  0.
         -6    2    1    2    0  502 -0.97812467139E+02 -0.16108600062E+03 -0.31764401329E+03  0.40726625373E+03  0.17161615287E+03 0.  0.
        -24    2    5    5    0    0 -0.12418374230E+03 -0.88896261642E+02 -0.17848383279E+03  0.24822396877E+03  0.80215415727E+02 0.  0.
          5    1    3    3  501    0  0.76407812330E+02  0.53715659125E+01 -0.77087543655E+02  0.10877309820E+03  0.47000000000E+01 0. -1.
        -13    1    4    4    0    0 -0.11032060340E+02 -0.26638438721E+01 -0.36144007190E+02  0.37883923705E+02  0.00000000000E+00 0.  1.
         14    1    4    4    0    0  0.32436715149E+02  0.15837827858E+03 -0.21805966999E+03  0.27145135714E+03  0.00000000000E+00 0. -1.
         -5    1    5    5    0  502  0.26371275163E+02 -0.72189738978E+02 -0.13916018051E+03  0.15904228496E+03  0.47000000000E+01 0.  1.
         13    1    6    6    0    0 -0.84499901626E+02 -0.59427368027E+02 -0.59107763519E+02  0.11901921338E+03  0.00000000000E+00 0. -1.
        -14    1    6    6    0    0 -0.39683840675E+02 -0.29468893615E+02 -0.11937606927E+03  0.12920475539E+03  0.00000000000E+00 0.  1.
</event>
<event>
12    1  0.8417180E-002  0.1980648E+03  0.7818608E-02  0.1151527E+00
         21   -1    0    0  503  502  0.00000000000E+00  0.00000000000E+00  0.82406252079E+03  0.82406252079E+03  0.00000000000E+00 0. -1.
         21   -1    0    0  501  503 -0.00000000000E+00 -0.00000000000E+00 -0.38403188546E+03  0.38403188546E+03  0.00000000000E+00 0. -1.
          6    2    1    2  501    0  0.32049300193E+02  0.92337699444E+02 -0.34553679801E+03  0.39794264705E+03  0.17149129185E+03 0.  0.
         24    2    3    3    0    0  0.65803504988E+02  0.10244810880E+02 -0.22783035981E+03  0.25044524270E+03  0.79881720836E+02 0.  0.
         -6    2    1    2    0  502 -0.32049300193E+02 -0.92337699444E+02  0.78556743334E+03  0.81015175920E+03  0.17226802440E+03 0.  0.
        -24    2    5    5    0    0 -0.55455195106E+02 -0.14067673077E+01  0.50837493531E+03  0.51745047581E+03  0.78947212769E+02 0.  0.
          5    1    3    3  501    0 -0.33754204795E+02  0.82092888564E+02 -0.11770643821E+03  0.14749740435E+03  0.47000000000E+01 0. -1.
        -13    1    4    4    0    0  0.23057646195E+01  0.34787588536E+02 -0.61001107969E+02  0.70261141751E+02  0.00000000000E+00 0.  1.
         14    1    4    4    0    0  0.63497740369E+02 -0.24542777657E+02 -0.16682925184E+03  0.18018410095E+03  0.00000000000E+00 0. -1.
         -5    1    5    5    0  502  0.23405894913E+02 -0.90930932136E+02  0.27719249804E+03  0.29270128340E+03  0.47000000000E+01 0.  1.
         11    1    6    6    0    0 -0.13439873451E+01 -0.28614562741E+02  0.26944808840E+03  0.27096655115E+03  0.00000000000E+00 0. -1.
        -12    1    6    6    0    0 -0.54111207761E+02  0.27207795433E+02  0.23892684691E+03  0.24648392465E+03  0.00000000000E+00 0.  1.
</event>
<event>
12    1  0.8417180E-002  0.1840313E+03  0.7818608E-02  0.1165537E+00
         21   -1    0    0  503  502  0.00000000000E+00  0.00000000000E+00  0.41600655571E+03  0.41600655571E+03  0.00000000000E+00 0.  1.
         21   -1    0    0  501  503 -0.00000000000E+00 -0.00000000000E+00 -0.11180221300E+03  0.11180221300E+03  0.00000000000E+00 0.  1.
          6    2    1    2  501    0 -0.46944590109E+02  0.15644573164E+02  0.61905829187E+01  0.17755213826E+03  0.17040507995E+03 0.  0.
         24    2    3    3    0    0 -0.70302982561E+01 -0.38068602918E+02 -0.38301119824E+02  0.97054575615E+02  0.80336612116E+02 0.  0.
         -6    2    1    2    0  502  0.46944590109E+02 -0.15644573164E+02  0.29801375979E+03  0.35025663045E+03  0.17725393913E+03 0.  0.
        -24    2    5    5    0    0  0.60491765344E+02  0.52917889974E+02  0.16884903716E+03  0.20332143084E+03  0.79812593860E+02 0.  0.
          5    1    3    3  501    0 -0.39914291853E+02  0.53713176082E+02  0.44491702743E+02  0.80497562646E+02  0.47000000000E+01 0. -1.
        -13    1    4    4    0    0  0.27659908163E+02  0.60069525813E+01 -0.28402413368E+02  0.40098018455E+02  0.00000000000E+00 0.  1.
         14    1    4    4    0    0 -0.34690206419E+02 -0.44075555499E+02 -0.98987064564E+01  0.56956557160E+02  0.00000000000E+00 0. -1.
         -5    1    5    5    0  502 -0.13547175235E+02 -0.68562463138E+02  0.12916472264E+03  0.14693519960E+03  0.47000000000E+01 0.  1.
         11    1    6    6    0    0  0.66326884626E+02  0.11462888054E+02  0.76312725307E+02  0.10175600951E+03  0.00000000000E+00 0. -1.
        -12    1    6    6    0    0 -0.58351192827E+01  0.41455001920E+02  0.92536311848E+02  0.10156542134E+03  0.00000000000E+00 0.  1.
</event>
<event>
12    1  0.8417180E-002  0.1866413E+03  0.7818608E-02  0.1161624E+00
         21   -1    0    0  501  502  0.00000000000E+00  0.00000000000E+00  0.43417537788E+03  0.43417537788E+03  0.00000000000E+00 0.  1.
         21   -1    0    0  502  503 -0.00000000000E+00 -0.00000000000E+00 -0.13399401651E+03  0.13399401651E+03  0.00000000000E+00 0.  1.
         -6    2    1    2    0  503 -0.70922210680E+02 -0.34418547495E+00 -0.30262716337E+02  0.18865884725E+03  0.17218086483E+03 0.  0.
        -24    2    3    3    0    0 -0.31264753576E+02  0.14705938757E+02  0.47248579182E+02  0.10017545290E+03  0.81295409943E+02 0.  0.
          6    2    1    2  501    0  0.70922210680E+02  0.34418547495E+00  0.33044407771E+03  0.37951054714E+03  0.17264092350E+03 0.  0.
         24    2    5    5    0    0  0.10068723028E+03 -0.45593042509E+02  0.22467343427E+03  0.26032286187E+03  0.71226374875E+02 0.  0.
          5    1    5    5  501    0 -0.29765019603E+02  0.45937227984E+02  0.10577064344E+03  0.11918768528E+03  0.47000000000E+01 0. -1.
        -13    1    6    6    0    0 -0.10541017811E+02 -0.86847705651E+01  0.32228991205E+02  0.35003516543E+02  0.00000000000E+00 0.  1.
         14    1    6    6    0    0  0.11122824809E+03 -0.36908271944E+02  0.19244444306E+03  0.22531934532E+03  0.00000000000E+00 0. -1.
         -5    1    3    3    0  503 -0.39657457104E+02 -0.15050124232E+02 -0.77511295519E+02  0.88483394354E+02  0.47000000000E+01 0.  1.
         13    1    4    4    0    0 -0.18260011681E+02  0.75741908483E+01  0.70154677578E+02  0.72886728419E+02  0.00000000000E+00 0. -1.
        -14    1    4    4    0    0 -0.13004741894E+02  0.71317479086E+01 -0.22906098396E+02  0.27288724479E+02  0.00000000000E+00 0.  1.
</event>
<event>
12    1  0.8417180E-002  0.2801632E+03  0.7818608E-02  0.1096419E+00
         21   -1    0    0  501  502  0.00000000000E+00  0.00000000000E+00  0.18530866889E+03  0.18530866889E+03  0.00000000000E+00 0.  1.
         21   -1    0    0  502  503 -0.00000000000E+00 -0.00000000000E+00 -0.41933655559E+03  0.41933655559E+03  0.00000000000E+00 0. -1.
         -6    2    1    2    0  503  0.15180178830E+03  0.16130278263E+03 -0.14775375640E+03  0.31149909470E+03  0.16167295029E+03 0.  0.
        -24    2    3    3    0    0  0.12155869980E+03  0.15165962399E+03 -0.17189564969E+03  0.27134245239E+03  0.79381692080E+02 0.  0.
          6    2    1    2  501    0 -0.15180178830E+03 -0.16130278263E+03 -0.86274130309E+02  0.29314612978E+03  0.17154899366E+03 0.  0.
         24    2    5    5    0    0 -0.12127929167E+03 -0.65326776297E+02 -0.10464574220E+03  0.19066382537E+03  0.80160518069E+02 0.  0.
          5    1    5    5  501    0 -0.30522496633E+02 -0.95976006333E+02  0.18371611886E+02  0.10248230440E+03  0.47000000000E+01 0. -1.
        -11    1    6    6    0    0 -0.46663399554E+02 -0.70525112139E+02 -0.56960704144E+02  0.10195972792E+03  0.00000000000E+00 0.  1.
         12    1    6    6    0    0 -0.74615892114E+02  0.51983358424E+01 -0.47685038051E+02  0.88704097456E+02  0.00000000000E+00 0. -1.
         -5    1    3    3    0  503  0.30243088499E+02  0.96431586389E+01  0.24141893292E+02  0.40156642318E+02  0.47000000000E+01 0.  1.
         11    1    4    4    0    0  0.12492435605E+03  0.11014446353E+03 -0.15070459792E+03  0.22461027005E+03  0.00000000000E+00 0. -1.
        -12    1    4    4    0    0 -0.33656562449E+01  0.41515160465E+02 -0.21191051769E+02  0.46732182331E+02  0.00000000000E+00 0.  1.
</event>
<event>
12    1  0.8417180E-002  0.1911986E+03  0.7818608E-02  0.1157516E+00
         21   -1    0    0  501  502  0.00000000000E+00  0.00000000000E+00  0.50433151528E+02  0.50433151528E+02  0.00000000000E+00 0.  1.
         21   -1    0    0  502  503 -0.00000000000E+00 -0.00000000000E+00 -0.75712764546E+03  0.75712764546E+03  0.00000000000E+00 0.  1.
         -6    2    1    2    0  503 -0.13811850564E+02  0.80723804078E+02 -0.44004252558E+03  0.47978570418E+03  0.17277094041E+03 0.  0.
        -24    2    3    3    0    0 -0.69418687763E+02  0.83757076425E+02 -0.28590945958E+03  0.31583323204E+03  0.78563409558E+02 0.  0.
          6    2    1    2  501    0  0.13811850564E+02 -0.80723804078E+02 -0.26665196834E+03  0.32777509281E+03  0.17212245490E+03 0.  0.
         24    2    5    5    0    0 -0.19348435340E+02 -0.93179760184E+01 -0.22253667354E+03  0.23740559531E+03  0.79860246605E+02 0.  0.
          5    1    5    5  501    0  0.33160285904E+02 -0.71405828060E+02 -0.44115294807E+02  0.90369497498E+02  0.47000000000E+01 0. -1.
        -11    1    6    6    0    0 -0.45007482009E+02 -0.96519947513E+01 -0.77684088189E+02  0.90297574703E+02  0.00000000000E+00 0.  1.
         12    1    6    6    0    0  0.25659046669E+02  0.33401873289E+00 -0.14485258535E+03  0.14710802061E+03  0.00000000000E+00 0. -1.
         -5    1    3    3    0  503  0.55606837199E+02 -0.30332723474E+01 -0.15413306600E+03  0.16395247214E+03  0.47000000000E+01 0.  1.
         13    1    4    4    0    0 -0.83472196435E+02  0.51193586060E+02 -0.22434055003E+03  0.24477964217E+03  0.00000000000E+00 0. -1.
        -14    1    4    4    0    0  0.14053508672E+02  0.32563490365E+02 -0.61568909552E+02  0.71053589875E+02  0.00000000000E+00 0.  1.
</event>
<event>
12    1  0.8417180E-002  0.3652100E+03  0.7818608E-02  0.1056797E+00
         21   -1    0    0  503  502  0.00000000000E+00  0.00000000000E+00  0.89605249436E+03  0.89605249436E+03  0.00000000000E+00 0. -1.
         21   -1    0    0  501  503 -0.00000000000E+00 -0.00000000000E+00 -0.50679647841E+03  0.50679647841E+03  0.00000000000E+00 0.  1.
          6    2    1    2  501    0  0.32056180023E+03  0.84853697607E+01 -0.39553304889E+03  0.53835371002E+03  0.17477544183E+03 0.  0.
         24    2    3    3    0    0  0.28715342990E+03 -0.33892881083E+02 -0.28176133019E+03  0.41234526059E+03  0.83865052626E+02 0.  0.
         -6    2    1    2    0  502 -0.32056180023E+03 -0.84853697607E+01  0.78478906483E+03  0.86449526274E+03  0.16919312563E+03 0.  0.
        -24    2    5    5    0    0 -0.28137436260E+03 -0.99863623667E+01  0.51112543082E+03  0.58799610754E+03  0.72242349711E+02 0.  0.
          5    1    3    3  501    0  0.33408370332E+02  0.42378250844E+02 -0.11377171870E+03  0.12600844943E+03  0.47000000000E+01 0. -1.
        -13    1    4    4    0    0  0.17717297569E+03 -0.49357460620E+02 -0.21428965982E+03  0.28239419353E+03  0.00000000000E+00 0.  1.
         14    1    4    4    0    0  0.10998045420E+03  0.15464579537E+02 -0.67471670367E+02  0.12995106706E+03  0.00000000000E+00 0. -1.
         -5    1    5    5    0  502 -0.39187437631E+02  0.15009926060E+01  0.27366363402E+03  0.27649915521E+03  0.47000000000E+01 0.  1.
         13    1    6    6    0    0 -0.26400775018E+03  0.16723544408E+01  0.49695226857E+03  0.56272946089E+03  0.00000000000E+00 0. -1.
        -14    1    6    6    0    0 -0.17366612421E+02 -0.11658716808E+02  0.14173162252E+02  0.25266646647E+02  0.00000000000E+00 0.  1.
</event>
<event>
12    1  0.8417180E-002  0.1820371E+03  0.7818608E-02  0.1166349E+00
         21   -1    0    0  501  502  0.00000000000E+00  0.00000000000E+00  0.75935736717E+02  0.75935736717E+02  0.00000000000E+00 0.  1.
         21   -1    0    0  502  503 -0.00000000000E+00 -0.00000000000E+00 -0.46278689304E+03  0.46278689304E+03  0.00000000000E+00 0.  1.
         -6    2    1    2    0  503 -0.49387101741E+02 -0.27164067702E+02 -0.26255863518E+03  0.31830002660E+03  0.17088270138E+03 0.  0.
        -24    2    3    3    0    0 -0.24133459915E+02 -0.61361642021E+02 -0.25469519359E+03  0.27481273847E+03  0.79402295868E+02 0.  0.
          6    2    1    2  501    0  0.49387101741E+02  0.27164067702E+02 -0.12429252114E+03  0.22042260316E+03  0.17309107654E+03 0.  0.
         24    2    5    5    0    0  0.31211543160E+02  0.32023170544E+02  0.41373176161E+01  0.90536979269E+02  0.78614142112E+02 0.  0.
          5    1    5    5  501    0  0.18175558581E+02 -0.48591028425E+01 -0.12842983876E+03  0.12988562389E+03  0.47000000000E+01 0. -1.
        -13    1    6    6    0    0  0.24656155948E+02  0.55409317313E+02 -0.11393356239E+02  0.61708403298E+02  0.00000000000E+00 0.  1.
         14    1    6    6    0    0  0.65553872117E+01 -0.23386146768E+02  0.15530673855E+02  0.28828575972E+02  0.00000000000E+00 0. -1.
         -5    1    3    3    0  503 -0.25253641825E+02  0.34197574319E+02 -0.78634415890E+01  0.43487288124E+02  0.47000000000E+01 0.  1.
         13    1    4    4    0    0  0.16299550040E+02  0.10156806183E+02 -0.71582213213E+02  0.74113759126E+02  0.00000000000E+00 0. -1.
        -14    1    4    4    0    0 -0.40433009956E+02 -0.71518448204E+02 -0.18311298038E+03  0.20069897935E+03  0.00000000000E+00 0.  1.
</event>
<event>
12    1  0.8417180E-002  0.2042536E+03  0.7818608E-02  0.1146660E+00
         21   -1    0    0  503  502  0.00000000000E+00  0.00000000000E+00  0.74839435551E+02  0.74839435551E+02  0.00000000000E+00 0. -1.
         21   -1    0    0  501  503 -0.00000000000E+00 -0.00000000000E+00 -0.85473001401E+03  0.85473001401E+03  0.00000000000E+00 0. -1.
          6    2    1    2  501    0 -0.90687539653E+02  0.55253160798E+02 -0.11443711072E+03  0.23412689983E+03  0.17447753806E+03 0.  0.
         24    2    3    3    0    0 -0.88130356510E+02  0.26954267680E+02 -0.14662500581E+03  0.19093526722E+03  0.80398331177E+02 0.  0.
         -6    2    1    2    0  502  0.90687539653E+02 -0.55253160798E+02 -0.66545346773E+03  0.69544254972E+03  0.17185715179E+03 0.  0.
        -24    2    5    5    0    0 -0.57352064093E+01  0.46062713681E+01 -0.38047294320E+03  0.38865844495E+03  0.79003898619E+02 0.  0.
          5    1    3    3  501    0 -0.25571831432E+01  0.28298893118E+02  0.32187895088E+02  0.43191632610E+02  0.47000000000E+01 0. -1.
        -11    1    4    4    0    0 -0.89103939197E+02 -0.56843535602E+01 -0.11366689963E+03  0.14454060996E+03  0.00000000000E+00 0.  1.
         12    1    4    4    0    0  0.97358268677E+00  0.32638621240E+02 -0.32958106175E+02  0.46394657261E+02  0.00000000000E+00 0. -1.
         -5    1    5    5    0  502  0.96422746062E+02 -0.59859432166E+02 -0.28498052454E+03  0.30678410478E+03  0.47000000000E+01 0.  1.
         13    1    6    6    0    0 -0.40646727679E+02 -0.90567579066E+01 -0.18598475448E+03  0.19058990066E+03  0.00000000000E+00 0. -1.
        -14    1    6    6    0    0  0.34911521270E+02  0.13663029275E+02 -0.19448818872E+03  0.19806854429E+03  0.00000000000E+00 0.  1.
</event>
<event>
12    1  0.8417180E-002  0.3909831E+03  0.7818608E-02  0.1046952E+00
         21   -1    0    0  503  502  0.00000000000E+00  0.00000000000E+00  0.23625592608E+03  0.23625592608E+03  0.00000000000E+00 0.  1.
         21   -1    0    0  501  503 -0.00000000000E+00 -0.00000000000E+00 -0.10208219455E+04  0.10208219455E+04  0.00000000000E+00 0. -1.
          6    2    1    2  501    0  0.29733175536E+03  0.18598817425E+03 -0.77267362540E+03  0.86596323002E+03  0.17282942647E+03 0.  0.
         24    2    3    3    0    0  0.17737401896E+03  0.89753083465E+02 -0.58635531888E+03  0.62432785892E+03  0.80346480045E+02 0.  0.
         -6    2    1    2    0  502 -0.29733175536E+03 -0.18598817425E+03 -0.11892393989E+02  0.39111464153E+03  0.17271786264E+03 0.  0.
        -24    2    5    5    0    0 -0.11568663522E+03 -0.51803505189E+02 -0.58324599691E+02  0.16050996939E+03  0.79339086385E+02 0.  0.
          5    1    3    3  501    0  0.11995773641E+03  0.96235090790E+02 -0.18631830652E+03  0.24163537111E+03  0.47000000000E+01 0. -1.
        -13    1    4    4    0    0  0.44198369275E+01 -0.31552908152E+01 -0.95658200165E+02  0.95812223006E+02  0.00000000000E+00 0.  1.
         14    1    4    4    0    0  0.17295418203E+03  0.92908374280E+02 -0.49069711871E+03  0.52851563591E+03  0.00000000000E+00 0. -1.
         -5    1    5    5    0  502 -0.18164512015E+03 -0.13418466907E+03  0.46432205702E+02  0.23060467214E+03  0.47000000000E+01 0.  1.
         11    1    6    6    0    0 -0.10677279018E+03 -0.43646644695E+02 -0.15950497608E+02  0.11644688355E+03  0.00000000000E+00 0. -1.
        -12    1    6    6    0    0 -0.89138450396E+01 -0.81568604940E+01 -0.42374102084E+02  0.44063085842E+02  0.00000000000E+00 0.  1.
</event>
<event>
12    1  0.8417180E-002  0.2125927E+03  0.7818608E-02  0.1141322E+00
         21   -1    0    0  501  502  0.00000000000E+00  0.00000000000E+00  0.12792414700E+03  0.12792414700E+03  0.00000000000E+00 0. -1.
         21   -1    0    0  502  503 -0.00000000000E+00 -0.00000000000E+00 -0.68162568340E+03  0.68162568340E+03  0.00000000000E+00 0. -1.
         -6    2    1    2    0  503 -0.66610758896E+02  0.10555626564E+03 -0.56697055719E+03  0.60551734423E+03  0.17209451772E+03 0.  0.
        -24    2    3    3    0    0 -0.10053660956E+03  0.83453085246E+02 -0.52462839350E+03  0.54674266641E+03  0.81366852633E+02 0.  0.
          6    2    1    2  501    0  0.66610758896E+02 -0.10555626564E+03  0.13269020788E+02  0.20403248616E+03  0.16085418888E+03 0.  0.
         24    2    5    5    0    0  0.91779967986E+01 -0.13620394009E+02  0.43277474791E+02  0.91456627444E+02  0.78877272524E+02 0.  0.
          5    1    5    5  501    0  0.57432762097E+02 -0.91935871630E+02 -0.30008454004E+02  0.11257585872E+03  0.47000000000E+01 0. -1.
        -13    1    6    6    0    0 -0.87496574078E+01  0.30593153869E+02  0.10248517271E+02  0.33429473144E+02  0.00000000000E+00 0.  1.
         14    1    6    6    0    0  0.17927654206E+02 -0.44213547878E+02  0.33028957520E+02  0.58027154300E+02  0.00000000000E+00 0. -1.
         -5    1    3    3    0  503  0.33925850666E+02  0.22103180393E+02 -0.42342163684E+02  0.58774677815E+02  0.47000000000E+01 0.  1.
         13    1    4    4    0    0 -0.34399862974E+02  0.55865463136E+02 -0.37670917780E+03  0.38237953028E+03  0.00000000000E+00 0. -1.
        -14    1    4    4    0    0 -0.66136746588E+02  0.27587622109E+02 -0.14791921571E+03  0.16436313613E+03  0.00000000000E+00 0.  1.
</event>
<event>
12    1  0.8417180E-002  0.2279128E+03  0.7818608E-02  0.1128208E+00
         21   -1    0    0  503  502  0.00000000000E+00  0.00000000000E+00  0.16145592683E+03  0.16145592683E+03  0.00000000000E+00 0.  1.
         21   -1    0    0  501  503 -0.00000000000E+00 -0.00000000000E+00 -0.37859857787E+03  0.37859857787E+03  0.00000000000E+00 0.  1.
          6    2    1    2  501    0 -0.14750742400E+03 -0.31204305899E+01 -0.21378721628E+03  0.31211696761E+03  0.17304291492E+03 0.  0.
         24    2    3    3    0    0 -0.11847703619E+03  0.53962598305E+02 -0.18664132331E+03  0.24240165287E+03  0.83515313735E+02 0.  0.
         -6    2    1    2    0  502  0.14750742400E+03  0.31204305899E+01 -0.33554347563E+01  0.22793753708E+03  0.17371264964E+03 0.  0.
        -24    2    5    5    0    0  0.19599431462E+02 -0.40973523442E+02  0.68630695681E+01  0.92175837151E+02  0.79914428570E+02 0.  0.
          5    1    3    3  501    0 -0.29030387811E+02 -0.57083028895E+02 -0.27145892971E+02  0.69715314741E+02  0.47000000000E+01 0. -1.
        -13    1    4    4    0    0 -0.10626578161E+03  0.36207518011E+02 -0.91439586285E+02  0.14479156965E+03  0.00000000000E+00 0.  1.
         14    1    4    4    0    0 -0.12211254585E+02  0.17755080294E+02 -0.95201737024E+02  0.97610083225E+02  0.00000000000E+00 0. -1.
         -5    1    5    5    0  502  0.12790799254E+03  0.44093954032E+02 -0.10218504324E+02  0.13576169993E+03  0.47000000000E+01 0.  1.
         11    1    6    6    0    0 -0.11814058137E+02 -0.29136009995E+02 -0.29198669391E+02  0.42907357671E+02  0.00000000000E+00 0. -1.
        -12    1    6    6    0    0  0.31413489599E+02 -0.11837513447E+02  0.36061738959E+02  0.49268479479E+02  0.00000000000E+00 0.  1.
</event>
<event>
12    1  0.8417180E-002  0.1879883E+03  0.7818608E-02  0.1160433E+00
         21   -1    0    0  501  502  0.00000000000E+00  0.00000000000E+00  0.54134856003E+02  0.54134856003E+02  0.00000000000E+00 0. -1.
         21   -1    0    0  502  503 -0.00000000000E+00 -0.00000000000E+00 -0.79850911071E+03  0.79850911071E+03  0.00000000000E+00 0. -1.
         -6    2    1    2    0  503  0.28527807490E+02 -0.68721338562E+02 -0.55515075282E+03  0.58591352261E+03  0.17194719960E+03 0.  0.
        -24    2    3    3    0    0 -0.21408394614E+02 -0.99679282278E+02 -0.35594304534E+03  0.37816892153E+03  0.76954551583E+02 0.  0.
          6    2    1    2  501    0 -0.28527807490E+02  0.68721338562E+02 -0.18922350189E+03  0.26673044410E+03  0.17263585366E+03 0.  0.
         24    2    5    5    0    0 -0.57222333515E+02  0.10350524224E+03 -0.13658414370E+03  0.19725895491E+03  0.79171562821E+02 0.  0.
          5    1    5    5  501    0  0.28694526024E+02 -0.34783903681E+02 -0.52639358191E+02  0.69471489187E+02  0.47000000000E+01 0. -1.
        -11    1    6    6    0    0 -0.55852290696E+02  0.59636804668E+02 -0.12902895676E+03  0.15272360174E+03  0.00000000000E+00 0.  1.
         12    1    6    6    0    0 -0.13700428189E+01  0.43868437576E+02 -0.75551869427E+01  0.44535353175E+02  0.00000000000E+00 0. -1.
         -5    1    3    3    0  503  0.49936202105E+02  0.30957943715E+02 -0.19920770748E+03  0.20774460108E+03  0.47000000000E+01 0.  1.
         11    1    4    4    0    0 -0.15896773421E+02 -0.55184416105E+02 -0.30476899994E+03  0.31013250476E+03  0.00000000000E+00 0. -1.
        -12    1    4    4    0    0 -0.55116211932E+01 -0.44494866172E+02 -0.51174045401E+02  0.68036416767E+02  0.00000000000E+00 0.  1.
</event>
<event>
12    1  0.8417180E-002  0.1957599E+03  0.7818608E-02  0.1153386E+00
         21   -1    0    0  501  502  0.00000000000E+00  0.00000000000E+00  0.11667401969E+03  0.11667401969E+03  0.00000000000E+00 0. -1.
         21   -1    0    0  502  503 -0.00000000000E+00 -0.00000000000E+00 -0.33629901440E+03  0.33629901440E+03  0.00000000000E+00 0.  1.
         -6    2    1    2    0  503 -0.81891886153E+02 -0.45705626997E+02 -0.14475582901E+03  0.24346703892E+03  0.17183324372E+03 0.  0.
        -24    2    3    3    0    0 -0.62801902471E+02  0.37364143524E+02 -0.73208147885E+02  0.13208402887E+03  0.82137686793E+02 0.  0.
          6    2    1    2  501    0  0.81891886153E+02  0.45705626997E+02 -0.74869165695E+02  0.20950599518E+03  0.17173259646E+03 0.  0.
         24    2    5    5    0    0 -0.61075735419E+01 -0.13522879554E+02 -0.62216250391E+02  0.10257561054E+03  0.80191790964E+02 0.  0.
          5    1    5    5  501    0  0.87999459695E+02  0.59228506550E+02 -0.12652915304E+02  0.10693038465E+03  0.47000000000E+01 0. -1.
        -13    1    6    6    0    0  0.32183558553E+02 -0.25228733131E+02 -0.25123464130E+02  0.47994362861E+02  0.00000000000E+00 0.  1.
         14    1    6    6    0    0 -0.38291132095E+02  0.11705853578E+02 -0.37092786261E+02  0.54581247675E+02  0.00000000000E+00 0. -1.
         -5    1    3    3    0  503 -0.19089983682E+02 -0.83069770520E+02 -0.71547681129E+02  0.11138301004E+03  0.47000000000E+01 0.  1.
         13    1    4    4    0    0 -0.67023824456E+02  0.23853096780E+02 -0.15692418515E+02  0.72852009373E+02  0.00000000000E+00 0. -1.
        -14    1    4    4    0    0  0.42219219854E+01  0.13511046744E+02 -0.57515729370E+02  0.59232019502E+02  0.00000000000E+00 0.  1.
</event>
<event>
12    1  0.8417180E-002  0.2214598E+03  0.7818608E-02  0.1133022E+00
         21   -1    0    0  503  502  0.00000000000E+00  0.00000000000E+00  0.29108824729E+03  0.29108824729E+03  0.00000000000E+00 0.  1.
         21   -1    0    0  501  503 -0.00000000000E+00 -0.00000000000E+00 -0.27885205390E+03  0.27885205390E+03  0.00000000000E+00 0.  1.
          6    2    1    2  501    0 -0.10714601574E+03  0.88135266171E+02 -0.17391056717E+03  0.28063929349E+03  0.17107142908E+03 0.  0.
         24    2    3    3    0    0 -0.58220541746E+01  0.22639106374E+02 -0.20868123452E+02  0.85702453170E+02  0.79768455236E+02 0.  0.
         -6    2    1    2    0  502  0.10714601574E+03 -0.88135266171E+02  0.18614676055E+03  0.28930100770E+03  0.17261622971E+03 0.  0.
        -24    2    5    5    0    0  0.47811303021E+02 -0.57376917716E+01  0.16013949712E+03  0.18437991282E+03  0.77668860605E+02 0.  0.
          5    1    3    3  501    0 -0.10132396157E+03  0.65496159797E+02 -0.15304244371E+03  0.19493684032E+03  0.47000000000E+01 0. -1.
        -13    1    4    4    0    0 -0.84816988294E+01  0.48842261175E+02 -0.29860470448E+02  0.57871870430E+02  0.00000000000E+00 0.  1.
         14    1    4    4    0    0  0.26596446548E+01 -0.26203154800E+02  0.89923469956E+01  0.27830582741E+02  0.00000000000E+00 0. -1.
         -5    1    5    5    0  502  0.59334712720E+02 -0.82397574400E+02  0.26007263424E+02  0.10492109488E+03  0.47000000000E+01 0.  1.
         11    1    6    6    0    0 -0.79701699977E+01  0.21449865009E+02  0.17437597306E+02  0.28769604072E+02  0.00000000000E+00 0. -1.
        -12    1    6    6    0    0  0.55781473019E+02 -0.27187556780E+02  0.14270189982E+03  0.15561030874E+03  0.00000000000E+00 0.  1.
</event>
<event>
12    1  0.8417180E-002  0.2308287E+03  0.7818608E-02  0.1126446E+00
         21   -1    0    0  503  502  0.00000000000E+00  0.00000000000E+00  0.10444060674E+04  0.10444060674E+04  0.00000000000E+00 0. -1.
         21   -1    0    0  501  503 -0.00000000000E+00 -0.00000000000E+00 -0.58101596327E+02  0.58101596327E+02  0.00000000000E+00 0.  1.
          6    2    1    2  501    0  0.10701150827E+03  0.10636354725E+03  0.29621536452E+03  0.37553351249E+03  0.17469175637E+03 0.  0.
         24    2    3    3    0    0  0.48769292630E+02 -0.20032060484E+02  0.59481069635E+02  0.10088242163E+03  0.62125180067E+02 0.  0.
         -6    2    1    2    0  502 -0.10701150827E+03 -0.10636354725E+03  0.69008910651E+03  0.72697415119E+03  0.17176662798E+03 0.  0.
        -24    2    5    5    0    0  0.10542679287E+02 -0.57600407980E+02  0.22141361224E+03  0.24130385181E+03  0.75990829254E+02 0.  0.
          5    1    3    3  501    0  0.58242215638E+02  0.12639560773E+03  0.23673429488E+03  0.27465109086E+03  0.47000000000E+01 0. -1.
        -11    1    4    4    0    0  0.74398562840E+01  0.21583144585E+02  0.16422651738E+02  0.28122714695E+02  0.00000000000E+00 0.  1.
         12    1    4    4    0    0  0.41329436346E+02 -0.41615205069E+02  0.43058417896E+02  0.72759706936E+02  0.00000000000E+00 0. -1.
         -5    1    5    5    0  502 -0.11755418755E+03 -0.48763139269E+02  0.46867549428E+03  0.48567029938E+03  0.47000000000E+01 0.  1.
         11    1    6    6    0    0 -0.32928168132E+02 -0.23679470303E+02  0.85536532554E+02  0.94665093734E+02  0.00000000000E+00 0. -1.
        -12    1    6    6    0    0  0.43470847419E+02 -0.33920937678E+02  0.13587707968E+03  0.14663875808E+03  0.00000000000E+00 0.  1.
</event>
<event>
12    1  0.8417180E-002  0.2181354E+03  0.7818608E-02  0.1135288E+00
         21   -1    0    0  503  502  0.00000000000E+00  0.00000000000E+00  0.75984846174E+02  0.75984846174E+02  0.00000000000E+00 0.  1.
         21   -1    0    0  501  503 -0.00000000000E+00 -0.00000000000E+00 -0.67504184033E+03  0.67504184033E+03  0.00000000000E+00 0. -1.
          6    2    1    2  501    0  0.20893265708E+02 -0.13158449995E+03 -0.19844929568E+03  0.29489858297E+03  0.17271954755E+03 0.  0.
         24    2    3    3    0    0  0.59276626828E+02 -0.10811044526E+03 -0.20167807419E+03  0.24954630998E+03  0.79985800970E+02 0.  0.
         -6    2    1    2    0  502 -0.20893265708E+02  0.13158449995E+03 -0.40060769848E+03  0.45612810353E+03  0.17267110231E+03 0.  0.
        -24    2    5    5    0    0 -0.16878602734E+02  0.51682909147E+01 -0.22676194018E+03  0.24108947187E+03  0.79947216802E+02 0.  0.
          5    1    3    3  501    0 -0.38383361119E+02 -0.23474054694E+02  0.32287785085E+01  0.45352272989E+02  0.47000000000E+01 0. -1.
        -13    1    4    4    0    0  0.13785754177E+02 -0.27071234553E+02 -0.33996255453E+01  0.30568876530E+02  0.00000000000E+00 0.  1.
         14    1    4    4    0    0  0.45490872650E+02 -0.81039210705E+02 -0.19827844864E+03  0.21897743345E+03  0.00000000000E+00 0. -1.
         -5    1    5    5    0  502 -0.40146629744E+01  0.12641620904E+03 -0.17384575830E+03  0.21503863166E+03  0.47000000000E+01 0.  1.
         11    1    6    6    0    0  0.41114868525E+01  0.41786622330E+00 -0.21769877482E+03  0.21773799736E+03  0.00000000000E+00 0. -1.
        -12    1    6    6    0    0 -0.20990089586E+02  0.47504246914E+01 -0.90631653541E+01  0.23351474511E+02  0.00000000000E+00 0.  1.
</event>
<event>
12    1  0.8417180E-002  0.1941169E+03  0.7818608E-02  0.1155337E+00
         21   -1    0    0  501  502  0.00000000000E+00  0.00000000000E+00  0.16564357113E+03  0.16564357113E+03  0.00000000000E+00 0. -1.
         21   -1    0    0  502  503 -0.00000000000E+00 -0.00000000000E+00 -0.25224264487E+03  0.25224264487E+03  0.00000000000E+00 0. -1.
         -6    2    1    2    0  503  0.76631186010E+02  0.36473104371E+02  0.26062009086E+02  0.19344495643E+03  0.17186941799E+03 0.  0.
        -24    2    3    3    0    0  0.97989317179E+02  0.51959086496E+02  0.61713507540E+02  0.14884557581E+03  0.77748282785E+02 0.  0.
          6    2    1    2  501    0 -0.76631186010E+02 -0.36473104371E+02 -0.11266108283E+03  0.22444125956E+03  0.17458159525E+03 0.  0.
         24    2    5    5    0    0 -0.73470309858E+02  0.22924776128E+02 -0.12152869480E+03  0.16411859477E+03  0.79007959711E+02 0.  0.
          5    1    5    5  501    0 -0.31608761522E+01 -0.59397880499E+02  0.88676119764E+01  0.60322664795E+02  0.47000000000E+01 0. -1.
        -11    1    6    6    0    0 -0.76661574295E+00  0.80425059287E+01  0.10146959674E+02  0.12970365914E+02  0.00000000000E+00 0.  1.
         12    1    6    6    0    0 -0.72703694115E+02  0.14882270199E+02 -0.13167565448E+03  0.15114822886E+03  0.00000000000E+00 0. -1.
         -5    1    3    3    0  503 -0.21358131169E+02 -0.15485982125E+02 -0.35651498454E+02  0.44599380617E+02  0.47000000000E+01 0.  1.
         11    1    4    4    0    0  0.10011410075E+03  0.44560025976E+02  0.26420794382E+02  0.11272305647E+03  0.00000000000E+00 0. -1.
        -12    1    4    4    0    0 -0.21247835713E+01  0.73990605196E+01  0.35292713158E+02  0.36122519345E+02  0.00000000000E+00 0.  1.
</event>
<event>
12    1  0.8417180E-002  0.4364289E+03  0.7818608E-02  0.1031872E+00
         21   -1    0    0  501  502  0.00000000000E+00  0.00000000000E+00  0.83503727464E+03  0.83503727464E+03  0.00000000000E+00 0. -1.
         21   -1    0    0  502  503 -0.00000000000E+00 -0.00000000000E+00 -0.23002531577E+03  0.23002531577E+03  0.00000000000E+00 0.  1.
         -6    2    1    2    0  503  0.40054979170E+03  0.18790036700E+02  0.25185031443E+03  0.50388366536E+03  0.17227003871E+03 0.  0.
        -24    2    3    3    0    0  0.96367749953E+02  0.37342191468E+02  0.83178112973E+02  0.15554001534E+03  0.81196769646E+02 0.  0.
          6    2    1    2  501    0 -0.40054979170E+03 -0.18790036700E+02  0.35316164445E+03  0.56117892505E+03  0.17148013792E+03 0.  0.
         24    2    5    5    0    0 -0.27686709250E+03  0.38471573146E+02  0.28993249858E+03  0.41085821147E+03  0.81290635068E+02 0.  0.
          5    1    5    5  501    0 -0.12368269920E+03 -0.57261609846E+02  0.63229145862E+02  0.15032071357E+03  0.47000000000E+01 0. -1.
        -11    1    6    6    0    0 -0.11179682649E+02  0.19247454137E+02  0.38965172209E+02  0.44874652535E+02  0.00000000000E+00 0.  1.
         12    1    6    6    0    0 -0.26568740985E+03  0.19224119009E+02  0.25096732637E+03  0.36598355894E+03  0.00000000000E+00 0. -1.
         -5    1    3    3    0  503  0.30418204174E+03 -0.18552154768E+02  0.16867220145E+03  0.34834365002E+03  0.47000000000E+01 0.  1.
         11    1    4    4    0    0  0.64028246119E+02 -0.15911383182E+02  0.59644403099E+02  0.88939548216E+02  0.00000000000E+00 0. -1.
        -12    1    4    4    0    0  0.32339503835E+02  0.53253574650E+02  0.23533709874E+02  0.66600467129E+02  0.00000000000E+00 0.  1.
</event>
<event>
12    1  0.8417180E-002  0.1866003E+03  0.7818608E-02  0.1161956E+00
         21   -1    0    0  503  502  0.00000000000E+00  0.00000000000E+00  0.15631299769E+04  0.15631299769E+04  0.00000000000E+00 0.  1.
         21   -1    0    0  501  503 -0.00000000000E+00 -0.00000000000E+00 -0.42964953669E+02  0.42964953669E+02  0.00000000000E+00 0. -1.
          6    2    1    2  501    0  0.59182700943E+02 -0.34711984201E+02  0.20189919631E+03  0.27492357838E+03  0.17352859862E+03 0.  0.
         24    2    3    3    0    0 -0.32130404303E+02 -0.16906952403E+02  0.13465686521E+03  0.16003788110E+03  0.78494866838E+02 0.  0.
         -6    2    1    2    0  502 -0.59182700943E+02  0.34711984201E+02  0.13182658269E+04  0.13311713522E+04  0.17171157366E+03 0.  0.
        -24    2    5    5    0    0  0.36957932614E+02  0.32804409692E+01  0.65399533969E+03  0.65922765400E+03  0.74125200758E+02 0.  0.
          5    1    3    3  501    0  0.91313105246E+02 -0.17805031798E+02  0.67242331105E+02  0.11488569728E+03  0.47000000000E+01 0. -1.
        -13    1    4    4    0    0 -0.26733937092E+02 -0.17442283975E+02  0.14493946915E+03  0.14841289155E+03  0.00000000000E+00 0.  1.
         14    1    4    4    0    0 -0.53964672115E+01  0.53533157212E+00 -0.10282603939E+02  0.11624989549E+02  0.00000000000E+00 0. -1.
         -5    1    5    5    0  502 -0.96140633557E+02  0.31431543232E+02  0.66427048725E+03  0.67194369820E+03  0.47000000000E+01 0.  1.
         11    1    6    6    0    0  0.13123831640E+02 -0.26115372131E+02  0.49213195047E+03  0.49299909157E+03  0.00000000000E+00 0. -1.
        -12    1    6    6    0    0  0.23834100974E+02  0.29395813100E+02  0.16186338921E+03  0.16622856242E+03  0.00000000000E+00 0.  1.
</event>
<event>
12    1  0.8417180E-002  0.1815978E+03  0.7818608E-02  0.1166374E+00
         21   -1    0    0  501  502  0.00000000000E+00  0.00000000000E+00  0.10025483780E+04  0.10025483780E+04  0.00000000000E+00 0.  1.
         21   -1    0    0  502  503 -0.00000000000E+00 -0.00000000000E+00 -0.43968432163E+02  0.43968432163E+02  0.00000000000E+00 0.  1.
         -6    2    1    2    0  503  0.53038657188E+02 -0.14915436290E+02  0.21526964358E+03  0.28134496071E+03  0.17256418538E+03 0.  0.
        -24    2    3    3    0    0 -0.23247935668E+02 -0.14677811824E+02  0.17694484225E+03  0.19584302441E+03  0.79303898633E+02 0.  0.
          6    2    1    2  501    0 -0.53038657188E+02  0.14915436290E+02  0.74331030230E+03  0.76517184949E+03  0.17303810087E+03 0.  0.
         24    2    5    5    0    0 -0.88279254293E+02  0.23386628394E+02  0.40825059652E+03  0.42812473525E+03  0.91005924255E+02 0.  0.
          5    1    5    5  501    0  0.35240597105E+02 -0.84711921042E+01  0.33505970577E+03  0.33704711423E+03  0.47000000000E+01 0. -1.
        -13    1    6    6    0    0 -0.53323957910E+02  0.22902509236E+02  0.37635144325E+03  0.38079965632E+03  0.00000000000E+00 0.  1.
         14    1    6    6    0    0 -0.34955296383E+02  0.48411915825E+00  0.31899153268E+02  0.47325078930E+02  0.00000000000E+00 0. -1.
         -5    1    3    3    0  503  0.76286592856E+02 -0.23762446521E+00  0.38324801333E+02  0.85501936307E+02  0.47000000000E+01 0.  1.
         11    1    4    4    0    0  0.23550789754E+01  0.40870232521E+00  0.16299834515E+03  0.16301587026E+03  0.00000000000E+00 0. -1.
        -12    1    4    4    0    0 -0.25603014643E+02 -0.15086514150E+02  0.13946497091E+02  0.32827154143E+02  0.00000000000E+00 0.  1.
</event>
<event>
12    1  0.8417180E-002  0.1860503E+03  0.7818608E-02  0.1162181E+00
         21   -1    0    0  503  502  0.00000000000E+00  0.00000000000E+00  0.30507802662E+03  0.30507802662E+03  0.00000000000E+00 0. -1.
         21   -1    0    0  501  503 -0.00000000000E+00 -0.00000000000E+00 -0.11607961776E+03  0.11607961776E+03  0.00000000000E+00 0.  1.
          6    2    1    2  501    0 -0.14011418112E+02 -0.69596928618E+02  0.12767722499E+03  0.22526230060E+03  0.17146888342E+03 0.  0.
         24    2    3    3    0    0  0.17824486441E+02 -0.93732124733E+02  0.13551869339E+03  0.18427924146E+03  0.80561150993E+02 0.  0.
         -6    2    1    2    0  502  0.14011418112E+02  0.69596928618E+02  0.61321183874E+02  0.19589534378E+03  0.17197280544E+03 0.  0.
        -24    2    5    5    0    0  0.19621916037E+02  0.10681442645E+03  0.13206913475E+02  0.13462795565E+03  0.78459687690E+02 0.  0.
          5    1    3    3  501    0 -0.31835904553E+02  0.24135196115E+02 -0.78414684054E+01  0.40983059146E+02  0.47000000000E+01 0. -1.
        -13    1    4    4    0    0 -0.19581712211E+02 -0.13368259516E+02  0.17082144927E+01  0.23771239185E+02  0.00000000000E+00 0.  1.
         14    1    4    4    0    0  0.37406198653E+02 -0.80363865217E+02  0.13381047890E+03  0.16050800227E+03  0.00000000000E+00 0. -1.
         -5    1    5    5    0  502 -0.56104979251E+01 -0.37217497832E+02  0.48114270399E+02  0.61267388127E+02  0.47000000000E+01 0.  1.
         13    1    6    6    0    0  0.17191222649E+02  0.74264311638E+02  0.45448395602E+02  0.88748424110E+02  0.00000000000E+00 0. -1.
        -14    1    6    6    0    0  0.24306933876E+01  0.32550114812E+02 -0.32241482128E+02  0.45879531541E+02  0.00000000000E+00 0.  1.
</event>
<event>
12    1  0.8417180E-002  0.2654985E+03  0.7818608E-02  0.1103983E+00
         21   -1    0    0  501  502  0.00000000000E+00  0.00000000000E+00  0.21408211253E+03  0.21408211253E+03  0.00000000000E+00 0.  1.
         21   -1    0    0  502  503 -0.00000000000E+00 -0.00000000000E+00 -0.57135424447E+03  0.57135424447E+03  0.00000000000E+00 0. -1.
         -6    2    1    2    0  503  0.14616443898E+03 -0.13790186613E+03 -0.43484118070E+03  0.50948631124E+03  0.17351795584E+03 0.  0.
        -24    2    3    3    0    0  0.12250680754E+03 -0.15544153174E+03 -0.42950277241E+03  0.47918924871E+03  0.77328629139E+02 0.  0.
          6    2    1    2  501    0 -0.14616443898E+03  0.13790186613E+03  0.77569048770E+02  0.27595004576E+03  0.17248333984E+03 0.  0.
         24    2    5    5    0    0 -0.10179535595E+03  0.69681794714E+02  0.11463779824E+03  0.18640242792E+03  0.79913661793E+02 0.  0.
          5    1    5    5  501    0 -0.44369083037E+02  0.68220071419E+02 -0.37068749472E+02  0.89547617843E+02  0.47000000000E+01 0. -1.
        -13    1    6    6    0    0 -0.50934153157E+02  0.55420940582E+02  0.19776859422E+02  0.77826041795E+02  0.00000000000E+00 0.  1.
         14    1    6    6    0    0 -0.50861202788E+02  0.14260854132E+02  0.94860938820E+02  0.10857638612E+03  0.00000000000E+00 0. -1.
         -5    1    3    3    0  503  0.23657631439E+02  0.17539665607E+02 -0.53384082938E+01  0.30297062531E+02  0.47000000000E+01 0.  1.
         13    1    4    4    0    0  0.37591911713E+02 -0.25168555535E+02 -0.17660570561E+03  0.18230793528E+03  0.00000000000E+00 0. -1.
        -14    1    4    4    0    0  0.84914895830E+02 -0.13027297621E+03 -0.25289706680E+03  0.29688131342E+03  0.00000000000E+00 0.  1.
</event>
<event>
12    1  0.8417180E-002  0.2691660E+03  0.7818608E-02  0.1101775E+00
         21   -1    0    0  501  502  0.00000000000E+00  0.00000000000E+00  0.70734433927E+02  0.70734433927E+02  0.00000000000E+00 0. -1.
         21   -1    0    0  502  503 -0.00000000000E+00 -0.00000000000E+00 -0.12310008626E+04  0.12310008626E+04  0.00000000000E+00 0. -1.
         -6    2    1    2    0  503  0.20611192112E+03 -0.79333689495E+01 -0.31321831792E+03  0.41298431446E+03  0.17293139374E+03 0.  0.
        -24    2    3    3    0    0  0.14702015948E+03  0.27878920642E+02 -0.12343941190E+03  0.21096332657E+03  0.82922103433E+02 0.  0.
          6    2    1    2  501    0 -0.20611192112E+03  0.79333689495E+01 -0.84704811076E+03  0.88875098207E+03  0.17275052480E+03 0.  0.
         24    2    5    5    0    0 -0.18992588263E+03 -0.42593933584E+02 -0.73710549312E+03  0.76658525317E+03  0.80264302942E+02 0.  0.
          5    1    5    5  501    0 -0.16186038492E+02  0.50527302533E+02 -0.10994261764E+03  0.12216572890E+03  0.47000000000E+01 0. -1.
        -13    1    6    6    0    0 -0.41276788263E+02 -0.95513160185E+01 -0.31531098303E+03  0.31814464778E+03  0.00000000000E+00 0.  1.
         14    1    6    6    0    0 -0.14864909436E+03 -0.33042617565E+02 -0.42179451008E+03  0.44844060540E+03  0.00000000000E+00 0. -1.
         -5    1    3    3    0  503  0.59091761639E+02 -0.35812289592E+02 -0.18977890602E+03  0.20202098789E+03  0.47000000000E+01 0.  1.
         13    1    4    4    0    0  0.13997348363E+03 -0.21531107034E+01 -0.96720746249E+02  0.17015320967E+03  0.00000000000E+00 0. -1.
        -14    1    4    4    0    0  0.70466758470E+01  0.30032031346E+02 -0.26718665654E+02  0.40810116902E+02  0.00000000000E+00 0.  1.
</event>
<event>
12    1  0.8417180E-002  0.1773795E+03  0.7818608E-02  0.1170441E+00
         21   -1    0    0  503  502  0.00000000000E+00  0.00000000000E+00  0.21151998418E+03  0.21151998418E+03  0.00000000000E+00 0. -1.
         21   -1    0    0  501  503 -0.00000000000E+00 -0.00000000000E+00 -0.38996507399E+03  0.38996507399E+03  0.00000000000E+00 0. -1.
          6    2    1    2  501    0  0.44581094523E+02 -0.89947606800E+00 -0.32591047863E+03  0.37105406703E+03  0.17168342243E+03 0.  0.
         24    2    3    3    0    0  0.65524725396E+02  0.13287005959E+02 -0.98178663385E+02  0.14187343604E+03  0.77582135478E+02 0.  0.
         -6    2    1    2    0  502 -0.44581094523E+02  0.89947606800E+00  0.14746538882E+03  0.23043099114E+03  0.17135961522E+03 0.  0.
        -24    2    5    5    0    0  0.23030808110E+02 -0.19350017692E+02  0.23307360877E+02  0.87536914007E+02  0.78832968585E+02 0.  0.
          5    1    3    3  501    0 -0.20943630873E+02 -0.14186482027E+02 -0.22773181524E+03  0.22918063099E+03  0.47000000000E+01 0. -1.
        -13    1    4    4    0    0  0.12278966090E+02 -0.24435183111E+02 -0.60812279590E+02  0.66678216314E+02  0.00000000000E+00 0.  1.
         14    1    4    4    0    0  0.53245759306E+02  0.37722189070E+02 -0.37366383795E+02  0.75195219730E+02  0.00000000000E+00 0. -1.
         -5    1    5    5    0  502 -0.67611902632E+02  0.20249493760E+02  0.12415802795E+03  0.14289407713E+03  0.47000000000E+01 0.  1.
         11    1    6    6    0    0  0.47187959817E+02  0.78473541209E+01  0.10528747875E+02  0.48981007035E+02  0.00000000000E+00 0. -1.
        -12    1    6    6    0    0 -0.24157151707E+02 -0.27197371813E+02  0.12778613001E+02  0.38555906972E+02  0.00000000000E+00 0.  1.
</event>
<event>
12    1  0.8417180E-002  0.3180061E+03  0.7818608E-02  0.1076596E+00
         21   -1    0    0  501  502  0.00000000000E+00  0.00000000000E+00  0.76471160548E+03  0.76471160548E+03  0.00000000000E+00 0. -1.
         21   -1    0    0  502  503 -0.00000000000E+00 -0.00000000000E+00 -0.22318230701E+03  0.22318230701E+03  0.00000000000E+00 0.  1.
         -6    2    1    2    0  503  0.90434251812E+02  0.25192871762E+03 -0.44639812704E+02  0.32112398393E+03  0.17170168175E+03 0.  0.
        -24    2    3    3    0    0 -0.64823564938E+01  0.55653691680E+02 -0.25780745507E+02  0.10136395756E+03  0.80440354990E+02 0.  0.
          6    2    1    2  501    0 -0.90434251812E+02 -0.25192871762E+03  0.58616911117E+03  0.66676992855E+03  0.17129354357E+03 0.  0.
         24    2    5    5    0    0 -0.10256133130E+03 -0.12526857242E+03  0.32269407500E+03  0.37414210499E+03  0.98182517639E+02 0.  0.
          5    1    5    5  501    0  0.12127079489E+02 -0.12666014520E+03  0.26347503617E+03  0.29262782356E+03  0.47000000000E+01 0. -1.
        -13    1    6    6    0    0  0.11685682709E+02  0.42612086629E+01  0.69541132551E+01  0.14250360375E+02  0.00000000000E+00 0.  1.
         14    1    6    6    0    0 -0.11424701401E+03 -0.12952978108E+03  0.31573996175E+03  0.35989174462E+03  0.00000000000E+00 0. -1.
         -5    1    3    3    0  503  0.96916608306E+02  0.19627502594E+03 -0.18859067197E+02  0.21976002637E+03  0.47000000000E+01 0.  1.
         11    1    4    4    0    0  0.16999179019E+02 -0.10188643769E+02  0.10689911817E+02  0.22517876539E+02  0.00000000000E+00 0. -1.
        -12    1    4    4    0    0 -0.23481535513E+02  0.65842335449E+02 -0.36470657325E+02  0.78846081026E+02  0.00000000000E+00 0.  1.
</event>
<event>
12    1  0.8417180E-002  0.1943063E+03  0.7818608E-02  0.1155241E+00
         21   -1    0    0  501  502  0.00000000000E+00  0.00000000000E+00  0.59832720666E+02  0.59832720666E+02  0.00000000000E+00 0. -1.
         21   -1    0    0  502  503 -0.00000000000E+00 -0.00000000000E+00 -0.63477270554E+03  0.63477270554E+03  0.00000000000E+00 0.  1.
         -6    2    1    2    0  503  0.86352466142E+02  0.30557978193E+02 -0.33855434951E+03  0.39035110949E+03  0.17136044663E+03 0.  0.
        -24    2    3    3    0    0  0.72598982211E+02  0.29897266449E+02 -0.94674624560E+02  0.14603777563E+03  0.78735561319E+02 0.  0.
          6    2    1    2  501    0 -0.86352466142E+02 -0.30557978193E+02 -0.23638563536E+03  0.30425431672E+03  0.16823192977E+03 0.  0.
         24    2    5    5    0    0 -0.58510044617E+02  0.28279151013E+02 -0.20971984758E+03  0.23375493766E+03  0.80223567038E+02 0.  0.
          5    1    5    5  501    0 -0.27842421526E+02 -0.58837129206E+02 -0.26665787789E+02  0.70499379062E+02  0.47000000000E+01 0. -1.
        -11    1    6    6    0    0 -0.59438908288E+02 -0.10999032038E+02 -0.96065895060E+02  0.11350162430E+03  0.00000000000E+00 0.  1.
         12    1    6    6    0    0  0.92886367130E+00  0.39278183051E+02 -0.11365395251E+03  0.12025331336E+03  0.00000000000E+00 0. -1.
         -5    1    3    3    0  503  0.13753483931E+02  0.66071174402E+00 -0.24387972495E+03  0.24431333386E+03  0.47000000000E+01 0.  1.
         11    1    4    4    0    0 -0.15297946588E+02  0.15912331892E+02 -0.21543351551E+02  0.30843888732E+02  0.00000000000E+00 0. -1.
        -12    1    4    4    0    0  0.87896928799E+02  0.13984934557E+02 -0.73131273009E+02  0.11519388690E+03  0.00000000000E+00 0.  1.
</event>
<event>
12    1  0.8417180E-002  0.2209773E+03  0.7818608E-02  0.1133393E+00
         21   -1    0    0  501  502  0.00000000000E+00  0.00000000000E+00  0.13339457589E+03  0.13339457589E+03  0.00000000000E+00 0.  1.
         21   -1    0    0  502  503 -0.00000000000E+00 -0.00000000000E+00 -0.41411957253E+03  0.41411957253E+03  0.00000000000E+00 0.  1.
         -6    2    1    2    0  503  0.13369603766E+03  0.33905873990E+02 -0.23528017097E+03  0.32191226452E+03  0.17101610573E+03 0.  0.
        -24    2    3    3    0    0  0.40325729487E+02  0.25475880991E+02 -0.38009364360E+02  0.10344730081E+03  0.83555055466E+02 0.  0.
          6    2    1    2  501    0 -0.13369603766E+03 -0.33905873990E+02 -0.45444825671E+02  0.22560188390E+03  0.17264628308E+03 0.  0.
         24    2    5    5    0    0 -0.10690365477E+02  0.57649660385E+01 -0.53112655209E+02  0.96044728378E+02  0.79095619085E+02 0.  0.
          5    1    5    5  501    0 -0.12300567218E+03 -0.39670840028E+02  0.76678295389E+01  0.12955715552E+03  0.47000000000E+01 0. -1.
        -13    1    6    6    0    0 -0.40980163470E+02  0.14140817915E+02 -0.13345708216E+02  0.45359061467E+02  0.00000000000E+00 0.  1.
         14    1    6    6    0    0  0.30289797993E+02 -0.83758518763E+01 -0.39766946993E+02  0.50685666912E+02  0.00000000000E+00 0. -1.
         -5    1    3    3    0  503  0.93370308169E+02  0.84299929986E+01 -0.19727080661E+03  0.21846496371E+03  0.47000000000E+01 0.  1.
         11    1    4    4    0    0  0.37769847875E+02 -0.16509881430E+02 -0.44756209695E+02  0.60846165858E+02  0.00000000000E+00 0. -1.
        -12    1    4    4    0    0  0.25558816118E+01  0.41985762421E+02  0.67468453347E+01  0.42601134948E+02  0.00000000000E+00 0.  1.
</event>
<event>
12    1  0.8417180E-002  0.2344661E+03  0.7818608E-02  0.1124513E+00
         21   -1    0    0  503  502  0.00000000000E+00  0.00000000000E+00  0.10771250295E+04  0.10771250295E+04  0.00000000000E+00 0. -1.
         21   -1    0    0  501  503 -0.00000000000E+00 -0.00000000000E+00 -0.64242539115E+02  0.64242539115E+02  0.00000000000E+00 0.  1.
          6    2    1    2  501    0 -0.11054504785E+03  0.11543044324E+03  0.24083944369E+03  0.33612200628E+03  0.17155165588E+03 0.  0.
         24    2    3    3    0    0 -0.66646059368E+02  0.91877038337E+01  0.56889055887E+02  0.11915547421E+03  0.80221887428E+02 0.  0.
         -6    2    1    2    0  502  0.11054504785E+03 -0.11543044324E+03  0.77204304674E+03  0.80524556238E+03  0.16378508749E+03 0.  0.
        -24    2    5    5    0    0 -0.10689845270E+01 -0.32542038122E+02  0.35892786552E+03  0.36933912416E+03  0.80759203917E+02 0.  0.
          5    1    3    3  501    0 -0.43898988484E+02  0.10624273941E+03  0.18395038780E+03  0.21696653207E+03  0.47000000000E+01 0. -1.
        -13    1    4    4    0    0 -0.25953867671E+02  0.23579996001E+02 -0.12677033374E+02  0.37287084005E+02  0.00000000000E+00 0.  1.
         14    1    4    4    0    0 -0.40692191697E+02 -0.14392292167E+02  0.69566089261E+02  0.81868390201E+02  0.00000000000E+00 0. -1.
         -5    1    5    5    0  502  0.11161403238E+03 -0.82888405118E+02  0.41311518122E+03  0.43590643822E+03  0.47000000000E+01 0.  1.
         13    1    6    6    0    0  0.32920171762E+02 -0.30628944930E+02  0.27690656212E+03  0.28053362387E+03  0.00000000000E+00 0. -1.
        -14    1    6    6    0    0 -0.33989156289E+02 -0.19130931923E+01  0.82021303399E+02  0.88805500292E+02  0.00000000000E+00 0.  1.
</event>
<event>
12    1  0.8417180E-002  0.2174747E+03  0.7818608E-02  0.1136315E+00
         21   -1    0    0  501  502  0.00000000000E+00  0.00000000000E+00  0.22324066051E+03  0.22324066051E+03  0.00000000000E+00 0. -1.
         21   -1    0    0  502  503 -0.00000000000E+00 -0.00000000000E+00 -0.24936941689E+03  0.24936941689E+03  0.00000000000E+00 0. -1.
         -6    2    1    2    0  503 -0.97398354181E+02  0.92057070693E+02 -0.10805501406E+03  0.24283972285E+03  0.17127259345E+03 0.  0.
        -24    2    3    3    0    0 -0.75850062781E+02 -0.45566837890E+01 -0.21378635516E+02  0.11118323415E+03  0.78298595831E+02 0.  0.
          6    2    1    2  501    0  0.97398354181E+02 -0.92057070693E+02  0.81926257675E+02  0.22977035455E+03  0.16769484331E+03 0.  0.
         24    2    5    5    0    0  0.90745839867E+01 -0.34899122144E+02  0.88487266384E+02  0.12425610765E+03  0.79431021492E+02 0.  0.
          5    1    5    5  501    0  0.88323770194E+02 -0.57157948549E+02 -0.65610087087E+01  0.10551424690E+03  0.47000000000E+01 0. -1.
        -11    1    6    6    0    0 -0.11194924251E+02 -0.47247672890E+02  0.21341601635E+02  0.53038975130E+02  0.00000000000E+00 0.  1.
         12    1    6    6    0    0  0.20269508238E+02  0.12348550746E+02  0.67145664749E+02  0.71217132520E+02  0.00000000000E+00 0. -1.
         -5    1    3    3    0  503 -0.21548291399E+02  0.96613754482E+02 -0.86676378545E+02  0.13165648869E+03  0.47000000000E+01 0.  1.
         11    1    4    4    0    0 -0.37202666858E+02 -0.18679005866E+02 -0.46942448262E+02  0.62741829192E+02  0.00000000000E+00 0. -1.
        -12    1    4    4    0    0 -0.38647395924E+02  0.14122322077E+02  0.25563812746E+02  0.48441404962E+02  0.00000000000E+00 0.  1.
</event>
<event>
12    1  0.8417180E-002  0.1756219E+03  0.7818608E-02  0.1172696E+00
         21   -1    0    0  501  502  0.00000000000E+00  0.00000000000E+00  0.20358737268E+04  0.20358737268E+04  0.00000000000E+00 0. -1.
         21   -1    0    0  502  503 -0.00000000000E+00 -0.00000000000E+00 -0.20596100227E+02  0.20596100227E+02  0.00000000000E+00 0. -1.
         -6    2    1    2    0  503 -0.15582264147E+02  0.12551715615E+02  0.47413959694E+03  0.50561982964E+03  0.17447837177E+03 0.  0.
        -24    2    3    3    0    0 -0.35053316303E+02 -0.24378504176E+02  0.12290192175E+03  0.15187845874E+03  0.78352647765E+02 0.  0.
          6    2    1    2  501    0  0.15582264147E+02 -0.12551715615E+02  0.15411380296E+04  0.15508499973E+04  0.17213057689E+03 0.  0.
         24    2    5    5    0    0 -0.17100186661E+02  0.53740006809E+02  0.98516109260E+03  0.98996214802E+03  0.79386846721E+02 0.  0.
          5    1    5    5  501    0  0.32682450808E+02 -0.66291722424E+02  0.55597693699E+03  0.56088784932E+03  0.47000000000E+01 0. -1.
        -13    1    6    6    0    0 -0.18304122177E+02 -0.81365408549E+01  0.72832669565E+02  0.75537023649E+02  0.00000000000E+00 0.  1.
         14    1    6    6    0    0  0.12039355158E+01  0.61876547664E+02  0.91232842303E+03  0.91442512437E+03  0.00000000000E+00 0. -1.
         -5    1    3    3    0  503  0.19471052157E+02  0.36930219791E+02  0.35123767520E+03  0.35374137090E+03  0.47000000000E+01 0.  1.
         13    1    4    4    0    0  0.18649768985E+01 -0.17353411196E+02 -0.53332286700E+01  0.18249995808E+02  0.00000000000E+00 0. -1.
        -14    1    4    4    0    0 -0.36918293202E+02 -0.70250929805E+01  0.12823515042E+03  0.13362846294E+03  0.00000000000E+00 0.  1.
</event>
<event>
12    1  0.8417180E-002  0.1894485E+03  0.7818608E-02  0.1159555E+00
         21   -1    0    0  501  502  0.00000000000E+00  0.00000000000E+00  0.11749051848E+04  0.11749051848E+04  0.00000000000E+00 0. -1.
         21   -1    0    0  502  503 -0.00000000000E+00 -0.00000000000E+00 -0.41316806952E+02  0.41316806952E+02  0.00000000000E+00 0. -1.
         -6    2    1    2    0  503  0.22174633833E+02  0.73305434556E+02  0.88611140753E+03  0.90613693868E+03  0.17327816935E+03 0.  0.
        -24    2    3    3    0    0  0.73755075866E+02  0.63177146896E+02  0.74633197655E+03  0.75672641851E+03  0.78691105959E+02 0.  0.
          6    2    1    2  501    0 -0.22174633833E+02 -0.73305434556E+02  0.24747697031E+03  0.31008505306E+03  0.17041856758E+03 0.  0.
         24    2    5    5    0    0 -0.28593686692E+02 -0.51308339554E+02  0.48744789118E+02  0.10998096447E+03  0.79180890708E+02 0.  0.
          5    1    5    5  501    0  0.64190528589E+01 -0.21997095002E+02  0.19873218119E+03  0.20010408859E+03  0.47000000000E+01 0. -1.
        -11    1    6    6    0    0 -0.38026864048E+02 -0.12518518954E+02  0.56567796247E+02  0.69301307913E+02  0.00000000000E+00 0.  1.
         12    1    6    6    0    0  0.94331773560E+01 -0.38789820599E+02 -0.78230071291E+01  0.40679656558E+02  0.00000000000E+00 0. -1.
         -5    1    3    3    0  503 -0.51580442033E+02  0.10128287660E+02  0.13977943098E+03  0.14941052017E+03  0.47000000000E+01 0.  1.
         11    1    4    4    0    0  0.41473928237E+02  0.78021306083E+02  0.48402458808E+03  0.49202358967E+03  0.00000000000E+00 0. -1.
        -12    1    4    4    0    0  0.32281147629E+02 -0.14844159187E+02  0.26230738847E+03  0.26470282885E+03  0.00000000000E+00 0.  1.
</event>
<event>
12    1  0.8417180E-002  0.2036328E+03  0.7818608E-02  0.1149747E+00
         21   -1    0    0  501  502  0.00000000000E+00  0.00000000000E+00  0.13733585936E+03  0.13733585936E+03  0.00000000000E+00 0.  1.
         21   -1    0    0  502  503 -0.00000000000E+00 -0.00000000000E+00 -0.41710652122E+03  0.41710652122E+03  0.00000000000E+00 0. -1.
         -6    2    1    2    0  503  0.42214164141E+01 -0.10778141584E+03 -0.30142201239E+03  0.36376027251E+03  0.17271841924E+03 0.  0.
        -24    2    3    3    0    0  0.20713975966E+02 -0.72826599258E+02 -0.73644077301E+02  0.13267863880E+03  0.80295633213E+02 0.  0.
          6    2    1    2  501    0 -0.42214164141E+01  0.10778141584E+03  0.21651350534E+02  0.19068210807E+03  0.15574412156E+03 0.  0.
         24    2    5    5    0    0 -0.19175963463E+02  0.38547106623E+02  0.60814604114E+02  0.10960881727E+03  0.80387062053E+02 0.  0.
          5    1    5    5  501    0  0.14954547049E+02  0.69234309221E+02 -0.39163253580E+02  0.81073290803E+02  0.47000000000E+01 0. -1.
        -13    1    6    6    0    0 -0.41031318965E+02  0.37023771653E+02  0.66992018448E+02  0.86846182064E+02  0.00000000000E+00 0.  1.
         14    1    6    6    0    0  0.21855355502E+02  0.15233349702E+01 -0.61774143339E+01  0.22762635203E+02  0.00000000000E+00 0. -1.
         -5    1    3    3    0  503 -0.16492559552E+02 -0.34954816586E+02 -0.22777793509E+03  0.23108163371E+03  0.47000000000E+01 0.  1.
         13    1    4    4    0    0  0.70276708778E+01  0.40511471368E+01  0.13448767045E+02  0.15705708711E+02  0.00000000000E+00 0. -1.
        -14    1    4    4    0    0  0.13686305088E+02 -0.76877746394E+02 -0.87092844346E+02  0.11697293009E+03  0.00000000000E+00 0.  1.
</event>
<event>
12    1  0.8417180E-002  0.2696130E+03  0.7818608E-02  0.1101528E+00
         21   -1    0    0  501  502  0.00000000000E+00  0.00000000000E+00  0.10481088397E+03  0.10481088397E+03  0.00000000000E+00 0.  1.
         21   -1    0    0  502  503 -0.00000000000E+00 -0.00000000000E+00 -0.70049449614E+03  0.70049449614E+03  0.00000000000E+00 0. -1.
         -6    2    1    2    0  503  0.16386732691E+03  0.12752090924E+03 -0.33922420963E+03  0.43319974314E+03  0.17168246834E+03 0.  0.
        -24    2    3    3    0    0  0.46548929928E+02  0.11294930170E+03 -0.13889688311E+03  0.20054320279E+03  0.77465375596E+02 0.  0.
          6    2    1    2  501    0 -0.16386732691E+03 -0.12752090924E+03 -0.25645940254E+03  0.37210563696E+03  0.17197993135E+03 0.  0.
         24    2    5    5    0    0 -0.63759279085E+02  0.73444142221E+01 -0.96727936395E+02  0.14027270576E+03  0.78746125067E+02 0.  0.
          5    1    5    5  501    0 -0.10010804783E+03 -0.13486532346E+03 -0.15973146614E+03  0.23183293120E+03  0.47000000000E+01 0. -1.
        -13    1    6    6    0    0 -0.15823735258E+02  0.26469452737E+02 -0.80447541596E+02  0.86155844111E+02  0.00000000000E+00 0.  1.
         14    1    6    6    0    0 -0.47935543827E+02 -0.19125038515E+02 -0.16280394799E+02  0.54116861651E+02  0.00000000000E+00 0. -1.
         -5    1    3    3    0  503  0.11731839699E+03  0.14571607540E+02 -0.20032732652E+03  0.23265654035E+03  0.47000000000E+01 0.  1.
         11    1    4    4    0    0  0.24191909451E+02  0.28484777294E+01 -0.55546262571E+02  0.60652696509E+02  0.00000000000E+00 0. -1.
        -12    1    4    4    0    0  0.22357020476E+02  0.11010082397E+03 -0.83350620536E+02  0.13989050628E+03  0.00000000000E+00 0.  1.
</event>
<event>
12    1  0.8417180E-002  0.1966507E+03  0.7818608E-02  0.1153577E+00
         21   -1    0    0  503  502  0.00000000000E+00  0.00000000000E+00  0.44713174345E+02  0.44713174345E+02  0.00000000000E+00 0. -1.
         21   -1    0    0  501  503 -0.00000000000E+00 -0.00000000000E+00 -0.10919257423E+04  0.10919257423E+04  0.00000000000E+00 0. -1.
          6    2    1    2  501    0 -0.75455397402E+02  0.40079906295E+02 -0.79840427881E+03  0.82226571731E+03  0.17712030248E+03 0.  0.
         24    2    3    3    0    0 -0.75335243387E+02 -0.27453008752E+02 -0.63996122301E+03  0.64996655601E+03  0.80480372714E+02 0.  0.
         -6    2    1    2    0  502  0.75455397402E+02 -0.40079906295E+02 -0.24880828918E+03  0.31437319937E+03  0.17211922563E+03 0.  0.
        -24    2    5    5    0    0  0.19846018370E+02 -0.70548543697E+02 -0.21848448959E+03  0.24392915262E+03  0.79968730415E+02 0.  0.
          5    1    3    3  501    0 -0.12015401510E+00  0.67532915047E+02 -0.15844305580E+03  0.17229916130E+03  0.47000000000E+01 0. -1.
        -13    1    4    4    0    0  0.17033851023E+02 -0.20422648428E+01 -0.12476380920E+03  0.12593780613E+03  0.00000000000E+00 0.  1.
         14    1    4    4    0    0 -0.92369094410E+02 -0.25410743910E+02 -0.51519741381E+03  0.52402874988E+03  0.00000000000E+00 0. -1.
         -5    1    5    5    0  502  0.55609379032E+02  0.30468637402E+02 -0.30323799596E+02  0.70444046756E+02  0.47000000000E+01 0.  1.
         13    1    6    6    0    0  0.22674280246E+02 -0.17335672801E+02 -0.16839011455E+03  0.17079191789E+03  0.00000000000E+00 0. -1.
        -14    1    6    6    0    0 -0.28282618754E+01 -0.53212870895E+02 -0.50094375033E+02  0.73137234731E+02  0.00000000000E+00 0.  1.
</event>
<event>
12    1  0.8417180E-002  0.1842262E+03  0.7818608E-02  0.1164071E+00
         21   -1    0    0  503  502  0.00000000000E+00  0.00000000000E+00  0.36117914426E+03  0.36117914426E+03  0.00000000000E+00 0.  1.
         21   -1    0    0  501  503 -0.00000000000E+00 -0.00000000000E+00 -0.23671744018E+03  0.23671744018E+03  0.00000000000E+00 0.  1.
          6    2    1    2  501    0  0.65472346701E+02 -0.11698629828E+02 -0.17035438929E+03  0.25091812477E+03  0.17180163348E+03 0.  0.
         24    2    3    3    0    0  0.73507473615E+02  0.46582636965E+02 -0.15174462853E+03  0.18903369604E+03  0.71652042588E+02 0.  0.
         -6    2    1    2    0  502 -0.65472346701E+02  0.11698629828E+02  0.29481609337E+03  0.34697845967E+03  0.17045244628E+03 0.  0.
        -24    2    5    5    0    0 -0.51979436656E+02  0.63443660460E+02  0.25448553400E+03  0.27983495041E+03  0.82569683114E+02 0.  0.
          5    1    3    3  501    0 -0.80351269144E+01 -0.58281266792E+02 -0.18609760755E+02  0.61884428727E+02  0.47000000000E+01 0. -1.
        -13    1    4    4    0    0  0.10594644597E+02  0.20300569664E+02 -0.10224594448E+03  0.10477878022E+03  0.00000000000E+00 0.  1.
         14    1    4    4    0    0  0.62912829018E+02  0.26282067301E+02 -0.49498684057E+02  0.84254915821E+02  0.00000000000E+00 0. -1.
         -5    1    5    5    0  502 -0.13492910044E+02 -0.51745030633E+02  0.40330559372E+02  0.67143509262E+02  0.47000000000E+01 0.  1.
         11    1    6    6    0    0 -0.16201227312E+00 -0.18746175356E+02  0.32537384256E+02  0.37551653927E+02  0.00000000000E+00 0. -1.
        -12    1    6    6    0    0 -0.51817424383E+02  0.82189835816E+02  0.22194814974E+03  0.24228329648E+03  0.00000000000E+00 0.  1.
</event>
<event>
12    1  0.8417180E-002  0.1770556E+03  0.7818608E-02  0.1170789E+00
         21   -1    0    0  503  502  0.00000000000E+00  0.00000000000E+00  0.10571099289E+04  0.10571099289E+04  0.00000000000E+00 0.  1.
         21   -1    0    0  501  503 -0.00000000000E+00 -0.00000000000E+00 -0.51237344638E+02  0.51237344638E+02  0.00000000000E+00 0.  1.
          6    2    1    2  501    0  0.14544695054E+02  0.36916022600E+02  0.14302464662E+03  0.22760655977E+03  0.17255247210E+03 0.  0.
         24    2    3    3    0    0 -0.41779780842E+02  0.29542951225E+02  0.26592104553E+02  0.97970779137E+02  0.79200994223E+02 0.  0.
         -6    2    1    2    0  502 -0.14544695054E+02 -0.36916022600E+02  0.86284793759E+03  0.88074071373E+03  0.17211420779E+03 0.  0.
        -24    2    5    5    0    0 -0.67108352654E+02 -0.86581931086E+00  0.39822304914E+03  0.41174078598E+03  0.80278249428E+02 0.  0.
          5    1    3    3  501    0  0.56324475897E+02  0.73730713752E+01  0.11643254207E+03  0.12963578063E+03  0.47000000000E+01 0. -1.
        -13    1    4    4    0    0 -0.26842547786E+02 -0.25171702863E+02  0.16645497951E+02  0.40388235895E+02  0.00000000000E+00 0.  1.
         14    1    4    4    0    0 -0.14937233056E+02  0.54714654088E+02  0.99466066020E+01  0.57582543242E+02  0.00000000000E+00 0. -1.
         -5    1    5    5    0  502  0.52563657599E+02 -0.36050203290E+02  0.46462488845E+03  0.46899992775E+03  0.47000000000E+01 0.  1.
         11    1    6    6    0    0 -0.20299552935E+02  0.26029016344E+02  0.53848242021E+02  0.63160230446E+02  0.00000000000E+00 0. -1.
        -12    1    6    6    0    0 -0.46808799719E+02 -0.26894835654E+02  0.34437480712E+03  0.34858055553E+03  0.00000000000E+00 0.  1.
</event>
<event>
12    1  0.8417180E-002  0.1845637E+03  0.7818608E-02  0.1164334E+00
         21   -1    0    0  501  502  0.00000000000E+00  0.00000000000E+00  0.28657048302E+03  0.28657048302E+03  0.00000000000E+00 0. -1.
         21   -1    0    0  502  503 -0.00000000000E+00 -0.00000000000E+00 -0.21137886538E+03  0.21137886538E+03  0.00000000000E+00 0. -1.
         -6    2    1    2    0  503 -0.42388051532E+02  0.49233628609E+02 -0.12941751224E+03  0.22239780251E+03  0.16879334402E+03 0.  0.
        -24    2    3    3    0    0 -0.28129159888E+02  0.95660299571E+02 -0.78915123487E+02  0.15217435174E+03  0.83590035669E+02 0.  0.
          6    2    1    2  501    0  0.42388051532E+02 -0.49233628609E+02  0.20460912988E+03  0.27555154589E+03  0.17275144374E+03 0.  0.
         24    2    5    5    0    0  0.68803975760E+02 -0.34613860739E+02  0.21622058586E+03  0.24286432247E+03  0.79370214451E+02 0.  0.
          5    1    5    5  501    0 -0.26415924228E+02 -0.14619767870E+02 -0.11611455976E+02  0.32687223426E+02  0.47000000000E+01 0. -1.
        -11    1    6    6    0    0  0.13801809096E+01  0.13855693345E+02  0.32792617653E+01  0.14305198185E+02  0.00000000000E+00 0.  1.
         12    1    6    6    0    0  0.67423794851E+02 -0.48469554084E+02  0.21294132409E+03  0.22855912428E+03  0.00000000000E+00 0. -1.
         -5    1    3    3    0  503 -0.14258891644E+02 -0.46426670962E+02 -0.50502388753E+02  0.70223450764E+02  0.47000000000E+01 0.  1.
         11    1    4    4    0    0  0.12291958153E+02  0.50004481425E+02 -0.75125095731E+02  0.91078649564E+02  0.00000000000E+00 0. -1.
        -12    1    4    4    0    0 -0.40421118041E+02  0.45655818146E+02 -0.37900277565E+01  0.61095702178E+02  0.00000000000E+00 0.  1.
</event>
<event>
12    1  0.8417180E-002  0.1977748E+03  0.7818608E-02  0.1151771E+00
         21   -1    0    0  501  502  0.00000000000E+00  0.00000000000E+00  0.37722580128E+02  0.37722580128E+02  0.00000000000E+00 0. -1.
         21   -1    0    0  502  503 -0.00000000000E+00 -0.00000000000E+00 -0.10540615446E+04  0.10540615446E+04  0.00000000000E+00 0. -1.
         -6    2    1    2    0  503 -0.71645044941E+02 -0.66085526406E+02 -0.43269348805E+03  0.47575050358E+03  0.17208886597E+03 0.  0.
        -24    2    3    3    0    0 -0.47505875682E+02 -0.58486025645E+02 -0.12151585669E+03  0.16351011516E+03  0.79322322907E+02 0.  0.
          6    2    1    2  501    0  0.71645044941E+02  0.66085526406E+02 -0.58364547639E+03  0.61603362112E+03  0.17133321619E+03 0.  0.
         24    2    5    5    0    0  0.53659916673E+02  0.74653322982E+02 -0.58302415747E+03  0.59555563259E+03  0.79478538161E+02 0.  0.
          5    1    5    5  501    0  0.17985128269E+02 -0.85677965757E+01 -0.62131892574E+00  0.20477988529E+02  0.47000000000E+01 0. -1.
        -13    1    6    6    0    0  0.11701417152E+00 -0.15163936723E+02 -0.11481890112E+03  0.11581596921E+03  0.00000000000E+00 0.  1.
         14    1    6    6    0    0  0.53542902501E+02  0.89817259705E+02 -0.46820525635E+03  0.47973966338E+03  0.00000000000E+00 0. -1.
         -5    1    3    3    0  503 -0.24139169260E+02 -0.75995007609E+01 -0.31117763136E+03  0.31224038842E+03  0.47000000000E+01 0.  1.
         13    1    4    4    0    0 -0.52744755784E+02 -0.42783180040E+02 -0.36903080092E+02  0.77293253763E+02  0.00000000000E+00 0. -1.
        -14    1    4    4    0    0  0.52388801021E+01 -0.15702845605E+02 -0.84612776601E+02  0.86216861396E+02  0.00000000000E+00 0.  1.
</event>
<event>
12    1  0.8417180E-002  0.1790922E+03  0.7818608E-02  0.1168725E+00
         21   -1    0    0  501  502  0.00000000000E+00  0.00000000000E+00  0.83360104035E+03  0.83360104035E+03  0.00000000000E+00 0.  1.
         21   -1    0    0  502  503 -0.00000000000E+00 -0.00000000000E+00 -0.41896967028E+03  0.41896967028E+03  0.00000000000E+00 0.  1.
         -6    2    1    2    0  503  0.46430510500E+02  0.13241851813E+02 -0.38955627900E+03  0.42868249450E+03  0.17228884943E+03 0.  0.
        -24    2    3    3    0    0  0.25728644060E+02  0.73655246997E+02 -0.20210966994E+03  0.23060001966E+03  0.78999948402E+02 0.  0.
          6    2    1    2  501    0 -0.46430510500E+02 -0.13241851813E+02  0.80418764907E+03  0.82388821613E+03  0.17246123857E+03 0.  0.
         24    2    5    5    0    0 -0.36637042117E+02  0.56681817420E+02  0.55346645547E+03  0.56337249979E+03  0.80674375730E+02 0.  0.
          5    1    5    5  501    0 -0.97934683826E+01 -0.69923669233E+02  0.25072119360E+03  0.26051571634E+03  0.47000000000E+01 0. -1.
        -11    1    6    6    0    0 -0.25032084730E+02  0.40949506576E+02  0.53267822639E+03  0.53483601246E+03  0.00000000000E+00 0.  1.
         12    1    6    6    0    0 -0.11604957387E+02  0.15732310844E+02  0.20788229084E+02  0.28536487326E+02  0.00000000000E+00 0. -1.
         -5    1    3    3    0  503  0.20701866440E+02 -0.60413395183E+02 -0.18744660906E+03  0.19808247484E+03  0.47000000000E+01 0.  1.
         11    1    4    4    0    0  0.12333261698E+02  0.83818928761E+02 -0.19448543768E+03  0.21213747343E+03  0.00000000000E+00 0. -1.
        -12    1    4    4    0    0  0.13395382362E+02 -0.10163681764E+02 -0.76242322537E+01  0.18462546224E+02  0.00000000000E+00 0.  1.
</event>
<event>
12    1  0.8417180E-002  0.1886225E+03  0.7818608E-02  0.1160079E+00
         21   -1    0    0  501  502  0.00000000000E+00  0.00000000000E+00  0.17527755562E+03  0.17527755562E+03  0.00000000000E+00 0. -1.
         21   -1    0    0  502  503 -0.00000000000E+00 -0.00000000000E+00 -0.21852201307E+03  0.21852201307E+03  0.00000000000E+00 0. -1.
         -6    2    1    2    0  503  0.69985528233E+02 -0.22997023786E+02  0.33821416443E+02  0.19004093534E+03  0.17188610075E+03 0.  0.
        -24    2    3    3    0    0  0.10221691606E+03 -0.21057880707E+02  0.63755261637E+02  0.14576060421E+03  0.79307553768E+02 0.  0.
          6    2    1    2  501    0 -0.69985528233E+02  0.22997023786E+02 -0.77065873888E+02  0.20375863335E+03  0.17364214489E+03 0.  0.
         24    2    5    5    0    0 -0.75883280635E+02  0.77506259245E+02 -0.60842795789E+02  0.14638861944E+03  0.77215863648E+02 0.  0.
          5    1    5    5  501    0  0.58977524024E+01 -0.54509235459E+02 -0.16223078099E+02  0.57370013916E+02  0.47000000000E+01 0. -1.
        -11    1    6    6    0    0  0.10030596835E+02  0.12771590256E+02 -0.30606205548E+02  0.34647744639E+02  0.00000000000E+00 0.  1.
         12    1    6    6    0    0 -0.85913877470E+02  0.64734668990E+02 -0.30236590241E+02  0.11174087480E+03  0.00000000000E+00 0. -1.
         -5    1    3    3    0  503 -0.32231387826E+02 -0.19391430792E+01 -0.29933845194E+02  0.44280331132E+02  0.47000000000E+01 0.  1.
         13    1    4    4    0    0  0.49645851712E+02  0.26240631295E+02  0.10246904212E+02  0.57081348696E+02  0.00000000000E+00 0. -1.
        -14    1    4    4    0    0  0.52571064346E+02 -0.47298512002E+02  0.53508357425E+02  0.88679255514E+02  0.00000000000E+00 0.  1.
</event>
<event>
12    1  0.8417180E-002  0.2634396E+03  0.7818608E-02  0.1105289E+00
         21   -1    0    0  501  502  0.00000000000E+00  0.00000000000E+00  0.16912727042E+03  0.16912727042E+03  0.00000000000E+00 0.  1.
         21   -1    0    0  502  503 -0.00000000000E+00 -0.00000000000E+00 -0.40864464465E+03  0.40864464465E+03  0.00000000000E+00 0.  1.
         -6    2    1    2    0  503  0.88635528873E+02 -0.17724626320E+03 -0.12845630240E+03  0.29308949354E+03  0.17357400381E+03 0.  0.
        -24    2    3    3    0    0  0.51663158535E+02 -0.27222522134E+02 -0.87845859635E+02  0.13326028121E+03  0.81432547742E+02 0.  0.
          6    2    1    2  501    0 -0.88635528873E+02  0.17724626320E+03 -0.11106107183E+03  0.28468242153E+03  0.17157221412E+03 0.  0.
         24    2    5    5    0    0 -0.12150343744E+03  0.15519809573E+03 -0.61721932312E+02  0.22125638753E+03  0.79342661064E+02 0.  0.
          5    1    5    5  501    0  0.32867908563E+02  0.22048167467E+02 -0.49339139515E+02  0.63426034008E+02  0.47000000000E+01 0. -1.
        -11    1    6    6    0    0 -0.47717905465E+02  0.91905648054E+02  0.44651283453E+01  0.10365126153E+03  0.00000000000E+00 0.  1.
         12    1    6    6    0    0 -0.73785531971E+02  0.63292447680E+02 -0.66187060658E+02  0.11760512599E+03  0.00000000000E+00 0. -1.
         -5    1    3    3    0  503  0.36972370338E+02 -0.15002374107E+03 -0.40610442760E+02  0.15982921233E+03  0.47000000000E+01 0.  1.
         11    1    4    4    0    0  0.56404422306E+02  0.62292230343E+01 -0.25214033131E+02  0.62096775617E+02  0.00000000000E+00 0. -1.
        -12    1    4    4    0    0 -0.47412637713E+01 -0.33451745169E+02 -0.62631826503E+02  0.71163505592E+02  0.00000000000E+00 0.  1.
</event>
<event>
12    1  0.8417180E-002  0.2033783E+03  0.7818608E-02  0.1146991E+00
         21   -1    0    0  503  502  0.00000000000E+00  0.00000000000E+00  0.35037461215E+02  0.35037461215E+02  0.00000000000E+00 0. -1.
         21   -1    0    0  501  503 -0.00000000000E+00 -0.00000000000E+00 -0.17712719134E+04  0.17712719134E+04  0.00000000000E+00 0.  1.
          6    2    1    2  501    0 -0.56149015905E+02 -0.92688461221E+02 -0.13910706208E+04  0.14058592476E+04  0.17210139208E+03 0.  0.
         24    2    3    3    0    0  0.20893502852E+02 -0.29631715890E+02 -0.93605860050E+03  0.94005914943E+03  0.78682423780E+02 0.  0.
         -6    2    1    2    0  502  0.56149015905E+02  0.92688461221E+02 -0.34516383142E+03  0.40045012706E+03  0.17169266411E+03 0.  0.
        -24    2    5    5    0    0  0.80693023499E+02  0.11816605391E+03 -0.30910987193E+03  0.34972051014E+03  0.79252393982E+02 0.  0.
          5    1    3    3  501    0 -0.77042518757E+02 -0.63056745331E+02 -0.45501202031E+03  0.46580009817E+03  0.47000000000E+01 0. -1.
        -11    1    4    4    0    0 -0.29078770428E+01 -0.50516358525E+02 -0.42134158783E+03  0.42436905149E+03  0.00000000000E+00 0.  1.
         12    1    4    4    0    0  0.23801379894E+02  0.20884642635E+02 -0.51471701267E+03  0.51569009795E+03  0.00000000000E+00 0. -1.
         -5    1    5    5    0  502 -0.24544007594E+02 -0.25477592684E+02 -0.36053959488E+02  0.50729616917E+02  0.47000000000E+01 0.  1.
         13    1    6    6    0    0  0.27914896052E+02  0.57148743587E+02 -0.58389003120E+02  0.86339423211E+02  0.00000000000E+00 0. -1.
        -14    1    6    6    0    0  0.52778127447E+02  0.61017310318E+02 -0.25072086881E+03  0.26338108693E+03  0.00000000000E+00 0.  1.
</event>
<event>
12    1  0.8417180E-002  0.1991945E+03  0.7818608E-02  0.1150561E+00
         21   -1    0    0  501  502  0.00000000000E+00  0.00000000000E+00  0.66396183886E+03  0.66396183886E+03  0.00000000000E+00 0.  1.
         21   -1    0    0  502  503 -0.00000000000E+00 -0.00000000000E+00 -0.68431277216E+02  0.68431277216E+02  0.00000000000E+00 0. -1.
         -6    2    1    2    0  503 -0.29598640127E+01 -0.10073466269E+03  0.16635793206E+03  0.25952532139E+03  0.17182024858E+03 0.  0.
        -24    2    3    3    0    0 -0.66271837520E+02 -0.72958940874E+02  0.12818084503E+03  0.18040846677E+03  0.80012013763E+02 0.  0.
          6    2    1    2  501    0  0.29598640127E+01  0.10073466269E+03  0.42917262959E+03  0.47286779469E+03  0.17105137300E+03 0.  0.
         24    2    5    5    0    0 -0.12036931618E+02  0.60208250668E+00  0.28930835971E+03  0.30013811721E+03  0.78982986641E+02 0.  0.
          5    1    5    5  501    0  0.14996795631E+02  0.10013258018E+03  0.13986426988E+03  0.17272967748E+03  0.47000000000E+01 0. -1.
        -13    1    6    6    0    0 -0.38952855062E+02 -0.11267648611E+02  0.23405721881E+03  0.23754382017E+03  0.00000000000E+00 0.  1.
         14    1    6    6    0    0  0.26915923444E+02  0.11869731118E+02  0.55251140900E+02  0.62594297043E+02  0.00000000000E+00 0. -1.
         -5    1    3    3    0  503  0.63311973507E+02 -0.27775721814E+02  0.38177087023E+02  0.79116854621E+02  0.47000000000E+01 0.  1.
         13    1    4    4    0    0 -0.14345374764E+02  0.16588528767E+02  0.12774262661E+02  0.25380127074E+02  0.00000000000E+00 0. -1.
        -14    1    4    4    0    0 -0.51926462755E+02 -0.89547469640E+02  0.11540658237E+03  0.15502833969E+03  0.00000000000E+00 0.  1.
</event>
<event>
12    1  0.8417180E-002  0.2130021E+03  0.7818608E-02  0.1139433E+00
         21   -1    0    0  501  502  0.00000000000E+00  0.00000000000E+00  0.69058022695E+03  0.69058022695E+03  0.00000000000E+00 0.  1.
         21   -1    0    0  502  503 -0.00000000000E+00 -0.00000000000E+00 -0.88692297506E+03  0.88692297506E+03  0.00000000000E+00 0. -1.
         -6    2    1    2    0  503 -0.53323073487E+02 -0.11306408480E+03 -0.85729039548E+03  0.88308137149E+03  0.17105276690E+03 0.  0.
        -24    2    3    3    0    0  0.30180194741E+02 -0.84149284957E+02 -0.40684337253E+03  0.42402421608E+03  0.79265753872E+02 0.  0.
          6    2    1    2  501    0  0.53323073487E+02  0.11306408480E+03  0.66094764737E+03  0.69442183052E+03  0.17246173112E+03 0.  0.
         24    2    5    5    0    0  0.81470521531E+02  0.12892190354E+03  0.46157953156E+03  0.49239835453E+03  0.78372013518E+02 0.  0.
          5    1    5    5  501    0 -0.28147448044E+02 -0.15857818744E+02  0.19936811582E+03  0.20202347599E+03  0.47000000000E+01 0. -1.
        -11    1    6    6    0    0  0.91353570794E+02  0.87444641034E+02  0.37762179635E+03  0.39823392776E+03  0.00000000000E+00 0.  1.
         12    1    6    6    0    0 -0.98830492635E+01  0.41477262508E+02  0.83957735207E+02  0.94164426770E+02  0.00000000000E+00 0. -1.
         -5    1    3    3    0  503 -0.83503268228E+02 -0.28914799841E+02 -0.45044702295E+03  0.45905715541E+03  0.47000000000E+01 0.  1.
         13    1    4    4    0    0 -0.14243855796E+02 -0.71263710255E+02 -0.26800489535E+03  0.27768332280E+03  0.00000000000E+00 0. -1.
        -14    1    4    4    0    0  0.44424050537E+02 -0.12885574703E+02 -0.13883847717E+03  0.14634089328E+03  0.00000000000E+00 0.  1.
</event>
<event>
12    1  0.8417180E-002  0.1810374E+03  0.7818608E-02  0.1167040E+00
         21   -1    0    0  503  502  0.00000000000E+00  0.00000000000E+00  0.30933379312E+03  0.30933379312E+03  0.00000000000E+00 0. -1.
         21   -1    0    0  501  503 -0.00000000000E+00 -0.00000000000E+00 -0.12302438671E+03  0.12302438671E+03  0.00000000000E+00 0. -1.
          6    2    1    2  501    0  0.54709582000E+02 -0.15433062719E+02  0.11493349360E+02  0.18140187259E+03  0.17188142573E+03 0.  0.
         24    2    3    3    0    0 -0.59572442016E+01  0.27502539301E+02  0.48876214763E+02  0.98074216027E+02  0.80235833972E+02 0.  0.
         -6    2    1    2    0  502 -0.54709582000E+02  0.15433062719E+02  0.17481605705E+03  0.25095630725E+03  0.17084231489E+03 0.  0.
        -24    2    5    5    0    0  0.25521670904E+02 -0.27623932090E+02  0.90176007972E+02  0.12654976943E+03  0.80428194176E+02 0.  0.
          5    1    3    3  501    0  0.60666826202E+02 -0.42935602020E+02 -0.37382865403E+02  0.83327656561E+02  0.47000000000E+01 0. -1.
        -11    1    4    4    0    0 -0.42717498259E+02  0.21072452436E+02  0.29468041019E+02  0.56010698538E+02  0.00000000000E+00 0.  1.
         12    1    4    4    0    0  0.36760254058E+02  0.64300868652E+01  0.19408173743E+02  0.42063517489E+02  0.00000000000E+00 0. -1.
         -5    1    5    5    0  502 -0.80231252904E+02  0.43056994808E+02  0.84640049080E+02  0.12440653782E+03  0.47000000000E+01 0.  1.
         13    1    6    6    0    0  0.31795520981E+02 -0.11035562769E+02  0.10052945531E+03  0.10601372640E+03  0.00000000000E+00 0. -1.
        -14    1    6    6    0    0 -0.62738500767E+01 -0.16588369321E+02 -0.10353447337E+02  0.20536043029E+02  0.00000000000E+00 0.  1.
</event>
<event>
12    1  0.8417180E-002  0.1961018E+03  0.7818608E-02  0.1153333E+00
         21   -1    0    0  503  502  0.00000000000E+00  0.00000000000E+00  0.18402647838E+03  0.18402647838E+03  0.00000000000E+00 0. -1.
         21   -1    0    0  501  503 -0.00000000000E+00 -0.00000000000E+00 -0.39000287988E+03  0.39000287988E+03  0.00000000000E+00 0. -1.
          6    2    1    2  501    0  0.93173115783E+02  0.34738697486E+01 -0.29905899351E+03  0.35695731379E+03  0.17114013261E+03 0.  0.
         24    2    3    3    0    0 -0.16544187622E+02 -0.79783297495E+01 -0.14196683974E+03  0.16494409987E+03  0.81942715410E+02 0.  0.
         -6    2    1    2    0  502 -0.93173115783E+02 -0.34738697486E+01  0.93082592017E+02  0.21707204448E+03  0.17251842302E+03 0.  0.
        -24    2    5    5    0    0 -0.13013552393E+03 -0.49107265443E+01  0.50090560942E+02  0.16016256451E+03  0.78635952022E+02 0.  0.
          5    1    3    3  501    0  0.10971730340E+03  0.11452199498E+02 -0.15709215378E+03  0.19201321392E+03  0.47000000000E+01 0. -1.
        -11    1    4    4    0    0  0.10309521025E+02 -0.38417222604E+02 -0.46409945419E+02  0.61123254578E+02  0.00000000000E+00 0.  1.
         12    1    4    4    0    0 -0.26853708647E+02  0.30438892855E+02 -0.95556894316E+02  0.10382084529E+03  0.00000000000E+00 0. -1.
         -5    1    5    5    0  502  0.36962408152E+02  0.14368567957E+01  0.42992031075E+02  0.56909479964E+02  0.47000000000E+01 0.  1.
         11    1    6    6    0    0 -0.69050895195E+02  0.24870533553E+02  0.55462674052E+02  0.91992813738E+02  0.00000000000E+00 0. -1.
        -12    1    6    6    0    0 -0.61084628739E+02 -0.29781260098E+02 -0.53721131094E+01  0.68169750773E+02  0.00000000000E+00 0.  1.
</event>
<event>
12    1  0.8417180E-002  0.2156378E+03  0.7818608E-02  0.1137610E+00
         21   -1    0    0  501  502  0.00000000000E+00  0.00000000000E+00  0.99292524937E+03  0.99292524937E+03  0.00000000000E+00 0. -1.
         21   -1    0    0  502  503 -0.00000000000E+00 -0.00000000000E+00 -0.58175415274E+02  0.58175415274E+02  0.00000000000E+00 0. -1.
         -6    2    1    2    0  503  0.11886574434E+03 -0.44690609060E+02  0.22842511694E+03  0.31259252516E+03  0.17149267336E+03 0.  0.
        -24    2    3    3    0    0  0.78260981563E+02  0.20950121037E+02  0.20092247788E+03  0.23051976863E+03  0.78777108378E+02 0.  0.
          6    2    1    2  501    0 -0.11886574434E+03  0.44690609060E+02  0.70632471716E+03  0.73850813949E+03  0.17427951776E+03 0.  0.
         24    2    5    5    0    0 -0.78918410126E+01  0.67251397435E+01  0.15182520187E+03  0.17172036040E+03  0.79558039139E+02 0.  0.
          5    1    5    5  501    0 -0.11097390333E+03  0.37965469316E+02  0.55449951528E+03  0.56678777909E+03  0.47000000000E+01 0. -1.
        -13    1    6    6    0    0  0.11127105926E+02  0.90476422109E+01  0.15188447426E+03  0.15256004011E+03  0.00000000000E+00 0.  1.
         14    1    6    6    0    0 -0.19018946939E+02 -0.23225024674E+01 -0.59272388321E-01  0.19160320289E+02  0.00000000000E+00 0. -1.
         -5    1    3    3    0  503  0.40604762782E+02 -0.65640730097E+02  0.27502639059E+02  0.82072756524E+02  0.47000000000E+01 0.  1.
         11    1    4    4    0    0  0.50037555490E+02  0.13077813424E+02  0.19350153901E+03  0.20029386351E+03  0.00000000000E+00 0. -1.
        -12    1    4    4    0    0  0.28223426073E+02  0.78723076139E+01  0.74209388788E+01  0.30225905120E+02  0.00000000000E+00 0.  1.
</event>
<event>
12    1  0.8417180E-002  0.1806192E+03  0.7818608E-02  0.1168231E+00
         21   -1    0    0  503  502  0.00000000000E+00  0.00000000000E+00  0.72652493594E+02  0.72652493594E+02  0.00000000000E+00 0.  1.
         21   -1    0    0  501  503 -0.00000000000E+00 -0.00000000000E+00 -0.63453959428E+03  0.63453959428E+03  0.00000000000E+00 0.  1.
          6    2    1    2  501    0 -0.17837449347E+02 -0.29333053447E+02 -0.47969095381E+03  0.51256873390E+03  0.17732651574E+03 0.  0.
         24    2    3    3    0    0  0.56387132716E+02  0.53260360021E+01 -0.27691699893E+03  0.29382251601E+03  0.80254415602E+02 0.  0.
         -6    2    1    2    0  502  0.17837449347E+02  0.29333053447E+02 -0.82196146880E+02  0.19462335398E+03  0.17304173117E+03 0.  0.
        -24    2    5    5    0    0  0.62624559552E+02  0.52010387545E+01 -0.97307865592E+02  0.14134396381E+03  0.80996352618E+02 0.  0.
          5    1    3    3  501    0 -0.74224582063E+02 -0.34659089449E+02 -0.20277395488E+03  0.21874621789E+03  0.47000000000E+01 0. -1.
        -13    1    4    4    0    0  0.12950454788E+02 -0.34580712568E+02 -0.77194675560E+02  0.85571945729E+02  0.00000000000E+00 0.  1.
         14    1    4    4    0    0  0.43436677928E+02  0.39906748571E+02 -0.19972232337E+03  0.20825057028E+03  0.00000000000E+00 0. -1.
         -5    1    5    5    0  502 -0.44787110205E+02  0.24132014693E+02  0.15111718711E+02  0.53279390162E+02  0.47000000000E+01 0.  1.
         11    1    6    6    0    0 -0.29443566184E+01 -0.28520326228E+02 -0.24339331211E+02  0.37609590370E+02  0.00000000000E+00 0. -1.
        -12    1    6    6    0    0  0.65568916171E+02  0.33721364982E+02 -0.72968534381E+02  0.10373437344E+03  0.00000000000E+00 0.  1.
</event>
<event>
12    1  0.8417180E-002  0.1882469E+03  0.7818608E-02  0.1160163E+00
         21   -1    0    0  503  502  0.00000000000E+00  0.00000000000E+00  0.52759408698E+02  0.52759408698E+02  0.00000000000E+00 0. -1.
         21   -1    0    0  501  503 -0.00000000000E+00 -0.00000000000E+00 -0.94274055876E+03  0.94274055876E+03  0.00000000000E+00 0. -1.
          6    2    1    2  501    0  0.72569485174E+01 -0.75679390517E+02 -0.71315502025E+03  0.73758183272E+03  0.17221162443E+03 0.  0.
         24    2    3    3    0    0  0.15152196646E+02 -0.11520912488E+03 -0.62284081909E+03  0.63856829944E+03  0.79599344195E+02 0.  0.
         -6    2    1    2    0  502 -0.72569485174E+01  0.75679390517E+02 -0.17682612981E+03  0.25791813474E+03  0.17168066459E+03 0.  0.
        -24    2    5    5    0    0 -0.32523889213E+02  0.85206820567E+02 -0.19170565968E+03  0.22673030660E+03  0.79608833290E+02 0.  0.
          5    1    3    3  501    0 -0.78952481282E+01  0.39529734361E+02 -0.90314201159E+02  0.99013533280E+02  0.47000000000E+01 0. -1.
        -11    1    4    4    0    0  0.30548214990E+00 -0.70820657844E+02 -0.18270836552E+03  0.19595409086E+03  0.00000000000E+00 0.  1.
         12    1    4    4    0    0  0.14846714496E+02 -0.44388467033E+02 -0.44013245358E+03  0.44261420857E+03  0.00000000000E+00 0. -1.
         -5    1    5    5    0  502  0.25266940696E+02 -0.95274300502E+01  0.14879529865E+02  0.31187828146E+02  0.47000000000E+01 0.  1.
         11    1    6    6    0    0 -0.24588423223E+02  0.11604452042E+02 -0.74984026083E+01  0.28204253323E+02  0.00000000000E+00 0. -1.
        -12    1    6    6    0    0 -0.79354659896E+01  0.73602368525E+02 -0.18420725707E+03  0.19852605328E+03  0.00000000000E+00 0.  1.
</event>
<event>
12    1  0.8417180E-002  0.2451754E+03  0.7818608E-02  0.1116610E+00
         21   -1    0    0  501  502  0.00000000000E+00  0.00000000000E+00  0.21287498153E+03  0.21287498153E+03  0.00000000000E+00 0.  1.
         21   -1    0    0  502  503 -0.00000000000E+00 -0.00000000000E+00 -0.28333298137E+03  0.28333298137E+03  0.00000000000E+00 0. -1.
         -6    2    1    2    0  503 -0.16348355529E+02 -0.17349112053E+03 -0.12019992999E+02  0.24546990213E+03  0.17246609809E+03 0.  0.
        -24    2    3    3    0    0 -0.14760555146E+02 -0.10613705889E+02 -0.12714270961E+02  0.82515474972E+02  0.79477205429E+02 0.  0.
          6    2    1    2  501    0  0.16348355529E+02  0.17349112053E+03 -0.58438006837E+02  0.25073806077E+03  0.17055244602E+03 0.  0.
         24    2    5    5    0    0  0.29774547177E+01  0.11408151395E+03 -0.10436728654E+03  0.17431901159E+03  0.80443335591E+02 0.  0.
          5    1    5    5  501    0  0.13370900811E+02  0.59409606578E+02  0.45929279708E+02  0.76419049174E+02  0.47000000000E+01 0. -1.
        -11    1    6    6    0    0 -0.17490748850E+02  0.51265353275E+00 -0.36412018147E+02  0.40398318957E+02  0.00000000000E+00 0.  1.
         12    1    6    6    0    0  0.20468203568E+02  0.11356886042E+03 -0.67955268398E+02  0.13392069264E+03  0.00000000000E+00 0. -1.
         -5    1    3    3    0  503 -0.15878003823E+01 -0.16287741464E+03  0.69427796278E+00  0.16295442716E+03  0.47000000000E+01 0.  1.
         11    1    4    4    0    0 -0.34353358339E+02  0.72551002367E+01 -0.33724128503E+02  0.48683740118E+02  0.00000000000E+00 0. -1.
        -12    1    4    4    0    0  0.19592803192E+02 -0.17868806126E+02  0.21009857542E+02  0.33831734854E+02  0.00000000000E+00 0.  1.
</event>
<event>
12    1  0.8417180E-002  0.2224382E+03  0.7818608E-02  0.1132179E+00
         21   -1    0    0  503  502  0.00000000000E+00  0.00000000000E+00  0.72756038179E+02  0.72756038179E+02  0.00000000000E+00 0. -1.
         21   -1    0    0  501  503 -0.00000000000E+00 -0.00000000000E+00 -0.27995999105E+04  0.27995999105E+04  0.00000000000E+00 0.  1.
          6    2    1    2  501    0 -0.55764646891E+02 -0.13025128452E+03 -0.26139470809E+04  0.26233943825E+04  0.17147493056E+03 0.  0.
         24    2    3    3    0    0 -0.62104417027E+02 -0.10754649620E+02 -0.10899862427E+04  0.10947353739E+04  0.80018175974E+02 0.  0.
         -6    2    1    2    0  502  0.55764646891E+02  0.13025128452E+03 -0.11289679140E+03  0.24896156608E+03  0.17076616443E+03 0.  0.
        -24    2    5    5    0    0  0.48984227112E+01  0.77590914870E+02 -0.13256267571E+03  0.17300549786E+03  0.79458760901E+02 0.  0.
          5    1    3    3  501    0  0.63397701357E+01 -0.11949663490E+03 -0.15239608381E+04  0.15286590086E+04  0.47000000000E+01 0. -1.
        -11    1    4    4    0    0 -0.40377769234E+02 -0.30588195658E+02 -0.96520294075E+03  0.96653128185E+03  0.00000000000E+00 0.  1.
         12    1    4    4    0    0 -0.21726647792E+02  0.19833546037E+02 -0.12478330200E+03  0.12820409210E+03  0.00000000000E+00 0. -1.
         -5    1    5    5    0  502  0.50866224180E+02  0.52660369653E+02  0.19665884307E+02  0.75956068223E+02  0.47000000000E+01 0.  1.
         11    1    6    6    0    0 -0.21682699332E+02  0.84504664941E+01 -0.26010667464E+01  0.23416135089E+02  0.00000000000E+00 0. -1.
        -12    1    6    6    0    0  0.26581122043E+02  0.69140448375E+02 -0.12996160896E+03  0.14958936277E+03  0.00000000000E+00 0.  1.
</event>
<event>
12    1  0.8417180E-002  0.2381908E+03  0.7818608E-02  0.1121159E+00
         21   -1    0    0  501  502  0.00000000000E+00  0.00000000000E+00  0.13110223055E+03  0.13110223055E+03  0.00000000000E+00 0. -1.
         21   -1    0    0  502  503 -0.00000000000E+00 -0.00000000000E+00 -0.43761341774E+03  0.43761341774E+03  0.00000000000E+00 0.  1.
         -6    2    1    2    0  503 -0.10247120814E+03  0.12811328473E+03 -0.11881243505E+03  0.26617896580E+03  0.17268898312E+03 0.  0.
        -24    2    3    3    0    0 -0.85405414384E+02  0.13718804500E+03 -0.38884638154E+02  0.18381310329E+03  0.78489472930E+02 0.  0.
          6    2    1    2  501    0  0.10247120814E+03 -0.12811328473E+03 -0.18769875214E+03  0.30253668248E+03  0.17141837845E+03 0.  0.
         24    2    5    5    0    0 -0.33978667712E+01 -0.88540589937E+02 -0.12666769554E+03  0.17400209933E+03  0.79881436604E+02 0.  0.
          5    1    5    5  501    0  0.10586907491E+03 -0.39572694795E+02 -0.61031056603E+02  0.12853458315E+03  0.47000000000E+01 0. -1.
        -11    1    6    6    0    0  0.22287177251E+02 -0.90817410537E+02 -0.99173989524E+02  0.13630847562E+03  0.00000000000E+00 0.  1.
         12    1    6    6    0    0 -0.25685044022E+02  0.22768205999E+01 -0.27493706014E+02  0.37693623716E+02  0.00000000000E+00 0. -1.
         -5    1    3    3    0  503 -0.17065793753E+02 -0.90747602651E+01 -0.79927796900E+02  0.82365862514E+02  0.47000000000E+01 0.  1.
         13    1    4    4    0    0 -0.28515275733E+02 -0.15246600070E+01 -0.14118814356E+02  0.31855713100E+02  0.00000000000E+00 0. -1.
        -14    1    4    4    0    0 -0.56890138651E+02  0.13871270500E+03 -0.24765823797E+02  0.15195739019E+03  0.00000000000E+00 0.  1.
</event>
<event>
12    1  0.8417180E-002  0.2204343E+03  0.7818608E-02  0.1136276E+00
         21   -1    0    0  501  502  0.00000000000E+00  0.00000000000E+00  0.72205856645E+02  0.72205856645E+02  0.00000000000E+00 0.  1.
         21   -1    0    0  502  503 -0.00000000000E+00 -0.00000000000E+00 -0.88736752677E+03  0.88736752677E+03  0.00000000000E+00 0.  1.
         -6    2    1    2    0  503 -0.80201040200E+02  0.82928776799E+02 -0.67514273583E+03  0.71021757331E+03  0.18783476467E+03 0.  0.
        -24    2    3    3    0    0 -0.75175515791E+02  0.81770924917E+02 -0.68474884385E+03  0.69834475443E+03  0.80415014451E+02 0.  0.
          6    2    1    2  501    0  0.80201040200E+02 -0.82928776799E+02 -0.14001893430E+03  0.24935581011E+03  0.17106615447E+03 0.  0.
         24    2    5    5    0    0  0.43321345105E+02 -0.18046422974E+02 -0.68595636834E+00  0.91224217801E+02  0.78223877770E+02 0.  0.
          5    1    5    5  501    0  0.36879695095E+02 -0.64882353826E+02 -0.13933297793E+03  0.15813159231E+03  0.47000000000E+01 0. -1.
        -11    1    6    6    0    0  0.61453827411E+02 -0.23782028201E+01 -0.15010522565E+02  0.63305169929E+02  0.00000000000E+00 0.  1.
         12    1    6    6    0    0 -0.18132482305E+02 -0.15668220153E+02  0.14324566197E+02  0.27919047871E+02  0.00000000000E+00 0. -1.
         -5    1    3    3    0  503 -0.50255244086E+01  0.11578518821E+01  0.96061080250E+01  0.11872818871E+02  0.47000000000E+01 0.  1.
         13    1    4    4    0    0 -0.22901499078E+02 -0.10927161902E+02 -0.22567832614E+03  0.22710039282E+03  0.00000000000E+00 0. -1.
        -14    1    4    4    0    0 -0.52274016714E+02  0.92698086819E+02 -0.45907051771E+03  0.47124436162E+03  0.00000000000E+00 0.  1.
</event>
<event>
12    1  0.8417180E-002  0.1797404E+03  0.7818608E-02  0.1168395E+00
         21   -1    0    0  501  502  0.00000000000E+00  0.00000000000E+00  0.22360617697E+04  0.22360617697E+04  0.00000000000E+00 0.  1.
         21   -1    0    0  502  503 -0.00000000000E+00 -0.00000000000E+00 -0.19364748373E+03  0.19364748373E+03  0.00000000000E+00 0.  1.
         -6    2    1    2    0  503  0.21118012301E+02 -0.43613371762E+02 -0.14810928685E+03  0.23182387422E+03  0.17163289652E+03 0.  0.
        -24    2    3    3    0    0 -0.37243146702E+02 -0.17472074082E+02 -0.14048679852E+03  0.16725155312E+03  0.80896329412E+02 0.  0.
          6    2    1    2  501    0 -0.21118012301E+02  0.43613371762E+02  0.21905235728E+04  0.21978853792E+04  0.17308529813E+03 0.  0.
         24    2    5    5    0    0 -0.55016084220E+02  0.67481420638E+02  0.10124534055E+04  0.10190765855E+04  0.76646442325E+02 0.  0.
          5    1    5    5  501    0  0.33898071919E+02 -0.23868048875E+02  0.11780701673E+04  0.11788087937E+04  0.47000000000E+01 0. -1.
        -11    1    6    6    0    0 -0.65202329809E+02  0.23206034598E+02  0.53275644112E+03  0.53723299360E+03  0.00000000000E+00 0.  1.
         12    1    6    6    0    0  0.10186245590E+02  0.44275386040E+02  0.47969696437E+03  0.48184359188E+03  0.00000000000E+00 0. -1.
         -5    1    3    3    0  503  0.58361159003E+02 -0.26141297681E+02 -0.76224883264E+01  0.64572321105E+02  0.47000000000E+01 0.  1.
         13    1    4    4    0    0  0.92952162042E+01 -0.38518910157E+02 -0.58510442153E+02  0.70665262505E+02  0.00000000000E+00 0. -1.
        -14    1    4    4    0    0 -0.46538362906E+02  0.21046836076E+02 -0.81976356368E+02  0.96586290612E+02  0.00000000000E+00 0.  1.
</event>
<event>
12    1  0.8417180E-002  0.2019705E+03  0.7818608E-02  0.1148544E+00
         21   -1    0    0  503  502  0.00000000000E+00  0.00000000000E+00  0.15956702829E+03  0.15956702829E+03  0.00000000000E+00 0.  1.
         21   -1    0    0  501  503 -0.00000000000E+00 -0.00000000000E+00 -0.25438504758E+03  0.25438504758E+03  0.00000000000E+00 0.  1.
          6    2    1    2  501    0  0.88472247765E+02 -0.52995817623E+02 -0.63017870444E+02  0.20949346891E+03  0.17111506716E+03 0.  0.
         24    2    3    3    0    0  0.98343873459E+02 -0.63351886773E+02  0.21879944893E+01  0.14257118575E+03  0.81466414433E+02 0.  0.
         -6    2    1    2    0  502 -0.88472247765E+02  0.52995817623E+02 -0.31800148852E+02  0.20445860697E+03  0.17365534022E+03 0.  0.
        -24    2    5    5    0    0  0.20551713523E+02  0.71259795093E+01 -0.18869803888E+02  0.85380691279E+02  0.80378109157E+02 0.  0.
          5    1    3    3  501    0 -0.98716256939E+01  0.10356069150E+02 -0.65205864933E+02  0.66922283163E+02  0.47000000000E+01 0. -1.
        -13    1    4    4    0    0  0.41865523220E+02 -0.60775245643E+02 -0.27446857801E+02  0.78738062718E+02  0.00000000000E+00 0.  1.
         14    1    4    4    0    0  0.56478350238E+02 -0.25766411293E+01  0.29634852290E+02  0.63833123027E+02  0.00000000000E+00 0. -1.
         -5    1    5    5    0  502 -0.10902396129E+03  0.45869838114E+02 -0.12930344963E+02  0.11907791569E+03  0.47000000000E+01 0.  1.
         13    1    6    6    0    0 -0.18581003298E+02 -0.24419964124E+02 -0.17003847147E+02  0.35081606992E+02  0.00000000000E+00 0. -1.
        -14    1    6    6    0    0  0.39132716821E+02  0.31545943633E+02 -0.18659567413E+01  0.50299084286E+02  0.00000000000E+00 0.  1.
</event>
<event>
12    1  0.8417180E-002  0.2433808E+03  0.7818608E-02  0.1117755E+00
         21   -1    0    0  501  502  0.00000000000E+00  0.00000000000E+00  0.95924520515E+03  0.95924520515E+03  0.00000000000E+00 0. -1.
         21   -1    0    0  502  503 -0.00000000000E+00 -0.00000000000E+00 -0.54328728141E+03  0.54328728141E+03  0.00000000000E+00 0.  1.
         -6    2    1    2    0  503 -0.14537656025E+03 -0.95396044684E+02 -0.49946777791E+03  0.55560983940E+03  0.17029234526E+03 0.  0.
        -24    2    3    3    0    0 -0.17228049040E+03 -0.64865247929E+02 -0.39243339663E+03  0.44100443035E+03  0.81196484122E+02 0.  0.
          6    2    1    2  501    0  0.14537656025E+03  0.95396044684E+02  0.91542570165E+03  0.94692264717E+03  0.16859280785E+03 0.  0.
         24    2    5    5    0    0  0.13377005809E+03  0.17167231083E+02  0.49755758516E+03  0.52161063117E+03  0.79529602877E+02 0.  0.
          5    1    5    5  501    0  0.11606502158E+02  0.78228813602E+02  0.41786811649E+03  0.42531201600E+03  0.47000000000E+01 0. -1.
        -11    1    6    6    0    0  0.45893619951E+01 -0.23195527990E+01  0.15347981451E+03  0.15356593382E+03  0.00000000000E+00 0.  1.
         12    1    6    6    0    0  0.12918069609E+03  0.19486783882E+02  0.34407777065E+03  0.36804469735E+03  0.00000000000E+00 0. -1.
         -5    1    3    3    0  503  0.26903930150E+02 -0.30530796755E+02 -0.10703438128E+03  0.11460540905E+03  0.47000000000E+01 0.  1.
         13    1    4    4    0    0 -0.10270601325E+03 -0.55967488176E+02 -0.15983805639E+03  0.19806334633E+03  0.00000000000E+00 0. -1.
        -14    1    4    4    0    0 -0.69574477145E+02 -0.88977597525E+01 -0.23259534024E+03  0.24294108401E+03  0.00000000000E+00 0.  1.
</event>
<event>
12    1  0.8417180E-002  0.1796183E+03  0.7818608E-02  0.1168258E+00
         21   -1    0    0  501  502  0.00000000000E+00  0.00000000000E+00  0.39421478722E+03  0.39421478722E+03  0.00000000000E+00 0.  1.
         21   -1    0    0  502  503 -0.00000000000E+00 -0.00000000000E+00 -0.20533958945E+03  0.20533958945E+03  0.00000000000E+00 0.  1.
         -6    2    1    2    0  503 -0.52859606340E+02  0.69929937870E+01 -0.13816031322E+03  0.22660756850E+03  0.17152165463E+03 0.  0.
        -24    2    3    3    0    0 -0.54300219803E+01  0.26774026185E+01  0.31152152044E+01  0.77446398181E+02  0.77146525534E+02 0.  0.
          6    2    1    2  501    0  0.52859606340E+02 -0.69929937870E+01  0.32703551098E+03  0.37294680818E+03  0.17115506520E+03 0.  0.
         24    2    5    5    0    0 -0.16575491735E+02 -0.48816605100E+01  0.27319583861E+03  0.28493265651E+03  0.79070063728E+02 0.  0.
          5    1    5    5  501    0  0.69435098075E+02 -0.21113332769E+01  0.53839672379E+02  0.88014151673E+02  0.47000000000E+01 0. -1.
        -11    1    6    6    0    0  0.26033363287E+02 -0.86235376390E+01  0.18375762853E+03  0.18579280785E+03  0.00000000000E+00 0.  1.
         12    1    6    6    0    0 -0.42608855022E+02  0.37418771290E+01  0.89438210074E+02  0.99139848658E+02  0.00000000000E+00 0. -1.
         -5    1    3    3    0  503 -0.47429584360E+02  0.43155911685E+01 -0.14127552842E+03  0.14916117032E+03  0.47000000000E+01 0.  1.
         13    1    4    4    0    0  0.14474210937E+02  0.33496016576E+02 -0.11039795539E+02  0.38122998233E+02  0.00000000000E+00 0. -1.
        -14    1    4    4    0    0 -0.19904232917E+02 -0.30818613958E+02  0.14155010744E+02  0.39323399948E+02  0.00000000000E+00 0.  1.
</event>
<event>
12    1  0.8417180E-002  0.1990583E+03  0.7818608E-02  0.1150800E+00
         21   -1    0    0  501  502  0.00000000000E+00  0.00000000000E+00  0.77274092442E+02  0.77274092442E+02  0.00000000000E+00 0. -1.
         21   -1    0    0  502  503 -0.00000000000E+00 -0.00000000000E+00 -0.53377237884E+03  0.53377237884E+03  0.00000000000E+00 0.  1.
         -6    2    1    2    0  503  0.58636493693E+02  0.78264944050E+02 -0.29396707933E+03  0.35502234146E+03  0.17337987006E+03 0.  0.
        -24    2    3    3    0    0 -0.16667394610E+02  0.50077936623E+01 -0.19234568762E+03  0.20878184457E+03  0.79310245464E+02 0.  0.
          6    2    1    2  501    0 -0.58636493693E+02 -0.78264944050E+02 -0.16253120707E+03  0.25602412983E+03  0.17195441815E+03 0.  0.
         24    2    5    5    0    0 -0.70509822698E+02 -0.27797695917E+01 -0.14025059278E+03  0.17629017672E+03  0.80178771611E+02 0.  0.
          5    1    5    5  501    0  0.11873329005E+02 -0.75485174458E+02 -0.22280614286E+02  0.79733953104E+02  0.47000000000E+01 0. -1.
        -13    1    6    6    0    0  0.15488490079E+02  0.10312269178E+02 -0.15568123762E+02  0.24261135546E+02  0.00000000000E+00 0.  1.
         14    1    6    6    0    0 -0.85998312778E+02 -0.13092038770E+02 -0.12468246902E+03  0.15202904118E+03  0.00000000000E+00 0. -1.
         -5    1    3    3    0  503  0.75303888304E+02  0.73257150388E+02 -0.10162139171E+03  0.14624049689E+03  0.47000000000E+01 0.  1.
         13    1    4    4    0    0 -0.23231486666E+02 -0.33811191705E+02 -0.11276299615E+03  0.11999329964E+03  0.00000000000E+00 0. -1.
        -14    1    4    4    0    0  0.65640920560E+01  0.38818985368E+02 -0.79582691465E+02  0.88788544928E+02  0.00000000000E+00 0.  1.
</event>
<event>
12    1  0.8417180E-002  0.2193415E+03  0.7818608E-02  0.1134379E+00
         21   -1    0    0  503  502  0.00000000000E+00  0.00000000000E+00  0.76608435430E+02  0.76608435430E+02  0.00000000000E+00 0. -1.
         21   -1    0    0  501  503 -0.00000000000E+00 -0.00000000000E+00 -0.12096294187E+04  0.12096294187E+04  0.00000000000E+00 0. -1.
          6    2    1    2  501    0 -0.12997447293E+03  0.36580849576E+02 -0.10125019435E+04  0.10359878696E+04  0.17285588823E+03 0.  0.
         24    2    3    3    0    0  0.11692694405E+01  0.21098580767E+02 -0.48004887920E+03  0.48738351531E+03  0.81542916754E+02 0.  0.
         -6    2    1    2    0  502  0.12997447293E+03 -0.36580849576E+02 -0.12051903980E+03  0.25024998461E+03  0.17282561637E+03 0.  0.
        -24    2    5    5    0    0  0.14862759247E+03 -0.21893881248E+02 -0.54045324378E+02  0.17950755922E+03  0.82052199554E+02 0.  0.
          5    1    3    3  501    0 -0.13114374237E+03  0.15482268809E+02 -0.53245306430E+03  0.54860435424E+03  0.47000000000E+01 0. -1.
        -13    1    4    4    0    0  0.21407522882E+02  0.40333601632E+02 -0.16822687742E+03  0.17431398034E+03  0.00000000000E+00 0.  1.
         14    1    4    4    0    0 -0.20238253442E+02 -0.19235020864E+02 -0.31182200178E+03  0.31306953497E+03  0.00000000000E+00 0. -1.
         -5    1    5    5    0  502 -0.18653119544E+02 -0.14686968328E+02 -0.66473715419E+02  0.70742425383E+02  0.47000000000E+01 0.  1.
         11    1    6    6    0    0  0.92882328769E+02  0.26401261160E+02 -0.39514092048E+02  0.10433368132E+03  0.00000000000E+00 0. -1.
        -12    1    6    6    0    0  0.55745263702E+02 -0.48295142408E+02 -0.14531232330E+02  0.75173877899E+02  0.00000000000E+00 0.  1.
</event>
<event>
12    1  0.8417180E-002  0.2245221E+03  0.7818608E-02  0.1130874E+00
         21   -1    0    0  503  502  0.00000000000E+00  0.00000000000E+00  0.83646912311E+03  0.83646912311E+03  0.00000000000E+00 0. -1.
         21   -1    0    0  501  503 -0.00000000000E+00 -0.00000000000E+00 -0.44315680667E+03  0.44315680667E+03  0.00000000000E+00 0. -1.
          6    2    1    2  501    0  0.91461981557E+02 -0.10822760638E+03 -0.39832170909E+03  0.45724210088E+03  0.17415982897E+03 0.  0.
         24    2    3    3    0    0 -0.14514543430E+02 -0.61218483940E+02 -0.12913777329E+03  0.16411591178E+03  0.79366827216E+02 0.  0.
         -6    2    1    2    0  502 -0.91461981557E+02  0.10822760638E+03  0.79163402553E+03  0.82238382890E+03  0.17190759961E+03 0.  0.
        -24    2    5    5    0    0 -0.21525680197E+02  0.10970326219E+03  0.65567661361E+03  0.66941398983E+03  0.75532162062E+02 0.  0.
          5    1    3    3  501    0  0.10597652499E+03 -0.47009122438E+02 -0.26918393580E+03  0.29312618909E+03  0.47000000000E+01 0. -1.
        -13    1    4    4    0    0  0.24595821698E+02 -0.54129852381E+02 -0.60663724040E+02  0.84941643369E+02  0.00000000000E+00 0.  1.
         14    1    4    4    0    0 -0.39110365128E+02 -0.70886315585E+01 -0.68474049251E+02  0.79174268413E+02  0.00000000000E+00 0. -1.
         -5    1    5    5    0  502 -0.69936301360E+02 -0.14756558103E+01  0.13595741192E+03  0.15296983907E+03  0.47000000000E+01 0.  1.
         11    1    6    6    0    0  0.12454969970E+02  0.50570601731E+02  0.44345390373E+03  0.44650182169E+03  0.00000000000E+00 0. -1.
        -12    1    6    6    0    0 -0.33980650168E+02  0.59132660457E+02  0.21222270988E+03  0.22291216815E+03  0.00000000000E+00 0.  1.
</event>
<event>
12    1  0.8417180E-002  0.1759327E+03  0.7818608E-02  0.1175306E+00
         21   -1    0    0  503  502  0.00000000000E+00  0.00000000000E+00  0.10862940748E+04  0.10862940748E+04  0.00000000000E+00 0. -1.
         21   -1    0    0  501  503 -0.00000000000E+00 -0.00000000000E+00 -0.26440960441E+02  0.26440960441E+02  0.00000000000E+00 0. -1.
          6    2    1    2  501    0  0.40178022924E+02  0.11304297115E+02  0.51864590891E+03  0.54767317071E+03  0.17091010042E+03 0.  0.
         24    2    3    3    0    0 -0.10172790754E+02  0.37076031449E+02  0.45069967126E+03  0.45913974233E+03  0.78746374775E+02 0.  0.
         -6    2    1    2    0  502 -0.40178022924E+02 -0.11304297115E+02  0.54120720543E+03  0.56506186451E+03  0.15699557592E+03 0.  0.
        -24    2    5    5    0    0  0.10887249399E+02  0.81783121144E+01  0.46294730955E+03  0.46949024005E+03  0.76912008756E+02 0.  0.
          5    1    3    3  501    0  0.50350813678E+02 -0.25771734335E+02  0.67946237656E+02  0.88533428377E+02  0.47000000000E+01 0. -1.
        -13    1    4    4    0    0  0.17255493846E+02  0.38356739996E+02  0.11732251971E+03  0.12463372417E+03  0.00000000000E+00 0.  1.
         14    1    4    4    0    0 -0.27428284600E+02 -0.12807085463E+01  0.33337715155E+03  0.33450601816E+03  0.00000000000E+00 0. -1.
         -5    1    5    5    0  502 -0.51065272324E+02 -0.19482609229E+02  0.78259895877E+02  0.95571624463E+02  0.47000000000E+01 0.  1.
         11    1    6    6    0    0 -0.16237144022E+02  0.35776165586E+02  0.24643599423E+03  0.24954814790E+03  0.00000000000E+00 0. -1.
        -12    1    6    6    0    0  0.27124393421E+02 -0.27597853471E+02  0.21651131532E+03  0.21994209215E+03  0.00000000000E+00 0.  1.
</event>
<event>
12    1  0.8417180E-002  0.1847462E+03  0.7818608E-02  0.1163337E+00
         21   -1    0    0  501  502  0.00000000000E+00  0.00000000000E+00  0.57685720880E+02  0.57685720880E+02  0.00000000000E+00 0.  1.
         21   -1    0    0  502  503 -0.00000000000E+00 -0.00000000000E+00 -0.69006923341E+03  0.69006923341E+03  0.00000000000E+00 0.  1.
         -6    2    1    2    0  503 -0.25123807115E+01 -0.67944808033E+02 -0.45770328453E+03  0.49350244181E+03  0.17155044274E+03 0.  0.
        -24    2    3    3    0    0  0.37492656843E+02 -0.54964909545E+02 -0.42980617649E+03  0.44281497362E+03  0.83216049613E+02 0.  0.
          6    2    1    2  501    0  0.25123807115E+01  0.67944808033E+02 -0.17468022800E+03  0.25425251248E+03  0.17177994369E+03 0.  0.
         24    2    5    5    0    0  0.15617072675E+01  0.60710915638E+02 -0.20212312168E+03  0.22546995886E+03  0.79339093908E+02 0.  0.
          5    1    5    5  501    0  0.95067344399E+00  0.72338923954E+01  0.27442893684E+02  0.28782553621E+02  0.47000000000E+01 0. -1.
        -11    1    6    6    0    0  0.23527916826E+02  0.46138873292E+02 -0.53255938733E+02  0.74286967290E+02  0.00000000000E+00 0.  1.
         12    1    6    6    0    0 -0.21966209558E+02  0.14572042346E+02 -0.14886718295E+03  0.15118299157E+03  0.00000000000E+00 0. -1.
         -5    1    3    3    0  503 -0.40005037555E+02 -0.12979898488E+02 -0.27897108040E+02  0.50687468190E+02  0.47000000000E+01 0.  1.
         11    1    4    4    0    0  0.27706116310E+02 -0.10753434817E+02 -0.37237796381E+02  0.47643664014E+02  0.00000000000E+00 0. -1.
        -12    1    4    4    0    0  0.97865405330E+01 -0.44211474728E+02 -0.39256838011E+03  0.39517130960E+03  0.00000000000E+00 0.  1.
</event>
<event>
12    1  0.8417180E-002  0.1749129E+03  0.7818608E-02  0.1173065E+00
         21   -1    0    0  503  502  0.00000000000E+00  0.00000000000E+00  0.16454364563E+03  0.16454364563E+03  0.00000000000E+00 0. -1.
         21   -1    0    0  501  503 -0.00000000000E+00 -0.00000000000E+00 -0.27922198459E+03  0.27922198459E+03  0.00000000000E+00 0. -1.
          6    2    1    2  501    0 -0.26287149202E+02  0.19167972190E+02 -0.18619170763E+03  0.25479817333E+03  0.17086934123E+03 0.  0.
         24    2    3    3    0    0  0.14263761891E+02 -0.43867895110E+02 -0.14086658357E+03  0.16708070741E+03  0.77102018761E+02 0.  0.
         -6    2    1    2    0  502  0.26287149202E+02 -0.19167972190E+02  0.71513368668E+02  0.18896745688E+03  0.17186073575E+03 0.  0.
        -24    2    5    5    0    0  0.63076867719E+02 -0.33592566047E+02  0.95280173874E+02  0.14261550626E+03  0.78445645887E+02 0.  0.
          5    1    3    3  501    0 -0.40550911093E+02  0.63035867300E+02 -0.45325124054E+02  0.87717465918E+02  0.47000000000E+01 0. -1.
        -13    1    4    4    0    0 -0.25922478249E+02 -0.41179122271E+02 -0.88761706279E+02  0.10122418432E+03  0.00000000000E+00 0.  1.
         14    1    4    4    0    0  0.40186240140E+02 -0.26887728385E+01 -0.52104877295E+02  0.65856523093E+02  0.00000000000E+00 0. -1.
         -5    1    5    5    0  502 -0.36789718517E+02  0.14424593857E+02 -0.23766805206E+02  0.46351950619E+02  0.47000000000E+01 0.  1.
         11    1    6    6    0    0  0.67865086162E+02 -0.92558394232E+00  0.41633749032E+02  0.79623461893E+02  0.00000000000E+00 0. -1.
        -12    1    6    6    0    0 -0.47882184431E+01 -0.32666982104E+02  0.53646424842E+02  0.62992044371E+02  0.00000000000E+00 0.  1.
</event>
<event>
12    1  0.8417180E-002  0.1751470E+03  0.7818608E-02  0.1173909E+00
         21   -1    0    0  503  502  0.00000000000E+00  0.00000000000E+00  0.10451030413E+03  0.10451030413E+03  0.00000000000E+00 0.  1.
         21   -1    0    0  501  503 -0.00000000000E+00 -0.00000000000E+00 -0.36935186765E+03  0.36935186765E+03  0.00000000000E+00 0.  1.
          6    2    1    2  501    0  0.22192880571E+02  0.17433961144E+02 -0.24417993114E+03  0.29750069091E+03  0.16758984268E+03 0.  0.
         24    2    3    3    0    0  0.37449327329E+02 -0.34372798190E+02 -0.21768965739E+03  0.23716393525E+03  0.79208609862E+02 0.  0.
         -6    2    1    2    0  502 -0.22192880571E+02 -0.17433961144E+02 -0.20661632377E+02  0.17636148087E+03  0.17285832908E+03 0.  0.
        -24    2    5    5    0    0  0.24145421516E+02 -0.41545267841E+02 -0.59682097920E+02  0.11099115058E+03  0.80299888136E+02 0.  0.
          5    1    3    3  501    0 -0.15256446758E+02  0.51806759334E+02 -0.26490273757E+02  0.60336755665E+02  0.47000000000E+01 0. -1.
        -11    1    4    4    0    0  0.15896025119E+02 -0.55992701097E+02 -0.17680391193E+03  0.18613836108E+03  0.00000000000E+00 0.  1.
         12    1    4    4    0    0  0.21553302210E+02  0.21619902906E+02 -0.40885745453E+02  0.51025574167E+02  0.00000000000E+00 0. -1.
         -5    1    5    5    0  502 -0.46338302087E+02  0.24111306697E+02  0.39020465543E+02  0.65370330289E+02  0.47000000000E+01 0.  1.
         13    1    6    6    0    0  0.42782922556E+02 -0.15317845945E+02 -0.26629238894E+01  0.45520391370E+02  0.00000000000E+00 0. -1.
        -14    1    6    6    0    0 -0.18637501040E+02 -0.26227421895E+02 -0.57019174031E+02  0.65470759209E+02  0.00000000000E+00 0.  1.
</event>
<event>
12    1  0.8417180E-002  0.1782595E+03  0.7818608E-02  0.1172235E+00
         21   -1    0    0  503  502  0.00000000000E+00  0.00000000000E+00  0.60731033235E+03  0.60731033235E+03  0.00000000000E+00 0.  1.
         21   -1    0    0  501  503 -0.00000000000E+00 -0.00000000000E+00 -0.13616985266E+03  0.13616985266E+03  0.00000000000E+00 0.  1.
          6    2    1    2  501    0 -0.42264148128E+02  0.19735107913E+02 -0.64121711962E+02  0.17931527458E+03  0.16083109479E+03 0.  0.
         24    2    3    3    0    0  0.31732636950E+02  0.78757928853E+01 -0.10885437737E+02  0.87269859438E+02  0.80178221795E+02 0.  0.
         -6    2    1    2    0  502  0.42264148128E+02 -0.19735107913E+02  0.53526219165E+03  0.56416491044E+03  0.17204853867E+03 0.  0.
        -24    2    5    5    0    0 -0.13446540489E+02 -0.79762017719E+01  0.11297572836E+03  0.13803124622E+03  0.77747543300E+02 0.  0.
          5    1    3    3  501    0 -0.73996785079E+02  0.11859315027E+02 -0.53236274226E+02  0.92045415140E+02  0.47000000000E+01 0. -1.
        -11    1    4    4    0    0 -0.13774382993E+02 -0.26243007534E+02 -0.20302936467E+01  0.29707762681E+02  0.00000000000E+00 0.  1.
         12    1    4    4    0    0  0.45507019943E+02  0.34118800419E+02 -0.88551440900E+01  0.57562096757E+02  0.00000000000E+00 0. -1.
         -5    1    5    5    0  502  0.55710688617E+02 -0.11758906141E+02  0.42228646329E+03  0.42613366421E+03  0.47000000000E+01 0.  1.
         11    1    6    6    0    0 -0.40288243857E+01 -0.28014852905E+02  0.11237210473E+03  0.11588163500E+03  0.00000000000E+00 0. -1.
        -12    1    6    6    0    0 -0.94177161031E+01  0.20038651133E+02  0.60362363290E+00  0.22149611222E+02  0.00000000000E+00 0.  1.
</event>
<event>
12    1  0.8417180E-002  0.2053569E+03  0.7818608E-02  0.1146200E+00
         21   -1    0    0  501  502  0.00000000000E+00  0.00000000000E+00  0.33064092515E+03  0.33064092515E+03  0.00000000000E+00 0.  1.
         21   -1    0    0  502  503 -0.00000000000E+00 -0.00000000000E+00 -0.21427242423E+03  0.21427242423E+03  0.00000000000E+00 0. -1.
         -6    2    1    2    0  503 -0.44126305503E+02 -0.92002053933E+02 -0.11819919368E+03  0.23315472203E+03  0.17314319580E+03 0.  0.
        -24    2    3    3    0    0 -0.19437369070E+02  0.98005518779E+00 -0.29985867177E+01  0.82993188859E+02  0.80623235176E+02 0.  0.
          6    2    1    2  501    0  0.44126305503E+02  0.92002053933E+02  0.23456769460E+03  0.31175862735E+03  0.17821315779E+03 0.  0.
         24    2    5    5    0    0  0.90153272397E+02  0.22479176887E+02  0.12971671656E+03  0.17771486691E+03  0.78251015652E+02 0.  0.
          5    1    5    5  501    0 -0.46026966894E+02  0.69522877046E+02  0.10485097804E+03  0.13404376043E+03  0.47000000000E+01 0. -1.
        -11    1    6    6    0    0  0.42936912618E+02  0.30229268503E+02  0.11694223907E+03  0.12819077353E+03  0.00000000000E+00 0.  1.
         12    1    6    6    0    0  0.47216359779E+02 -0.77500916166E+01  0.12774477493E+02  0.49524093390E+02  0.00000000000E+00 0. -1.
         -5    1    3    3    0  503 -0.24688936433E+02 -0.92982109120E+02 -0.11520060696E+03  0.15016153317E+03  0.47000000000E+01 0.  1.
         11    1    4    4    0    0 -0.36989511058E+02 -0.29774852663E+02 -0.38667591756E+00  0.47485948424E+02  0.00000000000E+00 0. -1.
        -12    1    4    4    0    0  0.17552141989E+02  0.30754907851E+02 -0.26119108002E+01  0.35507240435E+02  0.00000000000E+00 0.  1.
</event>
<event>
12    1  0.8417180E-002  0.1813985E+03  0.7818608E-02  0.1166851E+00
         21   -1    0    0  501  502  0.00000000000E+00  0.00000000000E+00  0.37421487778E+03  0.37421487778E+03  0.00000000000E+00 0. -1.
         21   -1    0    0  502  503 -0.00000000000E+00 -0.00000000000E+00 -0.89888505416E+02  0.89888505416E+02  0.00000000000E+00 0. -1.
         -6    2    1    2    0  503 -0.49405071053E+02  0.25254377832E+02  0.18211584008E+03  0.25589094772E+03  0.17098348831E+03 0.  0.
        -24    2    3    3    0    0 -0.76113057245E+02 -0.29301541790E+02  0.83299319940E+02  0.13980279353E+03  0.77163894023E+02 0.  0.
          6    2    1    2  501    0  0.49405071053E+02 -0.25254377832E+02  0.10221053229E+03  0.20821243548E+03  0.17270431590E+03 0.  0.
         24    2    5    5    0    0  0.24222576795E+02  0.52131745244E+02  0.53194142779E+02  0.11309426422E+03  0.81585805663E+02 0.  0.
          5    1    5    5  501    0  0.25182494258E+02 -0.77386123076E+02  0.49016389506E+02  0.95118171251E+02  0.47000000000E+01 0. -1.
        -13    1    6    6    0    0 -0.33552344113E+01 -0.49077084729E+01  0.49258258532E+02  0.49615715595E+02  0.00000000000E+00 0.  1.
         14    1    6    6    0    0  0.27577811206E+02  0.57039453717E+02  0.39358842471E+01  0.63478548629E+02  0.00000000000E+00 0. -1.
         -5    1    3    3    0  503  0.26707986192E+02  0.54555919622E+02  0.98816520140E+02  0.11608815420E+03  0.47000000000E+01 0.  1.
         11    1    4    4    0    0 -0.51180665422E+01 -0.21709063867E+02  0.61080967170E+02  0.65025861082E+02  0.00000000000E+00 0. -1.
        -12    1    4    4    0    0 -0.70994990703E+02 -0.75924779231E+01  0.22218352771E+02  0.74776932444E+02  0.00000000000E+00 0.  1.
</event>
<event>
12    1  0.8417180E-002  0.2108606E+03  0.7818608E-02  0.1141970E+00
         21   -1    0    0  503  502  0.00000000000E+00  0.00000000000E+00  0.92906952894E+02  0.92906952894E+02  0.00000000000E+00 0. -1.
         21   -1    0    0  501  503 -0.00000000000E+00 -0.00000000000E+00 -0.53846318988E+03  0.53846318988E+03  0.00000000000E+00 0. -1.
          6    2    1    2  501    0  0.33680061065E+02  0.10948936684E+03 -0.33579697264E+03  0.39365328676E+03  0.17053162576E+03 0.  0.
         24    2    3    3    0    0  0.48788116810E+02  0.63299888673E+02 -0.99210156396E+02  0.15208107632E+03  0.83059270363E+02 0.  0.
         -6    2    1    2    0  502 -0.33680061065E+02 -0.10948936684E+03 -0.10975926434E+03  0.23771685601E+03  0.17703090000E+03 0.  0.
        -24    2    5    5    0    0  0.44662398164E+02 -0.86142147407E+02 -0.44148174587E+02  0.13279050721E+03  0.79177383862E+02 0.  0.
          5    1    3    3  501    0 -0.15108055745E+02  0.46189478165E+02 -0.23658681624E+03  0.24157221045E+03  0.47000000000E+01 0. -1.
        -11    1    4    4    0    0  0.49723042491E+02 -0.11573319098E+01 -0.33100035124E+02  0.59743892549E+02  0.00000000000E+00 0.  1.
         12    1    4    4    0    0 -0.93492568115E+00  0.64457220582E+02 -0.66110121272E+02  0.92337183766E+02  0.00000000000E+00 0. -1.
         -5    1    5    5    0  502 -0.78342459229E+02 -0.23347219430E+02 -0.65611089758E+02  0.10492634880E+03  0.47000000000E+01 0.  1.
         11    1    6    6    0    0  0.40827495796E+02 -0.42324177005E+02  0.13442937356E+02  0.60323568668E+02  0.00000000000E+00 0. -1.
        -12    1    6    6    0    0  0.38349023684E+01 -0.43817970402E+02 -0.57591111943E+02  0.72466938539E+02  0.00000000000E+00 0.  1.
</event>
<event>
12    1  0.8417180E-002  0.2816096E+03  0.7818608E-02  0.1094814E+00
         21   -1    0    0  501  502  0.00000000000E+00  0.00000000000E+00  0.94713503067E+02  0.94713503067E+02  0.00000000000E+00 0. -1.
         21   -1    0    0  502  503 -0.00000000000E+00 -0.00000000000E+00 -0.96532843749E+03  0.96532843749E+03  0.00000000000E+00 0.  1.
         -6    2    1    2    0  503  0.10621672884E+03  0.19626867778E+03 -0.62834868448E+03  0.68856808722E+03  0.17175725339E+03 0.  0.
        -24    2    3    3    0    0  0.12011774625E+03  0.80469200486E+02 -0.37350048429E+03  0.40826030573E+03  0.79185227641E+02 0.  0.
          6    2    1    2  501    0 -0.10621672884E+03 -0.19626867778E+03 -0.24226624995E+03  0.37147385334E+03  0.17174545259E+03 0.  0.
         24    2    5    5    0    0 -0.20490967710E+02 -0.15656392256E+03 -0.20133677760E+03  0.26840744070E+03  0.81079680568E+02 0.  0.
          5    1    5    5  501    0 -0.85725761128E+02 -0.39704755226E+02 -0.40929472344E+02  0.10306641264E+03  0.47000000000E+01 0. -1.
        -13    1    6    6    0    0 -0.16108011688E+02 -0.45392420028E+02 -0.12368064454E+03  0.13272845087E+03  0.00000000000E+00 0.  1.
         14    1    6    6    0    0 -0.43829560216E+01 -0.11117150253E+03 -0.77656133067E+02  0.13567898983E+03  0.00000000000E+00 0. -1.
         -5    1    3    3    0  503 -0.13901017415E+02  0.11579947730E+03 -0.25484820019E+03  0.28030778150E+03  0.47000000000E+01 0.  1.
         13    1    4    4    0    0  0.85626120930E+02  0.94206476407E+02 -0.30074277910E+03  0.32657757419E+03  0.00000000000E+00 0. -1.
        -14    1    4    4    0    0  0.34491625322E+02 -0.13737275921E+02 -0.72757705187E+02  0.81682731536E+02  0.00000000000E+00 0.  1.
</event>
<event>
12    1  0.8417180E-002  0.2094215E+03  0.7818608E-02  0.1142082E+00
         21   -1    0    0  503  502  0.00000000000E+00  0.00000000000E+00  0.12767679770E+03  0.12767679770E+03  0.00000000000E+00 0.  1.
         21   -1    0    0  501  503 -0.00000000000E+00 -0.00000000000E+00 -0.51928965165E+03  0.51928965165E+03  0.00000000000E+00 0.  1.
          6    2    1    2  501    0  0.68463679176E+02  0.98275985798E+02 -0.38435576877E+03  0.43770618787E+03  0.17179029413E+03 0.  0.
         24    2    3    3    0    0 -0.97296394218E+01  0.61919199036E+02 -0.30290146995E+03  0.31899265109E+03  0.77963824047E+02 0.  0.
         -6    2    1    2    0  502 -0.68463679176E+02 -0.98275985798E+02 -0.72570851830E+01  0.20926026148E+03  0.17144021407E+03 0.  0.
        -24    2    5    5    0    0 -0.28712463443E+02  0.16571347415E+02 -0.21138371666E+01  0.87528539656E+02  0.80980008858E+02 0.  0.
          5    1    3    3  501    0  0.78193318598E+02  0.36356786762E+02 -0.81454298817E+02  0.11871353677E+03  0.47000000000E+01 0. -1.
        -13    1    4    4    0    0  0.22719724020E+02  0.58955227929E+02 -0.15190925848E+03  0.16452455006E+03  0.00000000000E+00 0.  1.
         14    1    4    4    0    0 -0.32449363442E+02  0.29639711076E+01 -0.15099221147E+03  0.15446810104E+03  0.00000000000E+00 0. -1.
         -5    1    5    5    0  502 -0.39751215733E+02 -0.11484733321E+03 -0.51432480164E+01  0.12173172183E+03  0.47000000000E+01 0.  1.
         13    1    6    6    0    0  0.11422652596E+02  0.34086878672E+02  0.16977613456E+02  0.39757158458E+02  0.00000000000E+00 0. -1.
        -14    1    6    6    0    0 -0.40135116039E+02 -0.17515531257E+02 -0.19091450623E+02  0.47771381198E+02  0.00000000000E+00 0.  1.
</event>
<event>
12    1  0.8417180E-002  0.1933129E+03  0.7818608E-02  0.1156016E+00
         21   -1    0    0  501  502  0.00000000000E+00  0.00000000000E+00  0.61007025013E+02  0.61007025013E+02  0.00000000000E+00 0.  1.
         21   -1    0    0  502  503 -0.00000000000E+00 -0.00000000000E+00 -0.67921314388E+03  0.67921314388E+03  0.00000000000E+00 0.  1.
         -6    2    1    2    0  503 -0.20889615463E+02  0.81174515877E+02 -0.43283063642E+03  0.47403820660E+03  0.17419581920E+03 0.  0.
        -24    2    3    3    0    0  0.45531997873E+02  0.94029082679E+01 -0.16149808857E+03  0.18558294854E+03  0.78726238721E+02 0.  0.
          6    2    1    2  501    0  0.20889615463E+02 -0.81174515877E+02 -0.18537548244E+03  0.26618196229E+03  0.17164815611E+03 0.  0.
         24    2    5    5    0    0 -0.29594475404E+01 -0.11860439220E+03 -0.12089560201E+03  0.18776309703E+03  0.81015269195E+02 0.  0.
          5    1    5    5  501    0  0.23849063003E+02  0.37429876326E+02 -0.64479880433E+02  0.78418865260E+02  0.47000000000E+01 0. -1.
        -11    1    6    6    0    0 -0.18517519841E+02 -0.80579532888E+02 -0.29896040190E+02  0.87918899450E+02  0.00000000000E+00 0.  1.
         12    1    6    6    0    0  0.15558072300E+02 -0.38024859315E+02 -0.90999561821E+02  0.99844197585E+02  0.00000000000E+00 0. -1.
         -5    1    3    3    0  503 -0.66421613336E+02  0.71771607609E+02 -0.27133254785E+03  0.28845525806E+03  0.47000000000E+01 0.  1.
         11    1    4    4    0    0 -0.13868917763E+02 -0.13184649254E+02 -0.79886420609E+02  0.82146345345E+02  0.00000000000E+00 0. -1.
        -12    1    4    4    0    0  0.59400915636E+02  0.22587557521E+02 -0.81611667959E+02  0.10343660319E+03  0.00000000000E+00 0.  1.
</event>
<event>
12    1  0.8417180E-002  0.1763554E+03  0.7818608E-02  0.1171602E+00
         21   -1    0    0  503  502  0.00000000000E+00  0.00000000000E+00  0.98098405737E+02  0.98098405737E+02  0.00000000000E+00 0.  1.
         21   -1    0    0  501  503 -0.00000000000E+00 -0.00000000000E+00 -0.22757514350E+04  0.22757514350E+04  0.00000000000E+00 0.  1.
          6    2    1    2  501    0  0.18225508788E+02 -0.33465576698E+02 -0.21908152923E+04  0.21979019280E+04  0.17218921524E+03 0.  0.
         24    2    3    3    0    0  0.32170178098E+02 -0.21683998767E+02 -0.21597504856E+04  0.21615650101E+04  0.79599100629E+02 0.  0.
         -6    2    1    2    0  502 -0.18225508788E+02  0.33465576698E+02  0.13162263073E+02  0.17594791277E+03  0.17126677683E+03 0.  0.
        -24    2    5    5    0    0 -0.11885480667E+02 -0.40897231399E+02 -0.20387018582E+02  0.93986534765E+02  0.81264937111E+02 0.  0.
          5    1    3    3  501    0 -0.13944669310E+02 -0.11781577931E+02 -0.31064806775E+02  0.36336917875E+02  0.47000000000E+01 0. -1.
        -13    1    4    4    0    0  0.47877072054E+02 -0.17571761902E+01 -0.72060128988E+03  0.72219216326E+03  0.00000000000E+00 0.  1.
         14    1    4    4    0    0 -0.15706893956E+02 -0.19926822577E+02 -0.14391491957E+04  0.14393728468E+04  0.00000000000E+00 0. -1.
         -5    1    5    5    0  502 -0.63400281212E+01  0.74362808097E+02  0.33549281655E+02  0.81961378003E+02  0.47000000000E+01 0.  1.
         13    1    6    6    0    0 -0.26223268329E+02 -0.40009409219E+02 -0.44878247332E+02  0.65593213914E+02  0.00000000000E+00 0. -1.
        -14    1    6    6    0    0  0.14337787662E+02 -0.88782217943E+00  0.24491228750E+02  0.28393320851E+02  0.00000000000E+00 0.  1.
</event>
<event>
12    1  0.8417180E-002  0.1987595E+03  0.7818608E-02  0.1150993E+00
         21   -1    0    0  503  502  0.00000000000E+00  0.00000000000E+00  0.21406669353E+04  0.21406669353E+04  0.00000000000E+00 0. -1.
         21   -1    0    0  501  503 -0.00000000000E+00 -0.00000000000E+00 -0.19965251918E+02  0.19965251918E+02  0.00000000000E+00 0.  1.
          6    2    1    2  501    0  0.98141836655E+02  0.19660679404E+02  0.75697917001E+03  0.78263835761E+03  0.17171771182E+03 0.  0.
         24    2    3    3    0    0  0.67211561657E+02 -0.35107611606E+02  0.27026155058E+03  0.29185084893E+03  0.79910411620E+02 0.  0.
         -6    2    1    2    0  502 -0.98141836655E+02 -0.19660679404E+02  0.13637225134E+04  0.13779938296E+04  0.17061517679E+03 0.  0.
        -24    2    5    5    0    0 -0.53079519028E+02  0.52633856718E+02  0.89167076519E+03  0.89829386569E+03  0.79166643421E+02 0.  0.
          5    1    3    3  501    0  0.30930274998E+02  0.54768291010E+02  0.48671761943E+03  0.49078750868E+03  0.47000000000E+01 0. -1.
        -11    1    4    4    0    0  0.16412910573E+02  0.25510817876E+02  0.90847910281E+02  0.95778537599E+02  0.00000000000E+00 0.  1.
         12    1    4    4    0    0  0.50798651084E+02 -0.60618429481E+02  0.17941364030E+03  0.19607231133E+03  0.00000000000E+00 0. -1.
         -5    1    5    5    0  502 -0.45062317627E+02 -0.72294536122E+02  0.47205174816E+03  0.47969996390E+03  0.47000000000E+01 0.  1.
         11    1    6    6    0    0 -0.54592133959E+02  0.24917557674E+02  0.80616611031E+03  0.80839655070E+03  0.00000000000E+00 0. -1.
        -12    1    6    6    0    0  0.15126149308E+01  0.27716299043E+02  0.85504654886E+02  0.89897314998E+02  0.00000000000E+00 0.  1.
</event>
<event>
12    1  0.8417180E-002  0.1740388E+03  0.7818608E-02  0.1174099E+00
         21   -1    0    0  501  502  0.00000000000E+00  0.00000000000E+00  0.52053007151E+02  0.52053007151E+02  0.00000000000E+00 0. -1.
         21   -1    0    0  502  503 -0.00000000000E+00 -0.00000000000E+00 -0.65476286669E+03  0.65476286669E+03  0.00000000000E+00 0. -1.
         -6    2    1    2    0  503  0.12345192363E+01  0.22580971398E+02 -0.42220896069E+03  0.45607682423E+03  0.17098022929E+03 0.  0.
        -24    2    3    3    0    0  0.22367482598E+02 -0.49930412353E+02 -0.22584408835E+03  0.24563501279E+03  0.79609402153E+02 0.  0.
          6    2    1    2  501    0 -0.12345192363E+01 -0.22580971398E+02 -0.18050089885E+03  0.25073904961E+03  0.17256324118E+03 0.  0.
         24    2    5    5    0    0 -0.42483556936E+02 -0.56936737992E+02 -0.16010175298E+03  0.19311946126E+03  0.81338246023E+02 0.  0.
          5    1    5    5  501    0  0.41249037700E+02  0.34355766594E+02 -0.20399145870E+02  0.57619588350E+02  0.47000000000E+01 0. -1.
        -13    1    6    6    0    0 -0.31382390469E+02 -0.78113192080E+01 -0.13104067588E+03  0.13497233003E+03  0.00000000000E+00 0.  1.
         14    1    6    6    0    0 -0.11101166467E+02 -0.49125418784E+02 -0.29061077102E+02  0.58147131227E+02  0.00000000000E+00 0. -1.
         -5    1    3    3    0  503 -0.21132963362E+02  0.72511383751E+02 -0.19636487234E+03  0.21044181144E+03  0.47000000000E+01 0.  1.
         11    1    4    4    0    0  0.44334005680E+01 -0.19506994064E+02 -0.20208069154E+03  0.20306842135E+03  0.00000000000E+00 0. -1.
        -12    1    4    4    0    0  0.17934082030E+02 -0.30423418289E+02 -0.23763396808E+02  0.42566591436E+02  0.00000000000E+00 0.  1.
</event>
<event>
12    1  0.8417180E-002  0.1940177E+03  0.7818608E-02  0.1155845E+00
         21   -1    0    0  501  502  0.00000000000E+00  0.00000000000E+00  0.14735199661E+03  0.14735199661E+03  0.00000000000E+00 0.  1.
         21   -1    0    0  502  503 -0.00000000000E+00 -0.00000000000E+00 -0.30572661871E+03  0.30572661871E+03  0.00000000000E+00 0. -1.
         -6    2    1    2    0  503 -0.92021886987E+01  0.89388748543E+02 -0.17533624410E+03  0.25832090915E+03  0.16706844396E+03 0.  0.
        -24    2    3    3    0    0 -0.57282538330E+02  0.86412848861E+02 -0.80746496683E+02  0.15206703244E+03  0.76523956917E+02 0.  0.
          6    2    1    2  501    0  0.92021886987E+01 -0.89388748543E+02  0.16961622004E+02  0.19475770617E+03  0.17195301349E+03 0.  0.
         24    2    5    5    0    0  0.65564461932E+02 -0.89924711713E+02  0.15798805645E+02  0.13818531677E+03  0.80376781886E+02 0.  0.
          5    1    5    5  501    0 -0.56362273233E+02  0.53596317047E+00  0.11628163596E+01  0.56572389400E+02  0.47000000000E+01 0. -1.
        -11    1    6    6    0    0  0.38370886161E+02 -0.25342120525E+00  0.22080255389E+02  0.44271060583E+02  0.00000000000E+00 0.  1.
         12    1    6    6    0    0  0.27193575771E+02 -0.89671290508E+02 -0.62814497447E+01  0.93914256189E+02  0.00000000000E+00 0. -1.
         -5    1    3    3    0  503  0.48080349631E+02  0.29758996816E+01 -0.94589747421E+02  0.10625387671E+03  0.47000000000E+01 0.  1.
         11    1    4    4    0    0 -0.41587583836E+02  0.89755331695E+02 -0.37246666450E+02  0.10570175428E+03  0.00000000000E+00 0. -1.
        -12    1    4    4    0    0 -0.15694954494E+02 -0.33424828334E+01 -0.43499830234E+02  0.46365278155E+02  0.00000000000E+00 0.  1.
</event>
<event>
12    1  0.8417180E-002  0.2508078E+03  0.7818608E-02  0.1112975E+00
         21   -1    0    0  501  502  0.00000000000E+00  0.00000000000E+00  0.10084747938E+03  0.10084747938E+03  0.00000000000E+00 0.  1.
         21   -1    0    0  502  503 -0.00000000000E+00 -0.00000000000E+00 -0.62176705097E+03  0.62176705097E+03  0.00000000000E+00 0.  1.
         -6    2    1    2    0  503  0.14875372353E+02  0.18073840532E+03 -0.27308622912E+03  0.37001571106E+03  0.17160387535E+03 0.  0.
        -24    2    3    3    0    0 -0.55653460186E+00  0.50171395813E+02 -0.19676812661E+03  0.21792221844E+03  0.79088045577E+02 0.  0.
          6    2    1    2  501    0 -0.14875372353E+02 -0.18073840532E+03 -0.24783334248E+03  0.35259881930E+03  0.17325390000E+03 0.  0.
         24    2    5    5    0    0 -0.15769892111E+02 -0.15152758215E+03 -0.92093874206E+02  0.19407139475E+03  0.77286007437E+02 0.  0.
          5    1    5    5  501    0  0.89451975862E+00 -0.29210823176E+02 -0.15573946827E+03  0.15852742455E+03  0.47000000000E+01 0. -1.
        -13    1    6    6    0    0 -0.34192435348E+02 -0.85264475510E+02 -0.84604848840E+02  0.12488848572E+03  0.00000000000E+00 0.  1.
         14    1    6    6    0    0  0.18422543237E+02 -0.66263106638E+02 -0.74890253665E+01  0.69182909028E+02  0.00000000000E+00 0. -1.
         -5    1    3    3    0  503  0.15431906955E+02  0.13056700951E+03 -0.76318102506E+02  0.15209349261E+03  0.47000000000E+01 0.  1.
         11    1    4    4    0    0  0.37253495679E+02  0.15680185666E+02 -0.64735021378E+02  0.76317194365E+02  0.00000000000E+00 0. -1.
        -12    1    4    4    0    0 -0.37810030281E+02  0.34491210147E+02 -0.13203310523E+03  0.14160502408E+03  0.00000000000E+00 0.  1.
</event>
<event>
12    1  0.8417180E-002  0.1889281E+03  0.7818608E-02  0.1161405E+00
         21   -1    0    0  501  502  0.00000000000E+00  0.00000000000E+00  0.15843472409E+03  0.15843472409E+03  0.00000000000E+00 0.  1.
         21   -1    0    0  502  503 -0.00000000000E+00 -0.00000000000E+00 -0.32652190082E+03  0.32652190082E+03  0.00000000000E+00 0.  1.
         -6    2    1    2    0  503 -0.58987560239E+02 -0.35478417739E+02 -0.22426786391E+03  0.28785233540E+03  0.16680719955E+03 0.  0.
        -24    2    3    3    0    0 -0.35663723073E+02 -0.28567065046E+02 -0.24050349697E+03  0.25823048608E+03  0.82177086468E+02 0.  0.
          6    2    1    2  501    0  0.58987560239E+02  0.35478417739E+02  0.56180687188E+02  0.19710428951E+03  0.17594198175E+03 0.  0.
         24    2    5    5    0    0  0.60719375187E+02  0.11302892233E+01  0.99310482088E+02  0.14174128450E+03  0.80869646983E+02 0.  0.
          5    1    5    5  501    0 -0.17318149482E+01  0.34348128515E+02 -0.43129794901E+02  0.55363005010E+02  0.47000000000E+01 0. -1.
        -13    1    6    6    0    0  0.13402910671E+02  0.38520709014E+02  0.42059629856E+02  0.58587502943E+02  0.00000000000E+00 0.  1.
         14    1    6    6    0    0  0.47316464517E+02 -0.37390419791E+02  0.57250852232E+02  0.83153781561E+02  0.00000000000E+00 0. -1.
         -5    1    3    3    0  503 -0.23323837167E+02 -0.69113526928E+01  0.16235633053E+02  0.29621849315E+02  0.47000000000E+01 0.  1.
         13    1    4    4    0    0  0.12493175616E+02  0.10656845649E+02 -0.93886135158E+01  0.18915439723E+02  0.00000000000E+00 0. -1.
        -14    1    4    4    0    0 -0.48156898689E+02 -0.39223910695E+02 -0.23111488345E+03  0.23931504636E+03  0.00000000000E+00 0.  1.
</event>
<event>
12    1  0.8417180E-002  0.2007850E+03  0.7818608E-02  0.1149095E+00
         21   -1    0    0  501  502  0.00000000000E+00  0.00000000000E+00  0.18817019300E+03  0.18817019300E+03  0.00000000000E+00 0.  1.
         21   -1    0    0  502  503 -0.00000000000E+00 -0.00000000000E+00 -0.27465199684E+03  0.27465199684E+03  0.00000000000E+00 0. -1.
         -6    2    1    2    0  503  0.89619394853E+02  0.52553247614E+02 -0.15183536595E+03  0.25166890901E+03  0.17172589100E+03 0.  0.
        -24    2    3    3    0    0  0.12438927236E+03  0.13670097258E+02 -0.11344581816E+03  0.18673285475E+03  0.79621873553E+02 0.  0.
          6    2    1    2  501    0 -0.89619394853E+02 -0.52553247614E+02  0.65353562108E+02  0.21115328084E+03  0.17181717073E+03 0.  0.
         24    2    5    5    0    0  0.15534412138E+02 -0.33655770124E+02  0.53862153546E+02  0.10359594612E+03  0.80355209197E+02 0.  0.
          5    1    5    5  501    0 -0.10515380699E+03 -0.18897477490E+02  0.11491408562E+02  0.10755733471E+03  0.47000000000E+01 0. -1.
        -11    1    6    6    0    0 -0.28557474330E+02 -0.23976106520E+02  0.43473386149E+02  0.57274063303E+02  0.00000000000E+00 0.  1.
         12    1    6    6    0    0  0.44091886468E+02 -0.96796636041E+01  0.10388767398E+02  0.46321882819E+02  0.00000000000E+00 0. -1.
         -5    1    3    3    0  503 -0.34769877505E+02  0.38883150355E+02 -0.38389547793E+02  0.64936054261E+02  0.47000000000E+01 0.  1.
         11    1    4    4    0    0  0.11281235502E+03  0.38618324885E+02 -0.10210774544E+03  0.15698405696E+03  0.00000000000E+00 0. -1.
        -12    1    4    4    0    0  0.11576917342E+02 -0.24948227627E+02 -0.11338072723E+02  0.29748797790E+02  0.00000000000E+00 0.  1.
</event>
<event>
12    1  0.8417180E-002  0.2266249E+03  0.7818608E-02  0.1129250E+00
         21   -1    0    0  501  502  0.00000000000E+00  0.00000000000E+00  0.24429522313E+03  0.24429522313E+03  0.00000000000E+00 0. -1.
         21   -1    0    0  502  503 -0.00000000000E+00 -0.00000000000E+00 -0.33344880334E+03  0.33344880334E+03  0.00000000000E+00 0.  1.
         -6    2    1    2    0  503 -0.39584181968E+02  0.14272960738E+03 -0.22087811839E+03  0.31561769259E+03  0.16996686856E+03 0.  0.
        -24    2    3    3    0    0 -0.23480747855E+02  0.12837091550E+03 -0.79397197478E+02  0.17242399998E+03  0.79973016290E+02 0.  0.
          6    2    1    2  501    0  0.39584181968E+02 -0.14272960738E+03  0.13172453818E+03  0.26212633388E+03  0.17152321322E+03 0.  0.
         24    2    5    5    0    0  0.78166800723E+02 -0.59865482765E+02  0.11009536756E+03  0.16807851286E+03  0.80221392192E+02 0.  0.
          5    1    5    5  501    0 -0.38582618755E+02 -0.82864124610E+02  0.21629170617E+02  0.94047821022E+02  0.47000000000E+01 0. -1.
        -11    1    6    6    0    0  0.55651054250E+02 -0.28757192774E+02  0.13431061640E+02  0.64065664690E+02  0.00000000000E+00 0.  1.
         12    1    6    6    0    0  0.22515746473E+02 -0.31108289990E+02  0.96664305920E+02  0.10401284817E+03  0.00000000000E+00 0. -1.
         -5    1    3    3    0  503 -0.16103434114E+02  0.14358691877E+02 -0.14148092091E+03  0.14319369261E+03  0.47000000000E+01 0.  1.
         13    1    4    4    0    0 -0.34467140809E+02  0.91693928125E+02 -0.89648942317E+02  0.13278815124E+03  0.00000000000E+00 0. -1.
        -14    1    4    4    0    0  0.10986392954E+02  0.36676987373E+02  0.10251744840E+02  0.39635848738E+02  0.00000000000E+00 0.  1.
</event>
<event>
12    1  0.8417180E-002  0.1725278E+03  0.7818608E-02  0.1175426E+00
         21   -1    0    0  501  502  0.00000000000E+00  0.00000000000E+00  0.95026830325E+03  0.95026830325E+03  0.00000000000E+00 0.  1.
         21   -1    0    0  502  503 -0.00000000000E+00 -0.00000000000E+00 -0.12711925549E+03  0.12711925549E+03  0.00000000000E+00 0.  1.
         -6    2    1    2    0  503  0.50265546383E+01 -0.13917751584E+02 -0.56603930571E+02  0.18087702593E+03  0.17115350856E+03 0.  0.
        -24    2    3    3    0    0  0.24763995454E+02  0.46688432454E+02 -0.88312077006E+00  0.96085665767E+02  0.80240950068E+02 0.  0.
          6    2    1    2  501    0 -0.50265546383E+01  0.13917751584E+02  0.87975297834E+03  0.89651053281E+03  0.17189200819E+03 0.  0.
         24    2    5    5    0    0  0.28139484183E+02  0.30793400026E+02  0.82601704708E+03  0.83097875464E+03  0.80507543386E+02 0.  0.
          5    1    5    5  501    0 -0.33166038821E+02 -0.16875648442E+02  0.53735931257E+02  0.65531778165E+02  0.47000000000E+01 0. -1.
        -13    1    6    6    0    0 -0.20997430169E+01  0.50994505404E+02  0.58652629926E+03  0.58874268422E+03  0.00000000000E+00 0.  1.
         14    1    6    6    0    0  0.30239227200E+02 -0.20201105378E+02  0.23949074783E+03  0.24223607042E+03  0.00000000000E+00 0. -1.
         -5    1    3    3    0  503 -0.19737440815E+02 -0.60606184038E+02 -0.55720809801E+02  0.84791360164E+02  0.47000000000E+01 0.  1.
         13    1    4    4    0    0  0.17907971415E+02  0.69111496364E+02 -0.73259470345E+01  0.71768822407E+02  0.00000000000E+00 0. -1.
        -14    1    4    4    0    0  0.68560240390E+01 -0.22423063909E+02  0.64428262644E+01  0.24316843360E+02  0.00000000000E+00 0.  1.
</event>
<event>
12    1  0.8417180E-002  0.2010547E+03  0.7818608E-02  0.1149034E+00
         21   -1    0    0  503  502  0.00000000000E+00  0.00000000000E+00  0.27496547437E+03  0.27496547437E+03  0.00000000000E+00 0.  1.
         21   -1    0    0  501  503 -0.00000000000E+00 -0.00000000000E+00 -0.36632737667E+03  0.36632737667E+03  0.00000000000E+00 0.  1.
          6    2    1    2  501    0 -0.88030684041E+02 -0.57949114140E+02 -0.29417753894E+03  0.35631927262E+03  0.17121769319E+03 0.  0.
         24    2    3    3    0    0 -0.52085076098E+02 -0.32200340346E+02 -0.29481584406E+03  0.31184924321E+03  0.81140936112E+02 0.  0.
         -6    2    1    2    0  502  0.88030684041E+02  0.57949114140E+02  0.20281563664E+03  0.28497357841E+03  0.17020063680E+03 0.  0.
        -24    2    5    5    0    0  0.23577888629E+02 -0.29756438785E+02  0.76688159361E+02  0.11831027299E+03  0.81699965894E+02 0.  0.
          5    1    3    3  501    0 -0.35945607944E+02 -0.25748773794E+02  0.63830511918E+00  0.44470029410E+02  0.47000000000E+01 0. -1.
        -13    1    4    4    0    0 -0.67189626402E+02 -0.27381497496E+01 -0.17286011020E+03  0.18547927393E+03  0.00000000000E+00 0.  1.
         14    1    4    4    0    0  0.15104550305E+02 -0.29462190596E+02 -0.12195573386E+03  0.12636996928E+03  0.00000000000E+00 0. -1.
         -5    1    5    5    0  502  0.64452795412E+02  0.87705552925E+02  0.12612747728E+03  0.16666330543E+03  0.47000000000E+01 0.  1.
         13    1    6    6    0    0  0.50395061733E+02 -0.22289932026E+02  0.27018486314E+02  0.61371833275E+02  0.00000000000E+00 0. -1.
        -14    1    6    6    0    0 -0.26817173104E+02 -0.74665067596E+01  0.49669673046E+02  0.56938439714E+02  0.00000000000E+00 0.  1.
</event>
<event>
12    1  0.8417180E-002  0.1956870E+03  0.7818608E-02  0.1153684E+00
         21   -1    0    0  501  502  0.00000000000E+00  0.00000000000E+00  0.58967412161E+02  0.58967412161E+02  0.00000000000E+00 0. -1.
         21   -1    0    0  502  503 -0.00000000000E+00 -0.00000000000E+00 -0.10615982971E+04  0.10615982971E+04  0.00000000000E+00 0. -1.
         -6    2    1    2    0  503 -0.78172835243E+02 -0.50354498415E+02 -0.85298485725E+03  0.87514374697E+03  0.17218258760E+03 0.  0.
        -24    2    3    3    0    0 -0.95480528825E+02 -0.11012703705E+02 -0.36509690887E+03  0.38534371303E+03  0.77176507288E+02 0.  0.
          6    2    1    2  501    0  0.78172835243E+02  0.50354498415E+02 -0.14964602772E+03  0.24542196233E+03  0.17085502129E+03 0.  0.
         24    2    5    5    0    0  0.10089469219E+03  0.59357678388E+02 -0.62117569451E+02  0.15442382477E+03  0.79278321908E+02 0.  0.
          5    1    5    5  501    0 -0.22721856949E+02 -0.90031799730E+01 -0.87528458268E+02  0.90998137561E+02  0.47000000000E+01 0. -1.
        -13    1    6    6    0    0  0.13210322790E+02 -0.18944019980E+02 -0.16231790861E+02  0.28228700923E+02  0.00000000000E+00 0.  1.
         14    1    6    6    0    0  0.87684369402E+02  0.78301698368E+02 -0.45885778590E+02  0.12619512384E+03  0.00000000000E+00 0. -1.
         -5    1    3    3    0  503  0.17307693582E+02 -0.39341794710E+02 -0.48788794838E+03  0.48980003394E+03  0.47000000000E+01 0.  1.
         13    1    4    4    0    0 -0.38359576060E+02 -0.36158650638E+00 -0.27805858248E+03  0.28069229257E+03  0.00000000000E+00 0. -1.
        -14    1    4    4    0    0 -0.57120952765E+02 -0.10651117199E+02 -0.87038326392E+02  0.10465142046E+03  0.00000000000E+00 0.  1.
</event>
<event>
12    1  0.8417180E-002  0.1817932E+03  0.7818608E-02  0.1166501E+00
         21   -1    0    0  503  502  0.00000000000E+00  0.00000000000E+00  0.49759842692E+03  0.49759842692E+03  0.00000000000E+00 0. -1.
         21   -1    0    0  501  503 -0.00000000000E+00 -0.00000000000E+00 -0.66577265120E+02  0.66577265120E+02  0.00000000000E+00 0. -1.
          6    2    1    2  501    0  0.57992034101E+02  0.64717908826E+01  0.24748656682E+03  0.30708038410E+03  0.17217375364E+03 0.  0.
         24    2    3    3    0    0  0.10613232099E+03  0.85271436095E+01  0.18726971981E+03  0.22981544793E+03  0.80052547821E+02 0.  0.
         -6    2    1    2    0  502 -0.57992034101E+02 -0.64717908826E+01  0.18353459497E+03  0.25709530794E+03  0.17031761423E+03 0.  0.
        -24    2    5    5    0    0 -0.88036967061E+02  0.21991388171E+02  0.17696254602E+03  0.21492740088E+03  0.81510221648E+02 0.  0.
          5    1    3    3  501    0 -0.48140286891E+02 -0.20553527270E+01  0.60216847009E+02  0.77264936165E+02  0.47000000000E+01 0. -1.
        -13    1    4    4    0    0  0.93344434015E+02  0.29166052438E+02  0.10263358610E+03  0.14176563396E+03  0.00000000000E+00 0.  1.
         14    1    4    4    0    0  0.12787886977E+02 -0.20638908828E+02  0.84636133709E+02  0.88049813970E+02  0.00000000000E+00 0. -1.
         -5    1    5    5    0  502  0.30044932960E+02 -0.28463179054E+02  0.65720489588E+01  0.42167907061E+02  0.47000000000E+01 0.  1.
         13    1    6    6    0    0 -0.34319004054E+01  0.24939284804E+02  0.90440348390E+02  0.93878658298E+02  0.00000000000E+00 0. -1.
        -14    1    6    6    0    0 -0.84605066655E+02 -0.29478966322E+01  0.86522197625E+02  0.12104874258E+03  0.00000000000E+00 0.  1.
</event>
<event>
12    1  0.8417180E-002  0.2063570E+03  0.7818608E-02  0.1145234E+00
         21   -1    0    0  501  502  0.00000000000E+00  0.00000000000E+00  0.24592949780E+03  0.24592949780E+03  0.00000000000E+00 0.  1.
         21   -1    0    0  502  503 -0.00000000000E+00 -0.00000000000E+00 -0.18279473149E+03  0.18279473149E+03  0.00000000000E+00 0.  1.
         -6    2    1    2    0  503 -0.10778177006E+03  0.95570672139E+01 -0.24685283585E+02  0.20782827656E+03  0.17571278218E+03 0.  0.
        -24    2    3    3    0    0 -0.54651950754E+02  0.64156972733E+01 -0.83552213858E+02  0.12832952573E+03  0.80371001240E+02 0.  0.
          6    2    1    2  501    0  0.10778177006E+03 -0.95570672139E+01  0.87820049890E+02  0.22089595273E+03  0.17138965337E+03 0.  0.
         24    2    5    5    0    0  0.18772064512E+02  0.16559412183E+02  0.95950022753E+02  0.12765977608E+03  0.80399048663E+02 0.  0.
          5    1    5    5  501    0  0.89009705544E+02 -0.26116479397E+02 -0.81299728623E+01  0.93236176647E+02  0.47000000000E+01 0. -1.
        -13    1    6    6    0    0  0.37415350516E+02 -0.51508802099E+01  0.91121654133E+02  0.98638713866E+02  0.00000000000E+00 0.  1.
         14    1    6    6    0    0 -0.18643286004E+02  0.21710292393E+02  0.48283686195E+01  0.29021062219E+02  0.00000000000E+00 0. -1.
         -5    1    3    3    0  503 -0.53129819301E+02  0.31413699406E+01  0.58866930273E+02  0.79498750832E+02  0.47000000000E+01 0.  1.
         13    1    4    4    0    0  0.15448020024E+02 -0.10826480153E+02 -0.13257054519E+01  0.18910618449E+02  0.00000000000E+00 0. -1.
        -14    1    4    4    0    0 -0.70099970779E+02  0.17242177426E+02 -0.82226508406E+02  0.10941890728E+03  0.00000000000E+00 0.  1.
</event>
<event>
12    1  0.8417180E-002  0.1812814E+03  0.7818608E-02  0.1166632E+00
         21   -1    0    0  503  502  0.00000000000E+00  0.00000000000E+00  0.12328708921E+04  0.12328708921E+04  0.00000000000E+00 0. -1.
         21   -1    0    0  501  503 -0.00000000000E+00 -0.00000000000E+00 -0.42279419607E+02  0.42279419607E+02  0.00000000000E+00 0. -1.
          6    2    1    2  501    0  0.32085571214E+02 -0.53327714766E+02  0.20750860836E+03  0.27554084305E+03  0.17026333899E+03 0.  0.
         24    2    3    3    0    0  0.70867724340E+02 -0.27289001502E+02  0.19935618187E+03  0.22788979850E+03  0.80149541813E+02 0.  0.
         -6    2    1    2    0  502 -0.32085571214E+02  0.53327714766E+02  0.98308286411E+03  0.99960946864E+03  0.16998189031E+03 0.  0.
        -24    2    5    5    0    0 -0.10296208228E+02 -0.33820162406E+02  0.59226528047E+03  0.59857330753E+03  0.79132968749E+02 0.  0.
          5    1    3    3  501    0 -0.38782153126E+02 -0.26038713264E+02  0.81524264924E+01  0.47651044555E+02  0.47000000000E+01 0. -1.
        -13    1    4    4    0    0  0.69668237700E+02 -0.50015452158E+02  0.13833586637E+03  0.16276369596E+03  0.00000000000E+00 0.  1.
         14    1    4    4    0    0  0.11994866395E+01  0.22726450656E+02  0.61020315499E+02  0.65126102534E+02  0.00000000000E+00 0. -1.
         -5    1    5    5    0  502 -0.21789362986E+02  0.87147877171E+02  0.39081758365E+03  0.40103616111E+03  0.47000000000E+01 0.  1.
         13    1    6    6    0    0  0.13622437051E+02  0.10134969590E+02  0.38419656768E+03  0.38457156813E+03  0.00000000000E+00 0. -1.
        -14    1    6    6    0    0 -0.23918645279E+02 -0.43955131995E+02  0.20806871279E+03  0.21400173939E+03  0.00000000000E+00 0.  1.
</event>
<event>
12    1  0.8417180E-002  0.1970794E+03  0.7818608E-02  0.1152337E+00
         21   -1    0    0  503  502  0.00000000000E+00  0.00000000000E+00  0.36081573609E+03  0.36081573609E+03  0.00000000000E+00 0.  1.
         21   -1    0    0  501  503 -0.00000000000E+00 -0.00000000000E+00 -0.11302961384E+03  0.11302961384E+03  0.00000000000E+00 0. -1.
          6    2    1    2  501    0 -0.95826825044E+02  0.15443610117E+01  0.70711591320E+02  0.20890069255E+03  0.17162227348E+03 0.  0.
         24    2    3    3    0    0 -0.46550128205E+01  0.49566850193E+02  0.38374247344E+02  0.10079772022E+03  0.78797561895E+02 0.  0.
         -6    2    1    2    0  502  0.95826825044E+02 -0.15443610117E+01  0.17707453093E+03  0.26494465737E+03  0.17220660997E+03 0.  0.
        -24    2    5    5    0    0  0.64756930078E+02 -0.63711596506E+02  0.14302867357E+03  0.18741199364E+03  0.80083870879E+02 0.  0.
          5    1    3    3  501    0 -0.91171812224E+02 -0.48022489182E+02  0.32337343976E+02  0.10810297233E+03  0.47000000000E+01 0. -1.
        -13    1    4    4    0    0  0.13262299625E+02  0.17348743440E+02  0.55874105794E+02  0.59989859047E+02  0.00000000000E+00 0.  1.
         14    1    4    4    0    0 -0.17917312445E+02  0.32218106753E+02 -0.17499858450E+02  0.40807861176E+02  0.00000000000E+00 0. -1.
         -5    1    5    5    0  502  0.31069894966E+02  0.62167235494E+02  0.34045857362E+02  0.77532663734E+02  0.47000000000E+01 0.  1.
         13    1    6    6    0    0  0.60622100417E+01 -0.38282225813E+02  0.10348105137E+02  0.40116860342E+02  0.00000000000E+00 0. -1.
        -14    1    6    6    0    0  0.58694720036E+02 -0.25429370693E+02  0.13268056843E+03  0.14729513330E+03  0.00000000000E+00 0.  1.
</event>
<event>
12    1  0.8417180E-002  0.1845362E+03  0.7818608E-02  0.1165766E+00
         21   -1    0    0  503  502  0.00000000000E+00  0.00000000000E+00  0.31994585558E+03  0.31994585558E+03  0.00000000000E+00 0.  1.
         21   -1    0    0  501  503 -0.00000000000E+00 -0.00000000000E+00 -0.49777084524E+03  0.49777084524E+03  0.00000000000E+00 0.  1.
          6    2    1    2  501    0 -0.47148805622E+02 -0.17202168971E+01 -0.45437290056E+03  0.49041648932E+03  0.17840300227E+03 0.  0.
         24    2    3    3    0    0  0.34700469449E+02  0.38156320173E+01 -0.33062102982E+03  0.34186829861E+03  0.79655424218E+02 0.  0.
         -6    2    1    2    0  502  0.47148805622E+02  0.17202168971E+01  0.27654791089E+03  0.32730021150E+03  0.16858443704E+03 0.  0.
        -24    2    5    5    0    0  0.73654416565E+02 -0.69057105734E+01  0.97312416598E+02  0.14584937394E+03  0.79559232885E+02 0.  0.
          5    1    3    3  501    0 -0.81849275072E+02 -0.55358489145E+01 -0.12375187074E+03  0.14854819071E+03  0.47000000000E+01 0. -1.
        -11    1    4    4    0    0  0.24424576627E+02  0.18690218081E+02 -0.38907744913E+02  0.49595330522E+02  0.00000000000E+00 0.  1.
         12    1    4    4    0    0  0.10275892823E+02 -0.14874586064E+02 -0.29171328491E+03  0.29227296809E+03  0.00000000000E+00 0. -1.
         -5    1    5    5    0  502 -0.26505610943E+02  0.86259274705E+01  0.17923549429E+03  0.18145083756E+03  0.47000000000E+01 0.  1.
         13    1    6    6    0    0  0.71478024503E+00 -0.57469502117E+01 -0.12637043195E+02  0.13900834804E+02  0.00000000000E+00 0. -1.
        -14    1    6    6    0    0  0.72939636320E+02 -0.11587603617E+01  0.10994945979E+03  0.13194853914E+03  0.00000000000E+00 0.  1.
</event>
<event>
12    1  0.8417180E-002  0.1731510E+03  0.7818608E-02  0.1174952E+00
         21   -1    0    0  503  502  0.00000000000E+00  0.00000000000E+00  0.22273894819E+04  0.22273894819E+04  0.00000000000E+00 0. -1.
         21   -1    0    0  501  503 -0.00000000000E+00 -0.00000000000E+00 -0.44835412546E+02  0.44835412546E+02  0.00000000000E+00 0. -1.
          6    2    1    2  501    0 -0.80150734196E+01  0.14079613021E+02  0.13798186600E+03  0.22033387061E+03  0.17101328104E+03 0.  0.
         24    2    3    3    0    0 -0.13168068276E+02  0.56376561829E+00 -0.95442406365E+00  0.80567586470E+02  0.79476469540E+02 0.  0.
         -6    2    1    2    0  502  0.80150734196E+01 -0.14079613021E+02  0.20445722034E+04  0.20518910239E+04  0.17239142104E+03 0.  0.
        -24    2    5    5    0    0  0.54317791559E+02  0.37653228573E+02  0.11110830415E+04  0.11158117890E+04  0.78499905946E+02 0.  0.
          5    1    3    3  501    0  0.51529948563E+01  0.13515847402E+02  0.13893629006E+03  0.13976628414E+03  0.47000000000E+01 0. -1.
        -11    1    4    4    0    0  0.27313724962E+02 -0.11605362961E+02 -0.18311297056E+02  0.34871587584E+02  0.00000000000E+00 0.  1.
         12    1    4    4    0    0 -0.40481793238E+02  0.12169128579E+02  0.17356872993E+02  0.45695998886E+02  0.00000000000E+00 0. -1.
         -5    1    5    5    0  502 -0.46302718139E+02 -0.51732841593E+02  0.93348916190E+03  0.93607923488E+03  0.47000000000E+01 0.  1.
         13    1    6    6    0    0  0.25419799054E+02  0.20773960482E+02  0.97915469557E+03  0.97970487468E+03  0.00000000000E+00 0. -1.
        -14    1    6    6    0    0  0.28897992505E+02  0.16879268090E+02  0.13192834592E+03  0.13610691430E+03  0.00000000000E+00 0.  1.
</event>
<event>
12    1  0.8417180E-002  0.1915190E+03  0.7818608E-02  0.1157198E+00
         21   -1    0    0  503  502  0.00000000000E+00  0.00000000000E+00  0.16241825144E+03  0.16241825144E+03  0.00000000000E+00 0. -1.
         21   -1    0    0  501  503 -0.00000000000E+00 -0.00000000000E+00 -0.46037253378E+03  0.46037253378E+03  0.00000000000E+00 0. -1.
          6    2    1    2  501    0 -0.20767638429E+02  0.81796586671E+02 -0.37157291415E+03  0.41802627238E+03  0.17192311500E+03 0.  0.
         24    2    3    3    0    0  0.42932240866E+02  0.10549320370E+02 -0.13724692846E+03  0.16491640464E+03  0.80038963515E+02 0.  0.
         -6    2    1    2    0  502  0.20767638429E+02 -0.81796586671E+02  0.73618631815E+02  0.20476451284E+03  0.17142586261E+03 0.  0.
        -24    2    5    5    0    0  0.31523048405E+02 -0.75720576604E+02  0.11386950950E+03  0.16239919806E+03  0.81730814479E+02 0.  0.
          5    1    3    3  501    0 -0.63699879295E+02  0.71247266301E+02 -0.23432598569E+03  0.25310986774E+03  0.47000000000E+01 0. -1.
        -13    1    4    4    0    0 -0.22951686603E+02  0.24339609541E+01 -0.21815765110E+02  0.31758962375E+02  0.00000000000E+00 0.  1.
         14    1    4    4    0    0  0.65883927469E+02  0.81153594159E+01 -0.11543116335E+03  0.13315744226E+03  0.00000000000E+00 0. -1.
         -5    1    5    5    0  502 -0.10755409976E+02 -0.60760100663E+01 -0.40250877682E+02  0.42365314778E+02  0.47000000000E+01 0.  1.
         11    1    6    6    0    0  0.15712267976E+02 -0.80898823908E+02  0.49986708093E+02  0.96385507524E+02  0.00000000000E+00 0. -1.
        -12    1    6    6    0    0  0.15810780429E+02  0.51782473040E+01  0.63882801405E+02  0.66013690536E+02  0.00000000000E+00 0.  1.
</event>
<event>
12    1  0.8417180E-002  0.1824757E+03  0.7818608E-02  0.1165664E+00
         21   -1    0    0  503  502  0.00000000000E+00  0.00000000000E+00  0.97649211732E+03  0.97649211732E+03  0.00000000000E+00 0.  1.
         21   -1    0    0  501  503 -0.00000000000E+00 -0.00000000000E+00 -0.34068357543E+02  0.34068357543E+02  0.00000000000E+00 0.  1.
          6    2    1    2  501    0 -0.64249045634E+00 -0.59698130138E+02  0.43596162658E+03  0.47222853406E+03  0.17138543986E+03 0.  0.
         24    2    3    3    0    0 -0.30297476934E+02 -0.92702995903E+02  0.38023570232E+03  0.40084080387E+03  0.81131856690E+02 0.  0.
         -6    2    1    2    0  502  0.64249045634E+00  0.59698130138E+02  0.50646213319E+03  0.53833194080E+03  0.17243290460E+03 0.  0.
        -24    2    5    5    0    0  0.15721617825E+02 -0.18889364727E+02  0.14989300941E+03  0.17286374182E+03  0.82522612647E+02 0.  0.
          5    1    3    3  501    0  0.29654986477E+02  0.33004865766E+02  0.55725924261E+02  0.71387730191E+02  0.47000000000E+01 0. -1.
        -13    1    4    4    0    0 -0.35104959337E+01 -0.56280249998E+02  0.32308256882E+03  0.32796666964E+03  0.00000000000E+00 0.  1.
         14    1    4    4    0    0 -0.26786981000E+02 -0.36422745906E+02  0.57153133501E+02  0.72874134228E+02  0.00000000000E+00 0. -1.
         -5    1    5    5    0  502 -0.15079127369E+02  0.78587494865E+02  0.35656912378E+03  0.36546819898E+03  0.47000000000E+01 0.  1.
         11    1    6    6    0    0 -0.98750819992E+01 -0.44706171311E+02  0.57003945232E+02  0.73113670198E+02  0.00000000000E+00 0. -1.
        -12    1    6    6    0    0  0.25596699824E+02  0.25816806584E+02  0.92889064178E+02  0.99750071619E+02  0.00000000000E+00 0.  1.
</event>
<event>
12    1  0.8417180E-002  0.1792957E+03  0.7818608E-02  0.1168755E+00
         21   -1    0    0  501  502  0.00000000000E+00  0.00000000000E+00  0.18393763224E+04  0.18393763224E+04  0.00000000000E+00 0.  1.
         21   -1    0    0  502  503 -0.00000000000E+00 -0.00000000000E+00 -0.93915361756E+02  0.93915361756E+02  0.00000000000E+00 0.  1.
         -6    2    1    2    0  503  0.45845613762E+02  0.16417575580E+02 -0.45112491814E+00  0.17819740034E+03  0.17141398100E+03 0.  0.
        -24    2    3    3    0    0  0.32439270001E+02  0.69097986508E+02  0.32115769446E+02  0.11465490781E+03  0.79293677297E+02 0.  0.
          6    2    1    2  501    0 -0.45845613762E+02 -0.16417575580E+02  0.17459120855E+04  0.17550942838E+04  0.17255601262E+03 0.  0.
         24    2    5    5    0    0 -0.82706311767E+02 -0.49705590595E+02  0.12759038877E+04  0.12824457896E+04  0.86171300035E+02 0.  0.
          5    1    5    5  501    0  0.36860698005E+02  0.33288015015E+02  0.47000819782E+03  0.47264849415E+03  0.47000000000E+01 0. -1.
        -11    1    6    6    0    0 -0.70240309355E+02  0.54770996440E+01  0.82593603409E+03  0.82893548126E+03  0.00000000000E+00 0.  1.
         12    1    6    6    0    0 -0.12466002412E+02 -0.55182690239E+02  0.44996785362E+03  0.45351030838E+03  0.00000000000E+00 0. -1.
         -5    1    3    3    0  503  0.13406343760E+02 -0.52680410927E+02 -0.32566894364E+02  0.63542492531E+02  0.47000000000E+01 0.  1.
         11    1    4    4    0    0  0.39040575912E+02  0.30831969971E+02  0.51199702055E+02  0.71387578964E+02  0.00000000000E+00 0. -1.
        -12    1    4    4    0    0 -0.66013059106E+01  0.38266016536E+02 -0.19083932609E+02  0.43267328842E+02  0.00000000000E+00 0.  1.
</event>
<event>
12    1  0.8417180E-002  0.1745673E+03  0.7818608E-02  0.1173442E+00
         21   -1    0    0  503  502  0.00000000000E+00  0.00000000000E+00  0.38926470015E+02  0.38926470015E+02  0.00000000000E+00 0.  1.
         21   -1    0    0  501  503 -0.00000000000E+00 -0.00000000000E+00 -0.89619240288E+03  0.89619240288E+03  0.00000000000E+00 0.  1.
          6    2    1    2  501    0  0.15812561660E+02  0.14390600414E+02 -0.59727848871E+03  0.62196201059E+03  0.17215697214E+03 0.  0.
         24    2    3    3    0    0  0.22572846215E+02  0.72884637638E+02 -0.32937383894E+03  0.34762235759E+03  0.80823721346E+02 0.  0.
         -6    2    1    2    0  502 -0.15812561660E+02 -0.14390600414E+02 -0.25998744416E+03  0.31315686230E+03  0.17325306001E+03 0.  0.
        -24    2    5    5    0    0 -0.69664629961E+02 -0.15312042695E+02 -0.10819897710E+03  0.15202733972E+03  0.79483797456E+02 0.  0.
          5    1    3    3  501    0 -0.67602845546E+01 -0.58494037224E+02 -0.26790464977E+03  0.27433965300E+03  0.47000000000E+01 0. -1.
        -13    1    4    4    0    0  0.13779831970E+01  0.71287953465E+02 -0.14050395759E+03  0.15756025275E+03  0.00000000000E+00 0.  1.
         14    1    4    4    0    0  0.21194863018E+02  0.15966841727E+01 -0.18886988134E+03  0.19006210484E+03  0.00000000000E+00 0. -1.
         -5    1    5    5    0  502  0.53852068301E+02  0.92144228131E+00 -0.15178846706E+03  0.16112952258E+03  0.47000000000E+01 0.  1.
         13    1    6    6    0    0  0.10468488580E+02  0.13059502141E+02 -0.38915204781E+02  0.42361928810E+02  0.00000000000E+00 0. -1.
        -14    1    6    6    0    0 -0.80133118542E+02 -0.28371544836E+02 -0.69283772318E+02  0.10966541091E+03  0.00000000000E+00 0.  1.
</event>
<event>
12    1  0.8417180E-002  0.2182980E+03  0.7818608E-02  0.1135271E+00
         21   -1    0    0  503  502  0.00000000000E+00  0.00000000000E+00  0.17128691626E+04  0.17128691626E+04  0.00000000000E+00 0. -1.
         21   -1    0    0  501  503 -0.00000000000E+00 -0.00000000000E+00 -0.65240512823E+02  0.65240512823E+02  0.00000000000E+00 0. -1.
          6    2    1    2  501    0  0.81715717266E+01  0.13325848624E+03  0.15029670209E+03  0.26503414439E+03  0.17271189969E+03 0.  0.
         24    2    3    3    0    0 -0.32165514848E+02  0.13086056137E+03  0.78584118373E+02  0.18258649275E+03  0.94885493131E+02 0.  0.
         -6    2    1    2    0  502 -0.81715717266E+01 -0.13325848624E+03  0.14973319477E+04  0.15130755311E+04  0.17195930423E+03 0.  0.
        -24    2    5    5    0    0 -0.39026384003E+02 -0.86544707573E+02  0.13464803484E+04  0.13521019569E+04  0.78468644767E+02 0.  0.
          5    1    3    3  501    0  0.40337086574E+02  0.23979248635E+01  0.71712583721E+02  0.82447651640E+02  0.47000000000E+01 0. -1.
        -13    1    4    4    0    0 -0.21590648198E+02  0.14492204090E+03  0.64684773953E+02  0.16016452169E+03  0.00000000000E+00 0.  1.
         14    1    4    4    0    0 -0.10574866650E+02 -0.14061479522E+02  0.13899344420E+02  0.22421971062E+02  0.00000000000E+00 0. -1.
         -5    1    5    5    0  502  0.30854812276E+02 -0.46713778666E+02  0.15085159935E+03  0.16097357418E+03  0.47000000000E+01 0.  1.
         13    1    6    6    0    0 -0.54093141461E+02 -0.79082951690E+02  0.85815008869E+03  0.86348234257E+03  0.00000000000E+00 0. -1.
        -14    1    6    6    0    0  0.15066757458E+02 -0.74617558823E+01  0.48833025969E+03  0.48861961433E+03  0.00000000000E+00 0.  1.
</event>
<event>
12    1  0.8417180E-002  0.2274167E+03  0.7818608E-02  0.1131400E+00
         21   -1    0    0  501  502  0.00000000000E+00  0.00000000000E+00  0.22755046557E+03  0.22755046557E+03  0.00000000000E+00 0. -1.
         21   -1    0    0  502  503 -0.00000000000E+00 -0.00000000000E+00 -0.22242621375E+03  0.22242621375E+03  0.00000000000E+00 0. -1.
         -6    2    1    2    0  503 -0.10451798348E+03 -0.54901514487E+02 -0.46712841411E+02  0.21672692116E+03  0.17564248813E+03 0.  0.
        -24    2    3    3    0    0 -0.56467915930E+00  0.95411223362E+01 -0.45465125464E+02  0.94322714874E+02  0.82087423091E+02 0.  0.
          6    2    1    2  501    0  0.10451798348E+03  0.54901514487E+02  0.51837093232E+02  0.23324975817E+03  0.19437124347E+03 0.  0.
         24    2    5    5    0    0 -0.45111947281E+01  0.83029286888E+02  0.11903779539E+02  0.11368683405E+03  0.76607982025E+02 0.  0.
          5    1    5    5  501    0  0.10902917821E+03 -0.28127772401E+02  0.39933313693E+02  0.11956292412E+03  0.47000000000E+01 0. -1.
        -13    1    6    6    0    0  0.27620830582E+02  0.72344636115E+02 -0.10137348377E+01  0.77444717799E+02  0.00000000000E+00 0.  1.
         14    1    6    6    0    0 -0.32132025310E+02  0.10684650772E+02  0.12917514377E+02  0.36242116250E+02  0.00000000000E+00 0. -1.
         -5    1    3    3    0  503 -0.10395330432E+03 -0.64442636823E+02 -0.12477159465E+01  0.12240420628E+03  0.47000000000E+01 0.  1.
         13    1    4    4    0    0  0.15142712397E+02 -0.82999937964E+01 -0.62653079509E+02  0.64989229936E+02  0.00000000000E+00 0. -1.
        -14    1    4    4    0    0 -0.15707391557E+02  0.17841116133E+02  0.17187954045E+02  0.29333484938E+02  0.00000000000E+00 0.  1.
</event>
<event>
12    1  0.8417180E-002  0.2056795E+03  0.7818608E-02  0.1147178E+00
         21   -1    0    0  501  502  0.00000000000E+00  0.00000000000E+00  0.37997267925E+03  0.37997267925E+03  0.00000000000E+00 0. -1.
         21   -1    0    0  502  503 -0.00000000000E+00 -0.00000000000E+00 -0.10613638849E+03  0.10613638849E+03  0.00000000000E+00 0. -1.
         -6    2    1    2    0  503  0.92006385120E+02 -0.65397637660E+02  0.12782827929E+03  0.24216547719E+03  0.17193610280E+03 0.  0.
        -24    2    3    3    0    0  0.15523762052E+02  0.22490536719E+02  0.23446168645E+02  0.85667432959E+02  0.77732713933E+02 0.  0.
          6    2    1    2  501    0 -0.92006385120E+02  0.65397637660E+02  0.14600801147E+03  0.24394359055E+03  0.15952463772E+03 0.  0.
         24    2    5    5    0    0 -0.17876910232E+02  0.61351148102E+02  0.13481809638E+03  0.16871821368E+03  0.78780512967E+02 0.  0.
          5    1    5    5  501    0 -0.74129474888E+02  0.40464895574E+01  0.11189915091E+02  0.75225376866E+02  0.47000000000E+01 0. -1.
        -11    1    6    6    0    0  0.29359381844E+02  0.87282692242E+01  0.37424027720E+02  0.48360250585E+02  0.00000000000E+00 0.  1.
         12    1    6    6    0    0 -0.47236292076E+02  0.52622878878E+02  0.97394068661E+02  0.12035796310E+03  0.00000000000E+00 0. -1.
         -5    1    3    3    0  503  0.76482623068E+02 -0.87888174379E+02  0.10438211064E+03  0.15649804424E+03  0.47000000000E+01 0.  1.
         13    1    4    4    0    0  0.37119406768E+02  0.53741891745E+01  0.38930787785E+02  0.54058658008E+02  0.00000000000E+00 0. -1.
        -14    1    4    4    0    0 -0.21595644716E+02  0.17116347545E+02 -0.15484619140E+02  0.31608774951E+02  0.00000000000E+00 0.  1.
</event>
<event>
12    1  0.8417180E-002  0.1784561E+03  0.7818608E-02  0.1170512E+00
         21   -1    0    0  501  502  0.00000000000E+00  0.00000000000E+00  0.12733242926E+03  0.12733242926E+03  0.00000000000E+00 0.  1.
         21   -1    0    0  502  503 -0.00000000000E+00 -0.00000000000E+00 -0.27128578561E+03  0.27128578561E+03  0.00000000000E+00 0. -1.
         -6    2    1    2    0  503 -0.19326648663E+02  0.46278559778E+02 -0.13504617386E+03  0.21993993772E+03  0.16619531487E+03 0.  0.
        -24    2    3    3    0    0 -0.95980201849E+00 -0.30343159978E+02 -0.10508818168E+03  0.13551363678E+03  0.79992444944E+02 0.  0.
          6    2    1    2  501    0  0.19326648663E+02 -0.46278559778E+02 -0.89071824958E+01  0.17867827715E+03  0.17126401952E+03 0.  0.
         24    2    5    5    0    0  0.20686526401E+02 -0.14875992723E+02  0.59293551013E+02  0.10343599823E+03  0.80833489375E+02 0.  0.
          5    1    5    5  501    0 -0.13598777381E+01 -0.31402567055E+02 -0.68200733509E+02  0.75242278915E+02  0.47000000000E+01 0. -1.
        -13    1    6    6    0    0 -0.15609182638E+01 -0.45030521399E+02  0.43951395863E+02  0.62943701207E+02  0.00000000000E+00 0.  1.
         14    1    6    6    0    0  0.22247444665E+02  0.30154528676E+02  0.15342155150E+02  0.40492297026E+02  0.00000000000E+00 0. -1.
         -5    1    3    3    0  503 -0.18366846645E+02  0.76621719756E+02 -0.29957992177E+02  0.84426300933E+02  0.47000000000E+01 0.  1.
         13    1    4    4    0    0  0.38527786580E+02 -0.22188618929E+02 -0.45955579520E+02  0.63942477570E+02  0.00000000000E+00 0. -1.
        -14    1    4    4    0    0 -0.39487588599E+02 -0.81545410493E+01 -0.59132602158E+02  0.71571159212E+02  0.00000000000E+00 0.  1.
</event>
<event>
12    1  0.8417180E-002  0.1841026E+03  0.7818608E-02  0.1164085E+00
         21   -1    0    0  501  502  0.00000000000E+00  0.00000000000E+00  0.63025560159E+03  0.63025560159E+03  0.00000000000E+00 0.  1.
         21   -1    0    0  502  503 -0.00000000000E+00 -0.00000000000E+00 -0.66026613688E+02  0.66026613688E+02  0.00000000000E+00 0.  1.
         -6    2    1    2    0  503  0.42870680866E+02  0.45138732601E+02  0.13121170574E+03  0.22607583141E+03  0.17325810043E+03 0.  0.
        -24    2    3    3    0    0 -0.16184761798E+02  0.79754683792E+01  0.16916651500E+02  0.92082910180E+02  0.88699124229E+02 0.  0.
          6    2    1    2  501    0 -0.42870680866E+02 -0.45138732601E+02  0.43301728216E+03  0.47020638386E+03  0.17237945446E+03 0.  0.
         24    2    5    5    0    0  0.25469250571E+01 -0.84313064539E+02  0.22464419901E+03  0.25332203913E+03  0.81190268386E+02 0.  0.
          5    1    5    5  501    0 -0.45417605923E+02  0.39174331938E+02  0.20837308315E+03  0.21688434474E+03  0.47000000000E+01 0. -1.
        -13    1    6    6    0    0 -0.38726298535E+02 -0.43649920220E+02  0.12735850549E+03  0.14009008050E+03  0.00000000000E+00 0.  1.
         14    1    6    6    0    0  0.41273223592E+02 -0.40663144318E+02  0.97285693515E+02  0.11323195863E+03  0.00000000000E+00 0. -1.
         -5    1    3    3    0  503  0.59055442664E+02  0.37163264222E+02  0.11429505424E+03  0.13399292123E+03  0.47000000000E+01 0.  1.
         13    1    4    4    0    0  0.27686181001E+01 -0.30200176187E+02  0.34537347793E+02  0.45962422483E+02  0.00000000000E+00 0. -1.
        -14    1    4    4    0    0 -0.18953379898E+02  0.38175644566E+02 -0.17620696293E+02  0.46120487697E+02  0.00000000000E+00 0.  1.
</event>
<event>
12    1  0.8417180E-002  0.1773592E+03  0.7818608E-02  0.1171147E+00
         21   -1    0    0  503  502  0.00000000000E+00  0.00000000000E+00  0.24229366648E+03  0.24229366648E+03  0.00000000000E+00 0. -1.
         21   -1    0    0  501  503 -0.00000000000E+00 -0.00000000000E+00 -0.12760502635E+03  0.12760502635E+03  0.00000000000E+00 0. -1.
          6    2    1    2  501    0 -0.25268403371E+02 -0.15525277853E+02  0.58618782141E+02  0.18388762028E+03  0.17175263844E+03 0.  0.
         24    2    3    3    0    0  0.16912840914E+02  0.42348633056E+02  0.64068878115E+02  0.11191234342E+03  0.79624748399E+02 0.  0.
         -6    2    1    2    0  502  0.25268403371E+02  0.15525277853E+02  0.56069857992E+02  0.18601107254E+03  0.17486212761E+03 0.  0.
        -24    2    5    5    0    0  0.52258815239E+02 -0.19173772119E+02  0.87675881483E+02  0.13166461799E+03  0.80931416207E+02 0.  0.
          5    1    3    3  501    0 -0.42181244285E+02 -0.57873910909E+02 -0.54500959736E+01  0.71975276863E+02  0.47000000000E+01 0. -1.
        -11    1    4    4    0    0  0.86259749067E+01  0.49626205317E+01  0.72101897010E+02  0.72785428474E+02  0.00000000000E+00 0.  1.
         12    1    4    4    0    0  0.82868660073E+01  0.37386012525E+02 -0.80330188958E+01  0.39126914947E+02  0.00000000000E+00 0. -1.
         -5    1    5    5    0  502 -0.26990411868E+02  0.34699049972E+02 -0.31606023490E+02  0.54346454554E+02  0.47000000000E+01 0.  1.
         13    1    6    6    0    0  0.66649029304E+02 -0.44363144778E+01  0.35660821491E+02  0.75719668401E+02  0.00000000000E+00 0. -1.
        -14    1    6    6    0    0 -0.14390214065E+02 -0.14737457641E+02  0.52015059992E+02  0.55944949589E+02  0.00000000000E+00 0.  1.
</event>
<event>
12    1  0.8417180E-002  0.3531925E+03  0.7818608E-02  0.1061374E+00
         21   -1    0    0  503  502  0.00000000000E+00  0.00000000000E+00  0.25968208937E+03  0.25968208937E+03  0.00000000000E+00 0.  1.
         21   -1    0    0  501  503 -0.00000000000E+00 -0.00000000000E+00 -0.83191940932E+03  0.83191940932E+03  0.00000000000E+00 0. -1.
          6    2    1    2  501    0 -0.10417813988E+03 -0.29077669219E+03  0.68956765042E+02  0.35986109335E+03  0.17129156870E+03 0.  0.
         24    2    3    3    0    0 -0.11368775161E+03 -0.26263344192E+03  0.10307588674E+03  0.31437835248E+03  0.79422165678E+02 0.  0.
         -6    2    1    2    0  502  0.10417813988E+03  0.29077669219E+03 -0.64119408499E+03  0.73174040534E+03  0.17002939930E+03 0.  0.
        -24    2    5    5    0    0  0.30436017800E+02  0.17881931830E+03 -0.49950969616E+03  0.53662784763E+03  0.74544017305E+02 0.  0.
          5    1    3    3  501    0  0.95096117254E+01 -0.28143250269E+02 -0.34119121699E+02  0.45482740863E+02  0.47000000000E+01 0. -1.
        -13    1    4    4    0    0 -0.93355332869E+02 -0.13214598422E+03  0.33951176126E+02  0.16531927196E+03  0.00000000000E+00 0.  1.
         14    1    4    4    0    0 -0.20332418741E+02 -0.13048745770E+03  0.69124710616E+02  0.14905908053E+03  0.00000000000E+00 0. -1.
         -5    1    5    5    0  502  0.73742122085E+02  0.11195737389E+03 -0.14168438883E+03  0.19511255771E+03  0.47000000000E+01 0.  1.
         13    1    6    6    0    0  0.37554429006E+02  0.18160091317E+03 -0.45289093286E+03  0.48938678350E+03  0.00000000000E+00 0. -1.
        -14    1    6    6    0    0 -0.71184112063E+01 -0.27815948652E+01 -0.46618763303E+02  0.47241064128E+02  0.00000000000E+00 0.  1.
</event>
<event>
12    1  0.8417180E-002  0.1841710E+03  0.7818608E-02  0.1164681E+00
         21   -1    0    0  503  502  0.00000000000E+00  0.00000000000E+00  0.11556040663E+03  0.11556040663E+03  0.00000000000E+00 0.  1.
         21   -1    0    0  501  503 -0.00000000000E+00 -0.00000000000E+00 -0.32227469742E+03  0.32227469742E+03  0.00000000000E+00 0.  1.
          6    2    1    2  501    0  0.52173554750E+02 -0.92716459004E+01 -0.17585797984E+03  0.25464676158E+03  0.17638282478E+03 0.  0.
         24    2    3    3    0    0  0.89142125645E+02 -0.63324722710E+01 -0.18023123477E+03  0.21700995334E+03  0.81385521400E+02 0.  0.
         -6    2    1    2    0  502 -0.52173554750E+02  0.92716459004E+01 -0.30856310955E+02  0.18318834246E+03  0.17262043232E+03 0.  0.
        -24    2    5    5    0    0 -0.94650263126E+02  0.14967121564E+02  0.85846326443E+01  0.12475558427E+03  0.79420229488E+02 0.  0.
          5    1    3    3  501    0 -0.36968570895E+02 -0.29391736294E+01  0.43732549331E+01  0.37636808238E+02  0.47000000000E+01 0. -1.
        -11    1    4    4    0    0  0.65168410807E+00 -0.29308817281E+02 -0.48196778239E+02  0.56412417917E+02  0.00000000000E+00 0.  1.
         12    1    4    4    0    0  0.88490441537E+02  0.22976345010E+02 -0.13203445653E+03  0.16059753543E+03  0.00000000000E+00 0. -1.
         -5    1    5    5    0  502  0.42476708376E+02 -0.56954756639E+01 -0.39440943599E+02  0.58432758188E+02  0.47000000000E+01 0.  1.
         11    1    6    6    0    0 -0.22708117559E+02 -0.31217753820E+02  0.71059889832E+01  0.39251774942E+02  0.00000000000E+00 0. -1.
        -12    1    6    6    0    0 -0.71942145567E+02  0.46184875384E+02  0.14786436610E+01  0.85503809331E+02  0.00000000000E+00 0.  1.
</event>
<event>
12    1  0.8417180E-002  0.1786920E+03  0.7818608E-02  0.1169966E+00
         21   -1    0    0  501  502  0.00000000000E+00  0.00000000000E+00  0.12391307337E+03  0.12391307337E+03  0.00000000000E+00 0.  1.
         21   -1    0    0  502  503 -0.00000000000E+00 -0.00000000000E+00 -0.25513254563E+03  0.25513254563E+03  0.00000000000E+00 0.  1.
         -6    2    1    2    0  503  0.34087314745E+02 -0.32313497607E+02 -0.84160813573E+02  0.19426102740E+03  0.16866593335E+03 0.  0.
        -24    2    3    3    0    0 -0.40107450205E+02 -0.20856352145E+02 -0.75935688361E+02  0.11859153545E+03  0.79083048283E+02 0.  0.
          6    2    1    2  501    0 -0.34087314745E+02  0.32313497607E+02 -0.47058658693E+02  0.18478459160E+03  0.17240858673E+03 0.  0.
         24    2    5    5    0    0 -0.59004426147E+01 -0.43275471002E+02 -0.48266305889E+02  0.10396540855E+03  0.81065333394E+02 0.  0.
          5    1    5    5  501    0 -0.28186872130E+02  0.75588968609E+02  0.12076471956E+01  0.80819183042E+02  0.47000000000E+01 0. -1.
        -13    1    6    6    0    0 -0.38183475621E+02 -0.19643117267E+02 -0.22645896697E+01  0.42999514333E+02  0.00000000000E+00 0.  1.
         14    1    6    6    0    0  0.32283033007E+02 -0.23632353734E+02 -0.46001716219E+02  0.60965894222E+02  0.00000000000E+00 0. -1.
         -5    1    3    3    0  503  0.74194764950E+02 -0.11457145462E+02 -0.82251252122E+01  0.75669491956E+02  0.47000000000E+01 0.  1.
         13    1    4    4    0    0 -0.17847322140E+02 -0.33410959723E+02 -0.83707857153E+02  0.91879401861E+02  0.00000000000E+00 0. -1.
        -14    1    4    4    0    0 -0.22260128065E+02  0.12554607578E+02  0.77721687920E+01  0.26712133585E+02  0.00000000000E+00 0.  1.
</event>
<event>
12    1  0.8417180E-002  0.2638556E+03  0.7818608E-02  0.1104853E+00
         21   -1    0    0  503  502  0.00000000000E+00  0.00000000000E+00  0.13328884019E+03  0.13328884019E+03  0.00000000000E+00 0. -1.
         21   -1    0    0  501  503 -0.00000000000E+00 -0.00000000000E+00 -0.11646783757E+04  0.11646783757E+04  0.00000000000E+00 0.  1.
          6    2    1    2  501    0 -0.15328377366E+03  0.12806846115E+03 -0.99767145962E+03  0.10319659384E+04  0.17235982914E+03 0.  0.
         24    2    3    3    0    0 -0.75381939999E+02  0.47528425359E+02 -0.75710275360E+03  0.76654027016E+03  0.80237261753E+02 0.  0.
         -6    2    1    2    0  502  0.15328377366E+03 -0.12806846115E+03 -0.33718075876E+02  0.26600127747E+03  0.17240163852E+03 0.  0.
        -24    2    5    5    0    0  0.52013575970E+02 -0.54976223210E+02  0.42254798757E+02  0.11974090735E+03  0.82611256325E+02 0.  0.
          5    1    3    3  501    0 -0.77901833657E+02  0.80540035789E+02 -0.24056870602E+03  0.26542566825E+03  0.47000000000E+01 0. -1.
        -11    1    4    4    0    0 -0.10108954577E+02  0.53408437837E+02 -0.35025779084E+03  0.35445052157E+03  0.00000000000E+00 0.  1.
         12    1    4    4    0    0 -0.65272985422E+02 -0.58800124783E+01 -0.40684496276E+03  0.41208974859E+03  0.00000000000E+00 0. -1.
         -5    1    5    5    0  502  0.10127019769E+03 -0.73092237938E+02 -0.75972874633E+02  0.14626037012E+03  0.47000000000E+01 0.  1.
         13    1    6    6    0    0  0.29420135864E+02 -0.71897853877E+02  0.12423651018E+02  0.78671423599E+02  0.00000000000E+00 0. -1.
        -14    1    6    6    0    0  0.22593440106E+02  0.16921630667E+02  0.29831147739E+02  0.41069483753E+02  0.00000000000E+00 0.  1.
</event>
<event>
12    1  0.8417180E-002  0.4279759E+03  0.7818608E-02  0.1034522E+00
         21   -1    0    0  501  502  0.00000000000E+00  0.00000000000E+00  0.89779227367E+03  0.89779227367E+03  0.00000000000E+00 0. -1.
         21   -1    0    0  502  503 -0.00000000000E+00 -0.00000000000E+00 -0.46220916270E+03  0.46220916270E+03  0.00000000000E+00 0. -1.
         -6    2    1    2    0  503 -0.36283301048E+03 -0.14772357141E+03 -0.29053273153E+03  0.51727422966E+03  0.17231747891E+03 0.  0.
        -24    2    3    3    0    0 -0.16865892307E+03 -0.55432629509E+02 -0.62192560323E+02  0.20361435342E+03  0.77924845933E+02 0.  0.
          6    2    1    2  501    0  0.36283301048E+03  0.14772357141E+03  0.72611584249E+03  0.84272720671E+03  0.17168250105E+03 0.  0.
         24    2    5    5    0    0  0.17686910054E+03  0.12888378552E+02  0.27930460390E+03  0.34030758332E+03  0.79683125429E+02 0.  0.
          5    1    5    5  501    0  0.18596390994E+03  0.13483519286E+03  0.44681123859E+03  0.50241962339E+03  0.47000000000E+01 0. -1.
        -11    1    6    6    0    0  0.15422459250E+03  0.18980556350E+02  0.17781134090E+03  0.23614055011E+03  0.00000000000E+00 0.  1.
         12    1    6    6    0    0  0.22644508039E+02 -0.60921777973E+01  0.10149326299E+03  0.10416703321E+03  0.00000000000E+00 0. -1.
         -5    1    3    3    0  503 -0.19417408741E+03 -0.92290941899E+02 -0.22834017120E+03  0.31365987624E+03  0.47000000000E+01 0.  1.
         13    1    4    4    0    0 -0.11144006845E+03 -0.73948746989E+02 -0.42822760398E+02  0.14043181564E+03  0.00000000000E+00 0. -1.
        -14    1    4    4    0    0 -0.57218854620E+02  0.18516117479E+02 -0.19369799925E+02  0.63182537775E+02  0.00000000000E+00 0.  1.
</event>
<event>
12    1  0.8417180E-002  0.2370777E+03  0.7818608E-02  0.1122186E+00
         21   -1    0    0  503  502  0.00000000000E+00  0.00000000000E+00  0.13658497512E+03  0.13658497512E+03  0.00000000000E+00 0. -1.
         21   -1    0    0  501  503 -0.00000000000E+00 -0.00000000000E+00 -0.56205175230E+03  0.56205175230E+03  0.00000000000E+00 0. -1.
          6    2    1    2  501    0  0.90936016928E+02 -0.13443616954E+03 -0.39530176571E+03  0.45964771141E+03  0.16932244322E+03 0.  0.
         24    2    3    3    0    0 -0.11607287447E+02 -0.90019737688E+02 -0.17789108064E+03  0.21515344835E+03  0.80046782991E+02 0.  0.
         -6    2    1    2    0  502 -0.90936016928E+02  0.13443616954E+03 -0.30165011477E+02  0.23898901601E+03  0.17281023987E+03 0.  0.
        -24    2    5    5    0    0 -0.28001051024E+02  0.44885226798E+02 -0.72374772610E+02  0.12158401095E+03  0.82132950546E+02 0.  0.
          5    1    3    3  501    0  0.10254330437E+03 -0.44416431850E+02 -0.21741068506E+03  0.24449426306E+03  0.47000000000E+01 0. -1.
        -13    1    4    4    0    0  0.13968196956E+02 -0.93917135832E+02 -0.13457275477E+03  0.16469779979E+03  0.00000000000E+00 0.  1.
         14    1    4    4    0    0 -0.25575484403E+02  0.38973981443E+01 -0.43318325876E+02  0.50455648559E+02  0.00000000000E+00 0. -1.
         -5    1    5    5    0  502 -0.62934965904E+02  0.89550942740E+02  0.42209761132E+02  0.11740500506E+03  0.47000000000E+01 0.  1.
         13    1    6    6    0    0 -0.49517200724E+02  0.54594631681E+02 -0.59301395940E+02  0.94600119114E+02  0.00000000000E+00 0. -1.
        -14    1    6    6    0    0  0.21516149700E+02 -0.97094048834E+01 -0.13073376670E+02  0.26983891837E+02  0.00000000000E+00 0.  1.
</event>
<event>
12    1  0.8417180E-002  0.2413666E+03  0.7818608E-02  0.1120889E+00
         21   -1    0    0  501  502  0.00000000000E+00  0.00000000000E+00  0.37155261040E+03  0.37155261040E+03  0.00000000000E+00 0. -1.
         21   -1    0    0  502  503 -0.00000000000E+00 -0.00000000000E+00 -0.35646583152E+03  0.35646583152E+03  0.00000000000E+00 0.  1.
         -6    2    1    2    0  503  0.16836968029E+03  0.14273171335E+02 -0.26989127465E+03  0.36207611875E+03  0.17235354065E+03 0.  0.
        -24    2    3    3    0    0  0.16682266903E+03 -0.16162242191E+02 -0.15151368234E+03  0.23974847673E+03  0.80199221839E+02 0.  0.
          6    2    1    2  501    0 -0.16836968029E+03 -0.14273171335E+02  0.28497805353E+03  0.36594232318E+03  0.15540019383E+03 0.  0.
         24    2    5    5    0    0 -0.14518894986E+03 -0.51993055058E+02  0.26350365328E+03  0.31651180875E+03  0.83441241890E+02 0.  0.
          5    1    5    5  501    0 -0.23180730427E+02  0.37719883722E+02  0.21474400249E+02  0.49430514434E+02  0.47000000000E+01 0. -1.
        -11    1    6    6    0    0  0.85728363403E+01  0.46152926877E+01  0.27769355273E+02  0.29426714764E+02  0.00000000000E+00 0.  1.
         12    1    6    6    0    0 -0.15376178620E+03 -0.56608347745E+02  0.23573429801E+03  0.28708509398E+03  0.00000000000E+00 0. -1.
         -5    1    3    3    0  503  0.15470112565E+01  0.30435413526E+02 -0.11837759231E+03  0.12232764201E+03  0.47000000000E+01 0.  1.
         13    1    4    4    0    0  0.13008202350E+03  0.22602982103E+02 -0.10096959749E+03  0.16621398033E+03  0.00000000000E+00 0. -1.
        -14    1    4    4    0    0  0.36740645529E+02 -0.38765224293E+02 -0.50544084846E+02  0.73534496404E+02  0.00000000000E+00 0.  1.
</event>
<event>
12    1  0.8417180E-002  0.1774779E+03  0.7818608E-02  0.1170304E+00
         21   -1    0    0  501  502  0.00000000000E+00  0.00000000000E+00  0.28806205397E+02  0.28806205397E+02  0.00000000000E+00 0. -1.
         21   -1    0    0  502  503 -0.00000000000E+00 -0.00000000000E+00 -0.13553961317E+04  0.13553961317E+04  0.00000000000E+00 0. -1.
         -6    2    1    2    0  503  0.39700024439E+02 -0.15895808839E+02 -0.96786129795E+03  0.98397161873E+03  0.17209266606E+03 0.  0.
        -24    2    3    3    0    0  0.34033215423E+02 -0.14785547199E+01 -0.96276849058E+03  0.96700115534E+03  0.83711540956E+02 0.  0.
          6    2    1    2  501    0 -0.39700024439E+02  0.15895808839E+02 -0.35872862832E+03  0.40023071834E+03  0.17224874585E+03 0.  0.
         24    2    5    5    0    0 -0.81612981407E+02  0.40110441333E+02 -0.19028577479E+03  0.22490778974E+03  0.78136493125E+02 0.  0.
          5    1    5    5  501    0  0.41912956968E+02 -0.24214632494E+02 -0.16844285353E+03  0.17532292860E+03  0.47000000000E+01 0. -1.
        -13    1    6    6    0    0  0.60416266542E+01  0.27267041152E+02 -0.71216585606E+02  0.76497025113E+02  0.00000000000E+00 0.  1.
         14    1    6    6    0    0 -0.87654608061E+02  0.12843400181E+02 -0.11906918919E+03  0.14841076462E+03  0.00000000000E+00 0. -1.
         -5    1    3    3    0  503  0.56668090153E+01 -0.14417254119E+02 -0.50928073676E+01  0.16970463389E+02  0.47000000000E+01 0.  1.
         11    1    4    4    0    0  0.53980697832E+02  0.22893783596E+02 -0.65968186557E+03  0.66228257174E+03  0.00000000000E+00 0. -1.
        -12    1    4    4    0    0 -0.19947482409E+02 -0.24372338316E+02 -0.30308662501E+03  0.30471858360E+03  0.00000000000E+00 0.  1.
</event>
<event>
12    1  0.8417180E-002  0.2402386E+03  0.7818608E-02  0.1119736E+00
         21   -1    0    0  501  502  0.00000000000E+00  0.00000000000E+00  0.47563926395E+03  0.47563926395E+03  0.00000000000E+00 0. -1.
         21   -1    0    0  502  503 -0.00000000000E+00 -0.00000000000E+00 -0.12122488397E+03  0.12122488397E+03  0.00000000000E+00 0. -1.
         -6    2    1    2    0  503  0.60281056308E+02  0.15615589408E+03  0.18932259994E+03  0.30587190769E+03  0.17232558736E+03 0.  0.
        -24    2    3    3    0    0  0.18695043903E+02  0.43484096953E+02  0.15496723432E+03  0.18086506210E+03  0.80355184166E+02 0.  0.
          6    2    1    2  501    0 -0.60281056308E+02 -0.15615589408E+03  0.16509178004E+03  0.29099224023E+03  0.17147221067E+03 0.  0.
         24    2    5    5    0    0 -0.95523746630E+02 -0.88359755060E+02  0.14844945365E+03  0.21265054817E+03  0.79061892615E+02 0.  0.
          5    1    5    5  501    0  0.35242690322E+02 -0.67796139024E+02  0.16642326390E+02  0.78341692064E+02  0.47000000000E+01 0. -1.
        -13    1    6    6    0    0  0.10235107730E+00 -0.20589794148E+01 -0.89946014103E+01  0.92278234977E+01  0.00000000000E+00 0.  1.
         14    1    6    6    0    0 -0.95626097707E+02 -0.86300775645E+02  0.15744405506E+03  0.20342272467E+03  0.00000000000E+00 0. -1.
         -5    1    3    3    0  503  0.41586012405E+02  0.11267179713E+03  0.34355365620E+02  0.12500684559E+03  0.47000000000E+01 0.  1.
         13    1    4    4    0    0 -0.51609687115E+01 -0.10457057870E+01 -0.83730161652E+01  0.98912334083E+01  0.00000000000E+00 0. -1.
        -14    1    4    4    0    0  0.23856012614E+02  0.44529802740E+02  0.16334025049E+03  0.17097382869E+03  0.00000000000E+00 0.  1.
</event>
<event>
12    1  0.8417180E-002  0.2320903E+03  0.7818608E-02  0.1125200E+00
         21   -1    0    0  503  502  0.00000000000E+00  0.00000000000E+00  0.87793501725E+03  0.87793501725E+03  0.00000000000E+00 0. -1.
         21   -1    0    0  501  503 -0.00000000000E+00 -0.00000000000E+00 -0.85921401445E+02  0.85921401445E+02  0.00000000000E+00 0. -1.
          6    2    1    2  501    0 -0.39182126317E+02  0.15097614284E+03  0.65380282037E+03  0.69373030031E+03  0.17168158586E+03 0.  0.
         24    2    3    3    0    0 -0.65289655410E+02  0.33225296869E+02  0.38599793594E+03  0.39998140937E+03  0.74993745361E+02 0.  0.
         -6    2    1    2    0  502  0.39182126317E+02 -0.15097614284E+03  0.13821079544E+03  0.27012611838E+03  0.17186291376E+03 0.  0.
        -24    2    5    5    0    0 -0.39473194393E+01 -0.16823956566E+03  0.10834047893E+03  0.21469597616E+03  0.77695366777E+02 0.  0.
          5    1    3    3  501    0  0.26107529093E+02  0.11775084597E+03  0.26780488443E+03  0.29374889094E+03  0.47000000000E+01 0. -1.
        -11    1    4    4    0    0 -0.12086505386E+02 -0.17651595642E+02  0.17918956128E+03  0.18046207722E+03  0.00000000000E+00 0.  1.
         12    1    4    4    0    0 -0.53203150024E+02  0.50876892511E+02  0.20680837465E+03  0.21951933216E+03  0.00000000000E+00 0. -1.
         -5    1    5    5    0  502  0.43129445757E+02  0.17263422822E+02  0.29870316508E+02  0.55430142225E+02  0.47000000000E+01 0.  1.
         13    1    6    6    0    0  0.36388500778E+02 -0.87440578502E+02  0.61933392500E+02  0.11316237389E+03  0.00000000000E+00 0. -1.
        -14    1    6    6    0    0 -0.40335820218E+02 -0.80798987159E+02  0.46407086430E+02  0.10153360227E+03  0.00000000000E+00 0.  1.
</event>
<event>
12    1  0.8417180E-002  0.1848458E+03  0.7818608E-02  0.1163257E+00
         21   -1    0    0  501  502  0.00000000000E+00  0.00000000000E+00  0.42484971461E+02  0.42484971461E+02  0.00000000000E+00 0. -1.
         21   -1    0    0  502  503 -0.00000000000E+00 -0.00000000000E+00 -0.10106570032E+04  0.10106570032E+04  0.00000000000E+00 0. -1.
         -6    2    1    2    0  503  0.12165250458E+00 -0.68908366295E+02 -0.72245619466E+03  0.74566147047E+03  0.17122995530E+03 0.  0.
        -24    2    3    3    0    0 -0.57887546944E+02 -0.74340376404E+02 -0.54189632792E+03  0.55587598780E+03  0.80430242711E+02 0.  0.
          6    2    1    2  501    0 -0.12165250458E+00  0.68908366295E+02 -0.24571583704E+03  0.30748050416E+03  0.17152145673E+03 0.  0.
         24    2    5    5    0    0  0.34350245871E+02 -0.14876508267E+02 -0.17808567577E+03  0.19432509909E+03  0.68165140141E+02 0.  0.
          5    1    5    5  501    0 -0.34471898376E+02  0.83784874563E+02 -0.67630161269E+02  0.11315540507E+03  0.47000000000E+01 0. -1.
        -11    1    6    6    0    0 -0.18569672758E+02 -0.16361221685E+02 -0.52760294855E+02  0.58276676591E+02  0.00000000000E+00 0.  1.
         12    1    6    6    0    0  0.52919918629E+02  0.14847134179E+01 -0.12532538092E+03  0.13604842250E+03  0.00000000000E+00 0. -1.
         -5    1    3    3    0  503  0.58009199449E+02  0.54320101089E+01 -0.18055986674E+03  0.18978548267E+03  0.47000000000E+01 0.  1.
         11    1    4    4    0    0 -0.25143882441E+02 -0.67861734854E+02 -0.20633286035E+03  0.21865653236E+03  0.00000000000E+00 0. -1.
        -12    1    4    4    0    0 -0.32743664504E+02 -0.64786415500E+01 -0.33556346757E+03  0.33721945545E+03  0.00000000000E+00 0.  1.
</event>
<event>
12    1  0.8417180E-002  0.2017524E+03  0.7818608E-02  0.1148315E+00
         21   -1    0    0  501  502  0.00000000000E+00  0.00000000000E+00  0.63417123907E+03  0.63417123907E+03  0.00000000000E+00 0.  1.
         21   -1    0    0  502  503 -0.00000000000E+00 -0.00000000000E+00 -0.64203314168E+02  0.64203314168E+02  0.00000000000E+00 0. -1.
         -6    2    1    2    0  503 -0.57450605465E+02 -0.88604694546E+02  0.27186499726E+03  0.33841706970E+03  0.17165131040E+03 0.  0.
        -24    2    3    3    0    0 -0.92894369721E+02 -0.66894184372E+02  0.25977459158E+03  0.29487542772E+03  0.79777713768E+02 0.  0.
          6    2    1    2  501    0  0.57450605465E+02  0.88604694546E+02  0.29810292764E+03  0.35995748354E+03  0.17190890182E+03 0.  0.
         24    2    5    5    0    0  0.97143926649E+02  0.62594605882E+02  0.15106443730E+03  0.20537905005E+03  0.77492340348E+02 0.  0.
          5    1    5    5  501    0 -0.39693321183E+02  0.26010088664E+02  0.14703849034E+03  0.15457843349E+03  0.47000000000E+01 0. -1.
        -13    1    6    6    0    0  0.53327539665E+02  0.14852633490E+02  0.12276384649E+03  0.13466769922E+03  0.00000000000E+00 0.  1.
         14    1    6    6    0    0  0.43816386983E+02  0.47741972392E+02  0.28300590813E+02  0.70711350832E+02  0.00000000000E+00 0. -1.
         -5    1    3    3    0  503  0.35443764256E+02 -0.21710510175E+02  0.12090405684E+02  0.43541641980E+02  0.47000000000E+01 0.  1.
         11    1    4    4    0    0 -0.63120293211E+02 -0.81951577551E+00  0.86756623571E+02  0.10729191374E+03  0.00000000000E+00 0. -1.
        -12    1    4    4    0    0 -0.29774076510E+02 -0.66074668596E+02  0.17301796801E+03  0.18758351398E+03  0.00000000000E+00 0.  1.
</event>
<event>
12    1  0.8417180E-002  0.4150201E+03  0.7818608E-02  0.1038726E+00
         21   -1    0    0  501  502  0.00000000000E+00  0.00000000000E+00  0.63093940757E+03  0.63093940757E+03  0.00000000000E+00 0. -1.
         21   -1    0    0  502  503 -0.00000000000E+00 -0.00000000000E+00 -0.73860814373E+03  0.73860814373E+03  0.00000000000E+00 0.  1.
         -6    2    1    2    0  503  0.25215342027E+03 -0.28063195620E+03 -0.59764550247E+03  0.72742692502E+03  0.17214570119E+03 0.  0.
        -24    2    3    3    0    0  0.24048227403E+03 -0.23154455988E+03 -0.41841758504E+03  0.54117300019E+03  0.79688978716E+02 0.  0.
          6    2    1    2  501    0 -0.25215342027E+03  0.28063195620E+03  0.48997676631E+03  0.64212062627E+03  0.17293358543E+03 0.  0.
         24    2    5    5    0    0 -0.48031356191E+02  0.10629779347E+03  0.13449825167E+03  0.19664864993E+03  0.83514548093E+02 0.  0.
          5    1    5    5  501    0 -0.20412206408E+03  0.17433416273E+03  0.35547851464E+03  0.44547197634E+03  0.47000000000E+01 0. -1.
        -13    1    6    6    0    0  0.16205318855E+02 -0.62788249281E+00  0.53007731015E+01  0.17061793314E+02  0.00000000000E+00 0.  1.
         14    1    6    6    0    0 -0.64236675046E+02  0.10692567596E+03  0.12919747857E+03  0.17958685662E+03  0.00000000000E+00 0. -1.
         -5    1    3    3    0  503  0.11671146236E+02 -0.49087396323E+02 -0.17922791742E+03  0.18625392484E+03  0.47000000000E+01 0.  1.
         13    1    4    4    0    0  0.22143564899E+03 -0.17216116900E+03 -0.33243480432E+03  0.43495530102E+03  0.00000000000E+00 0. -1.
        -14    1    4    4    0    0  0.19046625038E+02 -0.59383390875E+02 -0.85982780720E+02  0.10621769917E+03  0.00000000000E+00 0.  1.
</event>
<event>
12    1  0.8417180E-002  0.1839458E+03  0.7818608E-02  0.1164331E+00
         21   -1    0    0  501  502  0.00000000000E+00  0.00000000000E+00  0.62740644197E+03  0.62740644197E+03  0.00000000000E+00 0. -1.
         21   -1    0    0  502  503 -0.00000000000E+00 -0.00000000000E+00 -0.66621846427E+02  0.66621846427E+02  0.00000000000E+00 0. -1.
         -6    2    1    2    0  503 -0.10071456762E+02 -0.54950224002E+02  0.12601585372E+03  0.22194787807E+03  0.17395374050E+03 0.  0.
        -24    2    3    3    0    0  0.55443328499E+02 -0.62429889622E+02  0.67763904165E+02  0.13383708354E+03  0.79680389247E+02 0.  0.
          6    2    1    2  501    0  0.10071456762E+02  0.54950224002E+02  0.43476874182E+03  0.47208041033E+03  0.17525722122E+03 0.  0.
         24    2    5    5    0    0  0.51133218555E+02  0.58740387892E+02  0.16015384626E+03  0.19434696890E+03  0.77823201152E+02 0.  0.
          5    1    5    5  501    0 -0.41061761793E+02 -0.37901638908E+01  0.27461489556E+03  0.27773344143E+03  0.47000000000E+01 0. -1.
        -13    1    6    6    0    0  0.72724508992E+01  0.49655964483E+02  0.34372340252E+02  0.60828127747E+02  0.00000000000E+00 0.  1.
         14    1    6    6    0    0  0.43860767655E+02  0.90844234096E+01  0.12578150601E+03  0.13351884115E+03  0.00000000000E+00 0. -1.
         -5    1    3    3    0  503 -0.65514785260E+02  0.74796656200E+01  0.58251949556E+02  0.88110794529E+02  0.47000000000E+01 0.  1.
         11    1    4    4    0    0  0.32698328051E+02 -0.77292953489E+02  0.65710046258E+02  0.10658889011E+03  0.00000000000E+00 0. -1.
        -12    1    4    4    0    0  0.22745000447E+02  0.14863063868E+02  0.20538579071E+01  0.27248193430E+02  0.00000000000E+00 0.  1.
</event>
<event>
12    1  0.8417180E-002  0.1781867E+03  0.7818608E-02  0.1170424E+00
         21   -1    0    0  503  502  0.00000000000E+00  0.00000000000E+00  0.24302778311E+02  0.24302778311E+02  0.00000000000E+00 0.  1.
         21   -1    0    0  501  503 -0.00000000000E+00 -0.00000000000E+00 -0.15719045147E+04  0.15719045147E+04  0.00000000000E+00 0.  1.
          6    2    1    2  501    0 -0.30891762910E+02  0.17647424405E+02 -0.11107893793E+04  0.11244493715E+04  0.17107779317E+03 0.  0.
         24    2    3    3    0    0 -0.35634425837E+02  0.55183990504E+02 -0.41521225536E+03  0.42782816024E+03  0.79502406109E+02 0.  0.
         -6    2    1    2    0  502  0.30891762910E+02 -0.17647424405E+02 -0.43681235711E+03  0.47175792153E+03  0.17459887913E+03 0.  0.
        -24    2    5    5    0    0  0.71169342525E+02  0.28419830827E+02 -0.32469466051E+03  0.34394186887E+03  0.83645827758E+02 0.  0.
          5    1    3    3  501    0  0.47426629271E+01 -0.37536566099E+02 -0.69557712391E+03  0.69662121125E+03  0.47000000000E+01 0. -1.
        -11    1    4    4    0    0 -0.21418162275E+02  0.49240595419E+02 -0.40669033813E+03  0.41021994715E+03  0.00000000000E+00 0.  1.
         12    1    4    4    0    0 -0.14216263561E+02  0.59433950854E+01 -0.85219172312E+01  0.17608213086E+02  0.00000000000E+00 0. -1.
         -5    1    5    5    0  502 -0.40277579616E+02 -0.46067255232E+02 -0.11211769661E+03  0.12781605266E+03  0.47000000000E+01 0.  1.
         13    1    6    6    0    0  0.28250226347E+02  0.55681974840E+02 -0.16985204619E+03  0.18096484522E+03  0.00000000000E+00 0. -1.
        -14    1    6    6    0    0  0.42919116178E+02 -0.27262144012E+02 -0.15484261432E+03  0.16297702365E+03  0.00000000000E+00 0.  1.
</event>
<event>
12    1  0.8417180E-002  0.2167209E+03  0.7818608E-02  0.1137730E+00
         21   -1    0    0  501  502  0.00000000000E+00  0.00000000000E+00  0.93422221991E+02  0.93422221991E+02  0.00000000000E+00 0.  1.
         21   -1    0    0  502  503 -0.00000000000E+00 -0.00000000000E+00 -0.86836327189E+03  0.86836327189E+03  0.00000000000E+00 0.  1.
         -6    2    1    2    0  503 -0.12102709271E+03 -0.78050778179E+01 -0.71002884783E+03  0.74236709020E+03  0.17960917419E+03 0.  0.
        -24    2    3    3    0    0 -0.10504315965E+03  0.60451808375E+02 -0.44282837086E+03  0.46608340715E+03  0.80301244416E+02 0.  0.
          6    2    1    2  501    0  0.12102709271E+03  0.78050778179E+01 -0.64912202069E+02  0.21941840368E+03  0.17094550444E+03 0.  0.
         24    2    5    5    0    0  0.15171458513E+03 -0.13085949345E+02 -0.48483218115E+02  0.17855082826E+03  0.79631767676E+02 0.  0.
          5    1    5    5  501    0 -0.30687492419E+02  0.20891027163E+02 -0.16428983954E+02  0.40867575419E+02  0.47000000000E+01 0. -1.
        -11    1    6    6    0    0  0.99128331898E+02  0.28598691106E+02 -0.17521531995E+02  0.10464853272E+03  0.00000000000E+00 0.  1.
         12    1    6    6    0    0  0.52586253229E+02 -0.41684640451E+02 -0.30961686119E+02  0.73902295536E+02  0.00000000000E+00 0. -1.
         -5    1    3    3    0  503 -0.15983933057E+02 -0.68256886193E+02 -0.26720047697E+03  0.27628368305E+03  0.47000000000E+01 0. -1.
         13    1    4    4    0    0  0.35002194136E+01  0.32461736473E+02 -0.11926243861E+03  0.12365090025E+03  0.00000000000E+00 0. -1.
        -14    1    4    4    0    0 -0.10854337906E+03  0.27990071902E+02 -0.32356593226E+03  0.34243250690E+03  0.00000000000E+00 0.  1.
</event>
<event>
12    1  0.8417180E-002  0.1882965E+03  0.7818608E-02  0.1160121E+00
         21   -1    0    0  501  502  0.00000000000E+00  0.00000000000E+00  0.89336331398E+03  0.89336331398E+03  0.00000000000E+00 0. -1.
         21   -1    0    0  502  503 -0.00000000000E+00 -0.00000000000E+00 -0.53082336745E+02  0.53082336745E+02  0.00000000000E+00 0. -1.
         -6    2    1    2    0  503 -0.43765588285E+02 -0.63943612845E+02  0.18108066314E+03  0.26087974610E+03  0.17106672095E+03 0.  0.
        -24    2    3    3    0    0 -0.66358920617E+02 -0.62937795019E+02  0.55523715569E+02  0.13321570488E+03  0.79365412173E+02 0.  0.
          6    2    1    2  501    0  0.43765588285E+02  0.63943612845E+02  0.65920031409E+03  0.68556590462E+03  0.17161393634E+03 0.  0.
         24    2    5    5    0    0  0.92037637611E+02  0.47555303470E+02  0.42535260078E+03  0.44618000184E+03  0.86135506202E+02 0.  0.
          5    1    5    5  501    0 -0.48272049326E+02  0.16388309375E+02  0.23384771331E+03  0.23938590278E+03  0.47000000000E+01 0. -1.
        -13    1    6    6    0    0  0.26194594070E+02 -0.20067012544E+02  0.18575016985E+03  0.18865833496E+03  0.00000000000E+00 0.  1.
         14    1    6    6    0    0  0.65843043542E+02  0.67622316014E+02  0.23960243093E+03  0.25752166688E+03  0.00000000000E+00 0. -1.
         -5    1    3    3    0  503  0.22593332332E+02 -0.10058178264E+01  0.12555694757E+03  0.12766404121E+03  0.47000000000E+01 0.  1.
         11    1    4    4    0    0  0.10522950083E+02 -0.39164042302E+02  0.16533747027E+02  0.43794057572E+02  0.00000000000E+00 0. -1.
        -12    1    4    4    0    0 -0.76881870701E+02 -0.23773752716E+02  0.38989968542E+02  0.89421647310E+02  0.00000000000E+00 0.  1.
</event>
<event>
12    1  0.8417180E-002  0.1803028E+03  0.7818608E-02  0.1167934E+00
         21   -1    0    0  501  502  0.00000000000E+00  0.00000000000E+00  0.25571322615E+03  0.25571322615E+03  0.00000000000E+00 0.  1.
         21   -1    0    0  502  503 -0.00000000000E+00 -0.00000000000E+00 -0.13796566008E+03  0.13796566008E+03  0.00000000000E+00 0.  1.
         -6    2    1    2    0  503 -0.43108564755E+02 -0.21857080764E+02  0.11733515008E+03  0.21512004677E+03  0.17370381903E+03 0.  0.
        -24    2    3    3    0    0 -0.26424203064E+02 -0.81868682267E+02  0.86089258321E+02  0.14527624968E+03  0.79329116219E+02 0.  0.
          6    2    1    2  501    0  0.43108564755E+02  0.21857080764E+02  0.41241599248E+00  0.17855883945E+03  0.17189243359E+03 0.  0.
         24    2    5    5    0    0  0.80119839460E+02 -0.10290802984E+02 -0.33899466760E+02  0.11853620886E+03  0.79853426127E+02 0.  0.
          5    1    5    5  501    0 -0.37011274704E+02  0.32147883747E+02  0.34311882752E+02  0.60022630588E+02  0.47000000000E+01 0. -1.
        -11    1    6    6    0    0  0.18368559286E+02  0.32608165496E+02 -0.18650269664E+02  0.41815415648E+02  0.00000000000E+00 0.  1.
         12    1    6    6    0    0  0.61751280173E+02 -0.42898968480E+02 -0.15249197096E+02  0.76720793216E+02  0.00000000000E+00 0. -1.
         -5    1    3    3    0  503 -0.16684361691E+02  0.60011601503E+02  0.31245891756E+02  0.69843797088E+02  0.47000000000E+01 0.  1.
         13    1    4    4    0    0  0.40300748967E+01  0.10862306969E+02  0.31234426766E+02  0.33313970519E+02  0.00000000000E+00 0. -1.
        -14    1    4    4    0    0 -0.30454277961E+02 -0.92730989235E+02  0.54854831555E+02  0.11196227916E+03  0.00000000000E+00 0.  1.
</event>
<event>
12    1  0.8417180E-002  0.2034418E+03  0.7818608E-02  0.1148164E+00
         21   -1    0    0  503  502  0.00000000000E+00  0.00000000000E+00  0.29286712702E+03  0.29286712702E+03  0.00000000000E+00 0.  1.
         21   -1    0    0  501  503 -0.00000000000E+00 -0.00000000000E+00 -0.13756230634E+03  0.13756230634E+03  0.00000000000E+00 0.  1.
          6    2    1    2  501    0  0.10606802272E+03 -0.26356912458E+02  0.63438416950E+02  0.20720759033E+03  0.16421157226E+03 0.  0.
         24    2    3    3    0    0  0.13195451781E+03 -0.45675675478E+02  0.36437114862E+02  0.16484622176E+03  0.79676542272E+02 0.  0.
         -6    2    1    2    0  502 -0.10606802272E+03  0.26356912458E+02  0.91866403729E+02  0.22322184304E+03  0.17159091699E+03 0.  0.
        -24    2    5    5    0    0 -0.26685402635E+01  0.53586352237E+02  0.42356664042E+02  0.10529729221E+03  0.80092537134E+02 0.  0.
          5    1    3    3  501    0 -0.25886495086E+02  0.19318763019E+02  0.27001302088E+02  0.42361368567E+02  0.47000000000E+01 0. -1.
        -11    1    4    4    0    0  0.19752216442E+02 -0.40013846817E+02  0.26883043456E+02  0.52095642975E+02  0.00000000000E+00 0.  1.
         12    1    4    4    0    0  0.11220230137E+03 -0.56618286606E+01  0.95540714063E+01  0.11275057879E+03  0.00000000000E+00 0. -1.
         -5    1    5    5    0  502 -0.10339948246E+03 -0.27229439778E+02  0.49509739687E+02  0.11792455083E+03  0.47000000000E+01 0.  1.
         13    1    6    6    0    0  0.13407963281E+02  0.16242752261E+02  0.58022161513E+02  0.61726588331E+02  0.00000000000E+00 0. -1.
        -14    1    6    6    0    0 -0.16076503545E+02  0.37343599975E+02 -0.15665497471E+02  0.43570703877E+02  0.00000000000E+00 0.  1.
</event>
<event>
12    1  0.8417180E-002  0.3668512E+03  0.7818608E-02  0.1055972E+00
         21   -1    0    0  501  502  0.00000000000E+00  0.00000000000E+00  0.72434179851E+03  0.72434179851E+03  0.00000000000E+00 0. -1.
         21   -1    0    0  502  503 -0.00000000000E+00 -0.00000000000E+00 -0.21837956695E+03  0.21837956695E+03  0.00000000000E+00 0.  1.
         -6    2    1    2    0  503  0.13211516928E+03  0.29535921515E+03  0.43625910841E+03  0.57000161106E+03  0.17288245433E+03 0.  0.
        -24    2    3    3    0    0  0.11988130177E+03  0.26821253500E+03  0.44489126403E+03  0.53864536978E+03  0.76818663878E+02 0.  0.
          6    2    1    2  501    0 -0.13211516928E+03 -0.29535921515E+03  0.69703123147E+02  0.37271975440E+03  0.17137679545E+03 0.  0.
         24    2    5    5    0    0 -0.90963245768E+02 -0.15285380210E+03 -0.24688843850E+02  0.19684136747E+03  0.80612579909E+02 0.  0.
          5    1    5    5  501    0 -0.41151923515E+02 -0.14250541305E+03  0.94391966998E+02  0.17587838693E+03  0.47000000000E+01 0. -1.
        -13    1    6    6    0    0 -0.86130295154E+02 -0.16147020191E+03 -0.16033065995E+02  0.18370659502E+03  0.00000000000E+00 0.  1.
         14    1    6    6    0    0 -0.48329506134E+01  0.86163998032E+01 -0.86557778550E+01  0.13134772456E+02  0.00000000000E+00 0. -1.
         -5    1    3    3    0  503  0.12233867509E+02  0.27146680145E+02 -0.86321556198E+01  0.31356241289E+02  0.47000000000E+01 0.  1.
         13    1    4    4    0    0  0.67573760502E+02  0.21827772271E+03  0.36734279781E+03  0.43261080482E+03  0.00000000000E+00 0. -1.
        -14    1    4    4    0    0  0.52307541273E+02  0.49934812289E+02  0.77548466218E+02  0.10603456495E+03  0.00000000000E+00 0.  1.
</event>
<event>
12    1  0.8417180E-002  0.2034052E+03  0.7818608E-02  0.1146965E+00
         21   -1    0    0  503  502  0.00000000000E+00  0.00000000000E+00  0.11258466575E+03  0.11258466575E+03  0.00000000000E+00 0.  1.
         21   -1    0    0  501  503 -0.00000000000E+00 -0.00000000000E+00 -0.69125080303E+03  0.69125080303E+03  0.00000000000E+00 0.  1.
          6    2    1    2  501    0  0.51892814266E+00  0.10834365677E+03 -0.56477183531E+03  0.60028401095E+03  0.17214833893E+03 0.  0.
         24    2    3    3    0    0  0.21094011411E+02  0.22162394620E+02 -0.43395186464E+03  0.44221282849E+03  0.79384103005E+02 0.  0.
         -6    2    1    2    0  502 -0.51892814266E+00 -0.10834365677E+03 -0.13894301971E+02  0.20355145784E+03  0.17176008591E+03 0.  0.
        -24    2    5    5    0    0 -0.52296225510E+02 -0.84996976064E+02  0.31128773486E+02  0.13092141346E+03  0.78816462879E+02 0.  0.
          5    1    3    3  501    0 -0.20575083268E+02  0.86181262146E+02 -0.13081997067E+03  0.15807118246E+03  0.47000000000E+01 0. -1.
        -13    1    4    4    0    0  0.12650438901E+02  0.23369309489E+02 -0.39138244337E+02  0.47307086152E+02  0.00000000000E+00 0.  1.
         14    1    4    4    0    0  0.84435725093E+01 -0.12069148693E+01 -0.39481362030E+03  0.39490574234E+03  0.00000000000E+00 0. -1.
         -5    1    5    5    0  502  0.51777297368E+02 -0.23346680702E+02 -0.45023075457E+02  0.72630044376E+02  0.47000000000E+01 0.  1.
         11    1    6    6    0    0 -0.63877961230E+02 -0.64093531492E+02  0.47261365938E+02  0.10208825310E+03  0.00000000000E+00 0. -1.
        -12    1    6    6    0    0  0.11581735720E+02 -0.20903444572E+02 -0.16132592452E+02  0.28833160362E+02  0.00000000000E+00 0.  1.
</event>
<event>
12    1  0.8417180E-002  0.2067287E+03  0.7818608E-02  0.1144530E+00
         21   -1    0    0  501  502  0.00000000000E+00  0.00000000000E+00  0.27370633846E+03  0.27370633846E+03  0.00000000000E+00 0.  1.
         21   -1    0    0  502  503 -0.00000000000E+00 -0.00000000000E+00 -0.17926721405E+03  0.17926721405E+03  0.00000000000E+00 0. -1.
         -6    2    1    2    0  503 -0.11445919832E+03 -0.10782951181E+01 -0.36193637530E+02  0.20987314872E+03  0.17214728681E+03 0.  0.
        -24    2    3    3    0    0  0.42536498666E+01  0.26074469698E+02 -0.68443597522E+01  0.84519716112E+02  0.79992284903E+02 0.  0.
          6    2    1    2  501    0  0.11445919832E+03  0.10782951181E+01  0.13063276195E+03  0.24310040379E+03  0.17009061417E+03 0.  0.
         24    2    5    5    0    0  0.15993035903E+02 -0.37436068164E+02  0.21549458210E+02  0.91112909321E+02  0.78612637018E+02 0.  0.
          5    1    5    5  501    0  0.98466162415E+02  0.38514363282E+02  0.10908330374E+03  0.15198749447E+03  0.47000000000E+01 0. -1.
        -13    1    6    6    0    0  0.10524594274E+02  0.13292053473E+02  0.34528121471E+02  0.38466049219E+02  0.00000000000E+00 0.  1.
         14    1    6    6    0    0  0.54684416287E+01 -0.50728121637E+02 -0.12978663261E+02  0.52646860103E+02  0.00000000000E+00 0. -1.
         -5    1    3    3    0  503 -0.11871284818E+03 -0.27152764816E+02 -0.29349277777E+02  0.12535343261E+03  0.47000000000E+01 0.  1.
         13    1    4    4    0    0 -0.23769892341E+02  0.37154679603E+02  0.15771596535E+02  0.46842515470E+02  0.00000000000E+00 0. -1.
        -14    1    4    4    0    0  0.28023542208E+02 -0.11080209906E+02 -0.22615956287E+02  0.37677200642E+02  0.00000000000E+00 0.  1.
</event>
<event>
12    1  0.8417180E-002  0.1911657E+03  0.7818608E-02  0.1157830E+00
         21   -1    0    0  501  502  0.00000000000E+00  0.00000000000E+00  0.33354943770E+02  0.33354943770E+02  0.00000000000E+00 0. -1.
         21   -1    0    0  502  503 -0.00000000000E+00 -0.00000000000E+00 -0.10901686145E+04  0.10901686145E+04  0.00000000000E+00 0. -1.
         -6    2    1    2    0  503  0.11691930071E+02 -0.83696861479E+02 -0.48730833256E+03  0.52279011924E+03  0.16940552513E+03 0.  0.
        -24    2    3    3    0    0 -0.49807475057E+01  0.22362685309E+01 -0.12222552898E+03  0.14733036843E+03  0.82081354671E+02 0.  0.
          6    2    1    2  501    0 -0.11691930071E+02  0.83696861479E+02 -0.56950533819E+03  0.60073343905E+03  0.17147148075E+03 0.  0.
         24    2    5    5    0    0 -0.67599266984E+02  0.75196064353E+02 -0.48154464553E+03  0.49605742782E+03  0.62957263830E+02 0.  0.
          5    1    5    5  501    0  0.55907336913E+02  0.85007971257E+01 -0.87960692660E+02  0.10467601122E+03  0.47000000000E+01 0. -1.
        -13    1    6    6    0    0 -0.29920192658E+02  0.54165315721E+02 -0.15862409854E+03  0.17026656746E+03  0.00000000000E+00 0.  1.
         14    1    6    6    0    0 -0.37679074327E+02  0.21030748632E+02 -0.32292054699E+03  0.32579086037E+03  0.00000000000E+00 0. -1.
         -5    1    3    3    0  503  0.16672677577E+02 -0.85933130010E+02 -0.36508280358E+03  0.37545975081E+03  0.47000000000E+01 0.  1.
         13    1    4    4    0    0 -0.42201381596E+02  0.41997105931E+01 -0.46539269084E+02  0.62964257675E+02  0.00000000000E+00 0. -1.
        -14    1    4    4    0    0  0.37220634091E+02 -0.19634420622E+01 -0.75686259897E+02  0.84366110755E+02  0.00000000000E+00 0.  1.
</event>
<event>
12    1  0.8417180E-002  0.2806644E+03  0.7818608E-02  0.1095339E+00
         21   -1    0    0  501  502  0.00000000000E+00  0.00000000000E+00  0.43507515604E+03  0.43507515604E+03  0.00000000000E+00 0. -1.
         21   -1    0    0  502  503 -0.00000000000E+00 -0.00000000000E+00 -0.30123760286E+03  0.30123760286E+03  0.00000000000E+00 0.  1.
         -6    2    1    2    0  503  0.60621110771E+02  0.21336267589E+03  0.29950969129E+03  0.41039898096E+03  0.17182176192E+03 0.  0.
        -24    2    3    3    0    0 -0.10457984638E+02  0.15691767729E+03  0.24869174501E+03  0.30627007367E+03  0.84977921244E+02 0.  0.
          6    2    1    2  501    0 -0.60621110771E+02 -0.21336267589E+03 -0.16567213811E+03  0.32591377794E+03  0.17197087769E+03 0.  0.
         24    2    5    5    0    0 -0.87495723944E+02 -0.17332632778E+03 -0.17938217578E+03  0.27556291761E+03  0.77842398252E+02 0.  0.
          5    1    5    5  501    0  0.26874613173E+02 -0.40036348107E+02  0.13710037669E+02  0.50350860329E+02  0.47000000000E+01 0. -1.
        -13    1    6    6    0    0 -0.36873332072E+02 -0.13654076724E+03 -0.15087175266E+03  0.20679775019E+03  0.00000000000E+00 0.  1.
         14    1    6    6    0    0 -0.50622391873E+02 -0.36785560546E+02 -0.28510423119E+02  0.68765167418E+02  0.00000000000E+00 0. -1.
         -5    1    3    3    0  503  0.71079095409E+02  0.56444998599E+02  0.50817946274E+02  0.10412890730E+03  0.47000000000E+01 0.  1.
         11    1    4    4    0    0  0.37452252697E+02  0.65670567939E+02  0.10028736055E+03  0.12559000522E+03  0.00000000000E+00 0. -1.
        -12    1    4    4    0    0 -0.47910237334E+02  0.91247109352E+02  0.14840438446E+03  0.18068006845E+03  0.00000000000E+00 0.  1.
</event>
<event>
12    1  0.8417180E-002  0.2794939E+03  0.7818608E-02  0.1096125E+00
         21   -1    0    0  501  502  0.00000000000E+00  0.00000000000E+00  0.10020885276E+04  0.10020885276E+04  0.00000000000E+00 0. -1.
         21   -1    0    0  502  503 -0.00000000000E+00 -0.00000000000E+00 -0.15708866835E+03  0.15708866835E+03  0.00000000000E+00 0. -1.
         -6    2    1    2    0  503  0.51531694363E+02  0.21366402360E+03  0.98567795619E+01  0.27850653326E+03  0.17076563606E+03 0.  0.
        -24    2    3    3    0    0  0.55863445369E+02  0.13598736918E+03 -0.56118404120E+02  0.17639266755E+03  0.79698235733E+02 0.  0.
          6    2    1    2  501    0 -0.51531694363E+02 -0.21366402360E+03  0.83514307972E+03  0.88067066272E+03  0.17265289475E+03 0.  0.
         24    2    5    5    0    0  0.25394170567E+02 -0.13544990877E+03  0.36960986039E+03  0.40236291163E+03  0.79327940039E+02 0.  0.
          5    1    5    5  501    0 -0.76925864929E+02 -0.78214114826E+02  0.46553321933E+03  0.47830775109E+03  0.47000000000E+01 0. -1.
        -11    1    6    6    0    0  0.28533090468E+02 -0.74643830873E+02  0.11156401398E+03  0.13723107503E+03  0.00000000000E+00 0.  1.
         12    1    6    6    0    0 -0.31389199013E+01 -0.60806077901E+02  0.25804584641E+03  0.26513183659E+03  0.00000000000E+00 0. -1.
         -5    1    3    3    0  503 -0.43317510063E+01  0.77676654416E+02  0.65975183682E+02  0.10211386571E+03  0.47000000000E+01 0.  1.
         11    1    4    4    0    0 -0.12148664107E+02  0.54462457667E+02  0.10482182772E+01  0.55810824185E+02  0.00000000000E+00 0. -1.
        -12    1    4    4    0    0  0.68012109476E+02  0.81524911518E+02 -0.57166622398E+02  0.12058184337E+03  0.00000000000E+00 0.  1.
</event>
<event>
12    1  0.8417180E-002  0.1816837E+03  0.7818608E-02  0.1167125E+00
         21   -1    0    0  503  502  0.00000000000E+00  0.00000000000E+00  0.22226599891E+03  0.22226599891E+03  0.00000000000E+00 0. -1.
         21   -1    0    0  501  503 -0.00000000000E+00 -0.00000000000E+00 -0.18855235647E+03  0.18855235647E+03  0.00000000000E+00 0. -1.
          6    2    1    2  501    0 -0.44065074187E+02 -0.21576508002E+02 -0.81325833641E+02  0.19905494233E+03  0.17493342273E+03 0.  0.
         24    2    3    3    0    0 -0.71045113288E+02  0.33614248182E+02 -0.22780270637E+02  0.11406308963E+03  0.79461449029E+02 0.  0.
         -6    2    1    2    0  502  0.44065074187E+02  0.21576508002E+02  0.11503947608E+03  0.21176341306E+03  0.17088705508E+03 0.  0.
        -24    2    5    5    0    0 -0.10855271765E+01 -0.35021673912E+01  0.13177474742E+03  0.15726867872E+03  0.85763685225E+02 0.  0.
          5    1    3    3  501    0  0.26980039101E+02 -0.55190756183E+02 -0.58545563005E+02  0.84991852701E+02  0.47000000000E+01 0. -1.
        -13    1    4    4    0    0 -0.13647839378E+02  0.48211353688E+02  0.13191671746E+01  0.50123231601E+02  0.00000000000E+00 0.  1.
         14    1    4    4    0    0 -0.57397273909E+02 -0.14597105506E+02 -0.24099437811E+02  0.63939858024E+02  0.00000000000E+00 0. -1.
         -5    1    5    5    0  502  0.45150601363E+02  0.25078675393E+02 -0.16735271347E+02  0.54494734333E+02  0.47000000000E+01 0.  1.
         11    1    6    6    0    0  0.25109147087E+02 -0.23298143489E+02  0.11579130624E+03  0.12075139485E+03  0.00000000000E+00 0. -1.
        -12    1    6    6    0    0 -0.26194674264E+02  0.19795976098E+02  0.15983441184E+02  0.36517283874E+02  0.00000000000E+00 0.  1.
</event>
<event>
12    1  0.8417180E-002  0.2245979E+03  0.7818608E-02  0.1131235E+00
         21   -1    0    0  503  502  0.00000000000E+00  0.00000000000E+00  0.40981849688E+03  0.40981849688E+03  0.00000000000E+00 0.  1.
         21   -1    0    0  501  503 -0.00000000000E+00 -0.00000000000E+00 -0.14555162273E+03  0.14555162273E+03  0.00000000000E+00 0. -1.
          6    2    1    2  501    0 -0.12835864389E+03  0.52610248129E+02  0.18853607724E+02  0.22538784420E+03  0.17663646883E+03 0.  0.
         24    2    3    3    0    0 -0.13812301424E+03  0.73370391629E+02  0.52299050041E+02  0.18455876023E+03  0.82858698471E+02 0.  0.
         -6    2    1    2    0  502  0.12835864389E+03 -0.52610248129E+02  0.24541326643E+03  0.32998227540E+03  0.17151341367E+03 0.  0.
        -24    2    5    5    0    0  0.19926290013E+02  0.18605031893E+02  0.96779669048E+02  0.13264188991E+03  0.86512209381E+02 0.  0.
          5    1    3    3  501    0  0.97643703472E+01 -0.20760143500E+02 -0.33445442317E+02  0.40829083975E+02  0.47000000000E+01 0. -1.
        -13    1    4    4    0    0 -0.10295497094E+03  0.26032252853E+02  0.64623815520E+02  0.12431267740E+03  0.00000000000E+00 0.  1.
         14    1    4    4    0    0 -0.35168043296E+02  0.47338138776E+02 -0.12324765479E+02  0.60246082828E+02  0.00000000000E+00 0. -1.
         -5    1    5    5    0  502  0.10843235388E+03 -0.71215280022E+02  0.14863359738E+03  0.19734038549E+03  0.47000000000E+01 0.  1.
         13    1    6    6    0    0  0.30280927312E+02  0.21958007326E+02  0.10961032057E+03  0.11581671305E+03  0.00000000000E+00 0. -1.
        -14    1    6    6    0    0 -0.10354637298E+02 -0.33529754334E+01 -0.12830651526E+02  0.16825176862E+02  0.00000000000E+00 0.  1.
</event>
<event>
12    1  0.8417180E-002  0.1944590E+03  0.7818608E-02  0.1154575E+00
         21   -1    0    0  503  502  0.00000000000E+00  0.00000000000E+00  0.10957575526E+03  0.10957575526E+03  0.00000000000E+00 0.  1.
         21   -1    0    0  501  503 -0.00000000000E+00 -0.00000000000E+00 -0.39253951962E+03  0.39253951962E+03  0.00000000000E+00 0.  1.
          6    2    1    2  501    0  0.33578470657E+02  0.84150304913E+02 -0.22942465289E+03  0.30074901831E+03  0.17206252686E+03 0.  0.
         24    2    3    3    0    0 -0.19023534208E+02  0.10550375538E+03 -0.13666592222E+03  0.19189492845E+03  0.81566856123E+02 0.  0.
         -6    2    1    2    0  502 -0.33578470657E+02 -0.84150304913E+02 -0.53539111461E+02  0.20136625657E+03  0.17167744558E+03 0.  0.
        -24    2    5    5    0    0 -0.39774490991E+02 -0.12011824178E+03 -0.64903513590E+02  0.16285232681E+03  0.79360015932E+02 0.  0.
          5    1    3    3  501    0  0.52602004865E+02 -0.21353450463E+02 -0.92758730673E+02  0.10885408986E+03  0.47000000000E+01 0. -1.
        -11    1    4    4    0    0 -0.20696241487E+02  0.32086149008E+01 -0.61426180710E+02  0.64898422923E+02  0.00000000000E+00 0.  1.
         12    1    4    4    0    0  0.16727072789E+01  0.10229514048E+03 -0.75239741508E+02  0.12699650553E+03  0.00000000000E+00 0. -1.
         -5    1    5    5    0  502  0.61960203343E+01  0.35967936864E+02  0.11364402129E+02  0.38513929765E+02  0.47000000000E+01 0.  1.
         13    1    6    6    0    0  0.87542260261E+01  0.59734622863E+01  0.38262224872E+01  0.11267595286E+02  0.00000000000E+00 0. -1.
        -14    1    6    6    0    0 -0.48528717017E+02 -0.12609170406E+03 -0.68729736077E+02  0.15158473152E+03  0.00000000000E+00 0.  1.
</event>
<event>
12    1  0.8417180E-002  0.1849502E+03  0.7818608E-02  0.1163971E+00
         21   -1    0    0  501  502  0.00000000000E+00  0.00000000000E+00  0.18807187188E+03  0.18807187188E+03  0.00000000000E+00 0. -1.
         21   -1    0    0  502  503 -0.00000000000E+00 -0.00000000000E+00 -0.39913255647E+03  0.39913255647E+03  0.00000000000E+00 0. -1.
         -6    2    1    2    0  503  0.47227060027E+02 -0.38778194565E+02 -0.32441499154E+03  0.37343227073E+03  0.17456354291E+03 0.  0.
        -24    2    3    3    0    0 -0.64278030054E+01 -0.56256319185E+02 -0.90913656688E+02  0.13316306224E+03  0.79126595240E+02 0.  0.
          6    2    1    2  501    0 -0.47227060027E+02  0.38778194565E+02  0.11335430695E+03  0.21377215762E+03  0.17063174645E+03 0.  0.
         24    2    5    5    0    0  0.25977131758E+02  0.15837807517E+02  0.12321011435E+02  0.86827556094E+02  0.80383889264E+02 0.  0.
          5    1    5    5  501    0 -0.73204191784E+02  0.22940387048E+02  0.10103329552E+03  0.12694460152E+03  0.47000000000E+01 0. -1.
        -11    1    6    6    0    0 -0.18594351203E+00  0.77755668485E+01 -0.32986484339E+02  0.33891033679E+02  0.00000000000E+00 0.  1.
         12    1    6    6    0    0  0.26163075270E+02  0.80622406683E+01  0.45307495773E+02  0.52936522415E+02  0.00000000000E+00 0. -1.
         -5    1    3    3    0  503  0.53654863032E+02  0.17478124620E+02 -0.23350133485E+03  0.24026920848E+03  0.47000000000E+01 0.  1.
         13    1    4    4    0    0  0.29256161548E+02 -0.17125238151E+01 -0.14406677464E+02  0.32655904243E+02  0.00000000000E+00 0. -1.
        -14    1    4    4    0    0 -0.35683964554E+02 -0.54543795369E+02 -0.76506979224E+02  0.10050715800E+03  0.00000000000E+00 0.  1.
</event>
<event>
12    1  0.8417180E-002  0.2609188E+03  0.7818608E-02  0.1108178E+00
         21   -1    0    0  501  502  0.00000000000E+00  0.00000000000E+00  0.24887395618E+03  0.24887395618E+03  0.00000000000E+00 0. -1.
         21   -1    0    0  502  503 -0.00000000000E+00 -0.00000000000E+00 -0.30063226736E+03  0.30063226736E+03  0.00000000000E+00 0.  1.
         -6    2    1    2    0  503 -0.70271320100E+02 -0.18214194006E+03 -0.12290239289E+03  0.27906198013E+03  0.15702498469E+03 0.  0.
        -24    2    3    3    0    0  0.19888757680E+02 -0.10237422849E+03 -0.48982914005E+02  0.13771875676E+03  0.75439278610E+02 0.  0.
          6    2    1    2  501    0  0.70271320100E+02  0.18214194006E+03  0.71144081714E+02  0.27044424340E+03  0.17310362119E+03 0.  0.
         24    2    5    5    0    0  0.16119050497E+02  0.17054742088E+03  0.12347785395E+02  0.18953691593E+03  0.80159392076E+02 0.  0.
          5    1    5    5  501    0  0.54152269604E+02  0.11594519180E+02  0.58796296319E+02  0.80907327475E+02  0.47000000000E+01 0. -1.
        -11    1    6    6    0    0  0.52795542337E+01  0.11804787519E+03 -0.29192971681E+02  0.12171854470E+03  0.00000000000E+00 0.  1.
         12    1    6    6    0    0  0.10839496263E+02  0.52499545691E+02  0.41540757076E+02  0.67818371224E+02  0.00000000000E+00 0. -1.
         -5    1    3    3    0  503 -0.90160077780E+02 -0.79767711568E+02 -0.73919478888E+02  0.14134322337E+03  0.47000000000E+01 0.  1.
         11    1    4    4    0    0  0.52210943787E+01 -0.29892568555E+02  0.20198497709E+02  0.36452774806E+02  0.00000000000E+00 0. -1.
        -12    1    4    4    0    0  0.14667663301E+02 -0.72481659935E+02 -0.69181411715E+02  0.10126598195E+03  0.00000000000E+00 0.  1.
</event>
<event>
12    1  0.8417180E-002  0.2222682E+03  0.7818608E-02  0.1132578E+00
         21   -1    0    0  503  502  0.00000000000E+00  0.00000000000E+00  0.10234187263E+03  0.10234187263E+03  0.00000000000E+00 0.  1.
         21   -1    0    0  501  503 -0.00000000000E+00 -0.00000000000E+00 -0.66719969521E+03  0.66719969521E+03  0.00000000000E+00 0. -1.
          6    2    1    2  501    0  0.27860105995E+02  0.13628280424E+03 -0.48621647167E+03  0.53377131742E+03  0.17075178983E+03 0.  0.
         24    2    3    3    0    0  0.15088025994E+02  0.16077605763E+03 -0.34096289605E+03  0.38583979029E+03  0.80870625366E+02 0.  0.
         -6    2    1    2    0  502 -0.27860105995E+02 -0.13628280424E+03 -0.78641350909E+02  0.23577025042E+03  0.17336078181E+03 0.  0.
        -24    2    5    5    0    0 -0.77619163881E+02 -0.90235884187E+02 -0.87356234400E+02  0.16725512886E+03  0.78587003021E+02 0.  0.
          5    1    3    3  501    0  0.12772080001E+02 -0.24493253384E+02 -0.14525357562E+03  0.14793152713E+03  0.47000000000E+01 0. -1.
        -13    1    4    4    0    0 -0.18893354271E+02  0.13462929164E+03 -0.28060251416E+03  0.31180085945E+03  0.00000000000E+00 0.  1.
         14    1    4    4    0    0  0.33981380265E+02  0.26146765987E+02 -0.60360381899E+02  0.74038930836E+02  0.00000000000E+00 0. -1.
         -5    1    5    5    0  502  0.49759057886E+02 -0.46046920057E+02  0.87148834906E+01  0.68515121562E+02  0.47000000000E+01 0.  1.
         13    1    6    6    0    0 -0.36734333029E+02 -0.77361518740E+02 -0.90095518099E+02  0.12430373360E+03  0.00000000000E+00 0. -1.
        -14    1    6    6    0    0 -0.40884830852E+02 -0.12874365446E+02  0.27392836996E+01  0.42951395258E+02  0.00000000000E+00 0.  1.
</event>
<event>
12    1  0.8417180E-002  0.1827679E+03  0.7818608E-02  0.1165333E+00
         21   -1    0    0  501  502  0.00000000000E+00  0.00000000000E+00  0.35684278627E+03  0.35684278627E+03  0.00000000000E+00 0.  1.
         21   -1    0    0  502  503 -0.00000000000E+00 -0.00000000000E+00 -0.98687180544E+02  0.98687180544E+02  0.00000000000E+00 0.  1.
         -6    2    1    2    0  503 -0.47764870229E+02  0.36598051785E+02  0.75712527491E+02  0.19782944446E+03  0.17257810421E+03 0.  0.
        -24    2    3    3    0    0 -0.56317470115E+01 -0.32384345173E+02  0.91358756121E+02  0.11536329606E+03  0.62304136060E+02 0.  0.
          6    2    1    2  501    0  0.47764870229E+02 -0.36598051785E+02  0.18244307823E+03  0.25770052235E+03  0.17176490388E+03 0.  0.
         24    2    5    5    0    0  0.59797029515E+02 -0.66245987857E+02  0.64918784330E+02  0.13580785388E+03  0.79152441342E+02 0.  0.
          5    1    5    5  501    0 -0.12032159286E+02  0.29647936072E+02  0.11752429390E+03  0.12189266847E+03  0.47000000000E+01 0. -1.
        -11    1    6    6    0    0  0.50190884145E+02 -0.84712353278E+02  0.54125189223E+02  0.11236033000E+03  0.00000000000E+00 0.  1.
         12    1    6    6    0    0  0.96061453701E+01  0.18466365421E+02  0.10793595107E+02  0.23447523880E+02  0.00000000000E+00 0. -1.
         -5    1    3    3    0  503 -0.42133123217E+02  0.68982396958E+02 -0.15646228629E+02  0.82466148403E+02  0.47000000000E+01 0.  1.
         13    1    4    4    0    0  0.23227708324E+02  0.29474425594E+01  0.42462174380E+02  0.48489690705E+02  0.00000000000E+00 0. -1.
        -14    1    4    4    0    0 -0.28859455335E+02 -0.35331787733E+02  0.48896581741E+02  0.66873605350E+02  0.00000000000E+00 0.  1.
</event>
<event>
12    1  0.8417180E-002  0.2441261E+03  0.7818608E-02  0.1117449E+00
         21   -1    0    0  501  502  0.00000000000E+00  0.00000000000E+00  0.88233637001E+03  0.88233637001E+03  0.00000000000E+00 0.  1.
         21   -1    0    0  502  503 -0.00000000000E+00 -0.00000000000E+00 -0.70277736374E+02  0.70277736374E+02  0.00000000000E+00 0.  1.
         -6    2    1    2    0  503  0.17297913345E+02 -0.16896887668E+03  0.30363858994E+03  0.38960742329E+03  0.17535065408E+03 0.  0.
        -24    2    3    3    0    0 -0.32312290386E+02 -0.32884063901E+02  0.16670467707E+03  0.19022528999E+03  0.79181852888E+02 0.  0.
          6    2    1    2  501    0 -0.17297913345E+02  0.16896887668E+03  0.50842004370E+03  0.56300668310E+03  0.17215076325E+03 0.  0.
         24    2    5    5    0    0 -0.74340972314E+01  0.25816804133E+02  0.29110260154E+03  0.30254791206E+03  0.77927795384E+02 0.  0.
          5    1    5    5  501    0 -0.98638161136E+01  0.14315207255E+03  0.21731744216E+03  0.26045877104E+03  0.47000000000E+01 0. -1.
        -11    1    6    6    0    0 -0.10857032470E+02  0.24011003864E+02  0.29550996855E+03  0.29668256601E+03  0.00000000000E+00 0.  1.
         12    1    6    6    0    0  0.34229352382E+01  0.18058002695E+01 -0.44073670166E+01  0.58653460492E+01  0.00000000000E+00 0. -1.
         -5    1    3    3    0  503  0.49610203731E+02 -0.13608481278E+03  0.13693391287E+03  0.19938213330E+03  0.47000000000E+01 0.  1.
         13    1    4    4    0    0  0.23195626091E+02  0.14326791128E+01  0.68321596763E+02  0.72165990768E+02  0.00000000000E+00 0. -1.
        -14    1    4    4    0    0 -0.55507916477E+02 -0.34316743014E+02  0.98383080305E+02  0.11805929922E+03  0.00000000000E+00 0.  1.
</event>
<event>
12    1  0.8417180E-002  0.1883908E+03  0.7818608E-02  0.1160463E+00
         21   -1    0    0  503  502  0.00000000000E+00  0.00000000000E+00  0.22298280490E+03  0.22298280490E+03  0.00000000000E+00 0. -1.
         21   -1    0    0  501  503 -0.00000000000E+00 -0.00000000000E+00 -0.27137220760E+03  0.27137220760E+03  0.00000000000E+00 0. -1.
          6    2    1    2  501    0 -0.62095905025E+02 -0.37779906643E+02 -0.18444798866E+03  0.26196951899E+03  0.17124177526E+03 0.  0.
         24    2    3    3    0    0 -0.83634817150E+02 -0.36155547575E+02 -0.59040908108E+02  0.13462907321E+03  0.79606232570E+02 0.  0.
         -6    2    1    2    0  502  0.62095905025E+02  0.37779906643E+02  0.13605858596E+03  0.23238549350E+03  0.17380407362E+03 0.  0.
        -24    2    5    5    0    0  0.10036993397E+03 -0.40287249773E+01  0.74347327034E+02  0.14846152524E+03  0.80143279014E+02 0.  0.
          5    1    3    3  501    0  0.21538912124E+02 -0.16243590677E+01 -0.12540708056E+03  0.12734044578E+03  0.47000000000E+01 0. -1.
        -11    1    4    4    0    0 -0.36207972825E+02  0.12319568725E+01  0.14888304565E+02  0.39168822125E+02  0.00000000000E+00 0.  1.
         12    1    4    4    0    0 -0.47426844324E+02 -0.37387504448E+02 -0.73929212673E+02  0.95460251088E+02  0.00000000000E+00 0. -1.
         -5    1    5    5    0  502 -0.38274028940E+02  0.41808631620E+02  0.61711258929E+02  0.83923968256E+02  0.47000000000E+01 0.  1.
         11    1    6    6    0    0  0.80105610221E+02  0.24411935697E+02  0.76566841349E+02  0.11346952273E+03  0.00000000000E+00 0. -1.
        -12    1    6    6    0    0  0.20264323744E+02 -0.28440660674E+02 -0.22195143152E+01  0.34992002517E+02  0.00000000000E+00 0.  1.
</event>
<event>
12    1  0.8417180E-002  0.1749615E+03  0.7818608E-02  0.1173097E+00
         21   -1    0    0  501  502  0.00000000000E+00  0.00000000000E+00  0.24504628650E+03  0.24504628650E+03  0.00000000000E+00 0. -1.
         21   -1    0    0  502  503 -0.00000000000E+00 -0.00000000000E+00 -0.25655295233E+03  0.25655295233E+03  0.00000000000E+00 0. -1.
         -6    2    1    2    0  503  0.34401707570E+02  0.15753225677E+02 -0.18603885752E+03  0.25538595632E+03  0.17082121816E+03 0.  0.
        -24    2    3    3    0    0 -0.41148128974E+02  0.11609154278E+02 -0.61319614351E+02  0.10943414665E+03  0.79923690902E+02 0.  0.
          6    2    1    2  501    0 -0.34401707570E+02 -0.15753225677E+02  0.17453219169E+03  0.24621328252E+03  0.16949292891E+03 0.  0.
         24    2    5    5    0    0  0.26428950912E+02  0.10028618810E+02  0.15379134668E+03  0.17680618513E+03  0.82520216577E+02 0.  0.
          5    1    5    5  501    0 -0.60830658482E+02 -0.25781844487E+02  0.20740845006E+02  0.69407097389E+02  0.47000000000E+01 0. -1.
        -11    1    6    6    0    0  0.30588814025E+02  0.10865716933E+02  0.11479894857E+02  0.34431487535E+02  0.00000000000E+00 0.  1.
         12    1    6    6    0    0 -0.41598631137E+01 -0.83709812305E+00  0.14231145182E+03  0.14237469759E+03  0.00000000000E+00 0. -1.
         -5    1    3    3    0  503  0.75549836544E+02  0.41440713993E+01 -0.12471924317E+03  0.14595180967E+03  0.47000000000E+01 0.  1.
         11    1    4    4    0    0  0.48595973493E+01  0.21325523884E+02 -0.58353756997E+02  0.62318172397E+02  0.00000000000E+00 0. -1.
        -12    1    4    4    0    0 -0.46007726323E+02 -0.97163696055E+01 -0.29658573542E+01  0.47115974251E+02  0.00000000000E+00 0.  1.
</event>
<event>
12    1  0.8417180E-002  0.2099544E+03  0.7818608E-02  0.1142390E+00
         21   -1    0    0  501  502  0.00000000000E+00  0.00000000000E+00  0.79207051747E+02  0.79207051747E+02  0.00000000000E+00 0.  1.
         21   -1    0    0  502  503 -0.00000000000E+00 -0.00000000000E+00 -0.20559524569E+04  0.20559524569E+04  0.00000000000E+00 0. -1.
         -6    2    1    2    0  503 -0.40950697823E+02  0.11388605347E+03 -0.19057077628E+04  0.19172383646E+04  0.17156304060E+03 0.  0.
        -24    2    3    3    0    0  0.29525951540E+02  0.10920575104E+03 -0.12116755522E+04  0.12196054650E+04  0.80511915802E+02 0.  0.
          6    2    1    2  501    0  0.40950697823E+02 -0.11388605347E+03 -0.71037642334E+02  0.21792114397E+03  0.16672218069E+03 0.  0.
         24    2    5    5    0    0 -0.22034799817E+02 -0.11079351264E+03 -0.27120400207E+02  0.14093055443E+03  0.79782016882E+02 0.  0.
          5    1    5    5  501    0  0.62985497641E+02 -0.30925408255E+01 -0.43917242128E+02  0.76990589541E+02  0.47000000000E+01 0. -1.
        -11    1    6    6    0    0 -0.45538692875E+02 -0.49801252050E+02  0.58234248745E+01  0.67733666162E+02  0.00000000000E+00 0.  1.
         12    1    6    6    0    0  0.23503893058E+02 -0.60992260591E+02 -0.32943825081E+02  0.73196888266E+02  0.00000000000E+00 0. -1.
         -5    1    3    3    0  503 -0.70476649363E+02  0.46803024318E+01 -0.69403221058E+03  0.69763289964E+03  0.47000000000E+01 0.  1.
         13    1    4    4    0    0 -0.10600426854E+02  0.74920965617E+02 -0.46976677249E+03  0.47582175305E+03  0.00000000000E+00 0. -1.
        -14    1    4    4    0    0  0.40126378393E+02  0.34284785418E+02 -0.74190877971E+03  0.74378371195E+03  0.00000000000E+00 0.  1.
</event>
<event>
12    1  0.8417180E-002  0.2791781E+03  0.7818608E-02  0.1096141E+00
         21   -1    0    0  503  502  0.00000000000E+00  0.00000000000E+00  0.30465208651E+03  0.30465208651E+03  0.00000000000E+00 0.  1.
         21   -1    0    0  501  503 -0.00000000000E+00 -0.00000000000E+00 -0.31494861271E+03  0.31494861271E+03  0.00000000000E+00 0.  1.
          6    2    1    2  501    0 -0.18193200731E+03 -0.12398956638E+03 -0.13938293723E+03  0.31203849671E+03  0.17166173826E+03 0.  0.
         24    2    3    3    0    0 -0.91844706744E+02 -0.13314717381E+03 -0.12504991648E+03  0.22023921032E+03  0.81879228769E+02 0.  0.
         -6    2    1    2    0  502  0.18193200731E+03  0.12398956638E+03  0.12908641103E+03  0.30756220252E+03  0.17163490044E+03 0.  0.
        -24    2    5    5    0    0  0.44305339174E+02  0.44972949657E+02  0.62257568865E+00  0.10333249731E+03  0.81802739067E+02 0.  0.
          5    1    3    3  501    0 -0.90087300565E+02  0.91576074210E+01 -0.14333020750E+02  0.91799286384E+02  0.47000000000E+01 0. -1.
        -13    1    4    4    0    0 -0.83478954947E+02 -0.52131333127E+02 -0.82069219712E+02  0.12814744881E+03  0.00000000000E+00 0.  1.
         14    1    4    4    0    0 -0.83657517964E+01 -0.81015840679E+02 -0.42980696763E+02  0.92091761512E+02  0.00000000000E+00 0. -1.
         -5    1    5    5    0  502  0.13762666813E+03  0.79016616728E+02  0.12846383534E+03  0.20422970521E+03  0.47000000000E+01 0.  1.
         11    1    6    6    0    0  0.50528738203E+02  0.64891078413E+02 -0.22107919274E+01  0.82273282680E+02  0.00000000000E+00 0. -1.
        -12    1    6    6    0    0 -0.62233990291E+01 -0.19918128756E+02  0.28333676161E+01  0.21059214626E+02  0.00000000000E+00 0.  1.
</event>
<event>
12    1  0.8417180E-002  0.2138247E+03  0.7818608E-02  0.1138686E+00
         21   -1    0    0  501  502  0.00000000000E+00  0.00000000000E+00  0.10620958474E+04  0.10620958474E+04  0.00000000000E+00 0.  1.
         21   -1    0    0  502  503 -0.00000000000E+00 -0.00000000000E+00 -0.22441205537E+03  0.22441205537E+03  0.00000000000E+00 0.  1.
         -6    2    1    2    0  503  0.12515874174E+03  0.16392452792E+02 -0.15951187145E+03  0.26676776885E+03  0.17259079414E+03 0.  0.
        -24    2    3    3    0    0  0.32947360548E+02 -0.36209204765E+02 -0.12551762506E+03  0.15519908155E+03  0.77041843411E+02 0.  0.
          6    2    1    2  501    0 -0.12515874174E+03 -0.16392452792E+02  0.99719566346E+03  0.10197401339E+04  0.17186426717E+03 0.  0.
         24    2    5    5    0    0 -0.12462166837E+03 -0.49087474857E+02  0.57470226757E+03  0.59595715585E+03  0.83319234556E+02 0.  0.
          5    1    5    5  501    0 -0.53707337222E+00  0.32695022065E+02  0.42249339589E+03  0.42378297806E+03  0.47000000000E+01 0. -1.
        -11    1    6    6    0    0 -0.11812963270E+03 -0.21116642387E+02  0.36311606011E+03  0.38243142630E+03  0.00000000000E+00 0.  1.
         12    1    6    6    0    0 -0.64920356693E+01 -0.27970832470E+02  0.21158620746E+03  0.21352572955E+03  0.00000000000E+00 0. -1.
         -5    1    3    3    0  503  0.92211381195E+02  0.52601657556E+02 -0.33994246391E+02  0.11156868731E+03  0.47000000000E+01 0.  1.
         13    1    4    4    0    0 -0.19235654407E+02 -0.30518999586E+02 -0.33335601460E+02  0.49119060057E+02  0.00000000000E+00 0. -1.
        -14    1    4    4    0    0  0.52183014955E+02 -0.56902051789E+01 -0.92182023597E+02  0.10608002149E+03  0.00000000000E+00 0.  1.
</event>
<event>
12    1  0.8417180E-002  0.1976565E+03  0.7818608E-02  0.1151971E+00
         21   -1    0    0  503  502  0.00000000000E+00  0.00000000000E+00  0.59912630785E+02  0.59912630785E+02  0.00000000000E+00 0.  1.
         21   -1    0    0  501  503 -0.00000000000E+00 -0.00000000000E+00 -0.84879505113E+03  0.84879505113E+03  0.00000000000E+00 0. -1.
          6    2    1    2  501    0  0.45013711688E+02  0.86804540281E+02 -0.61605104533E+03  0.64698299462E+03  0.17177555826E+03 0.  0.
         24    2    3    3    0    0  0.32612379251E+01  0.11373517825E+02 -0.13517628359E+03  0.15841801972E+03  0.81753585529E+02 0.  0.
         -6    2    1    2    0  502 -0.45013711688E+02 -0.86804540281E+02 -0.17283137501E+03  0.26172468730E+03  0.17049300660E+03 0.  0.
        -24    2    5    5    0    0  0.38515259964E+01 -0.31982100650E+02 -0.15245127920E+02  0.87802789270E+02  0.80244793374E+02 0.  0.
          5    1    3    3  501    0  0.41752473763E+02  0.75431022455E+02 -0.48087476174E+03  0.48856497489E+03  0.47000000000E+01 0. -1.
        -13    1    4    4    0    0 -0.33203996614E+02  0.96409142857E+01 -0.10657091685E+03  0.11203933657E+03  0.00000000000E+00 0.  1.
         14    1    4    4    0    0  0.36465234539E+02  0.17326035397E+01 -0.28605366736E+02  0.46378683155E+02  0.00000000000E+00 0. -1.
         -5    1    5    5    0  502 -0.48865237684E+02 -0.54822439630E+02 -0.15758624709E+03  0.17392189803E+03  0.47000000000E+01 0.  1.
         13    1    6    6    0    0  0.12434880944E+02 -0.49807359501E+02 -0.33158565796E+02  0.61113744855E+02  0.00000000000E+00 0. -1.
        -14    1    6    6    0    0 -0.85833549474E+01  0.17825258850E+02  0.17913437876E+02  0.26689044415E+02  0.00000000000E+00 0.  1.
</event>
<event>
12    1  0.8417180E-002  0.2008512E+03  0.7818608E-02  0.1149145E+00
         21   -1    0    0  501  502  0.00000000000E+00  0.00000000000E+00  0.12470646909E+03  0.12470646909E+03  0.00000000000E+00 0. -1.
         21   -1    0    0  502  503 -0.00000000000E+00 -0.00000000000E+00 -0.37998841655E+03  0.37998841655E+03  0.00000000000E+00 0.  1.
         -6    2    1    2    0  503  0.46688034702E+02 -0.86650649806E+02 -0.22590759660E+03  0.30228371361E+03  0.17508024907E+03 0.  0.
        -24    2    3    3    0    0  0.96923047988E+02 -0.55527048444E+02 -0.18516749275E+03  0.23035262726E+03  0.79359953211E+02 0.  0.
          6    2    1    2  501    0 -0.46688034702E+02  0.86650649806E+02 -0.29374350860E+02  0.20241117203E+03  0.17441135966E+03 0.  0.
         24    2    5    5    0    0 -0.78306902971E+02  0.11316172166E+03 -0.18536336681E+02  0.15949098665E+03  0.78461664173E+02 0.  0.
          5    1    5    5  501    0  0.31618868269E+02 -0.26511071852E+02 -0.10838014179E+02  0.42920185376E+02  0.47000000000E+01 0. -1.
        -11    1    6    6    0    0 -0.13131946221E+02  0.66144857637E+02 -0.37161237069E+02  0.76997063216E+02  0.00000000000E+00 0.  1.
         12    1    6    6    0    0 -0.65174956750E+02  0.47016864021E+02  0.18624900388E+02  0.82493923438E+02  0.00000000000E+00 0. -1.
         -5    1    3    3    0  503 -0.50235013287E+02 -0.31123601363E+02 -0.40740103856E+02  0.71931086353E+02  0.47000000000E+01 0.  1.
         13    1    4    4    0    0  0.58772187901E+00  0.25581656790E+01  0.71138045234E+01  0.75826013640E+01  0.00000000000E+00 0. -1.
        -14    1    4    4    0    0  0.96335326109E+02 -0.58085214123E+02 -0.19228129727E+03  0.22277002589E+03  0.00000000000E+00 0.  1.
</event>
<event>
12    1  0.8417180E-002  0.1807257E+03  0.7818608E-02  0.1167604E+00
         21   -1    0    0  501  502  0.00000000000E+00  0.00000000000E+00  0.95886810054E+02  0.95886810054E+02  0.00000000000E+00 0.  1.
         21   -1    0    0  502  503 -0.00000000000E+00 -0.00000000000E+00 -0.60819035394E+03  0.60819035394E+03  0.00000000000E+00 0.  1.
         -6    2    1    2    0  503 -0.14170315765E+01  0.50573524156E+02 -0.49215585482E+03  0.52428918515E+03  0.17349949542E+03 0.  0.
        -24    2    3    3    0    0  0.12680020542E+02  0.32409541858E+02 -0.10107706303E+03  0.13250688780E+03  0.78296496214E+02 0.  0.
          6    2    1    2  501    0  0.14170315765E+01 -0.50573524156E+02 -0.20147689063E+02  0.17978797884E+03  0.17134205157E+03 0.  0.
         24    2    5    5    0    0 -0.62799757560E+02 -0.30746922529E+02 -0.31717564562E+02  0.11142978871E+03  0.80755254410E+02 0.  0.
          5    1    5    5  501    0  0.64216789137E+02 -0.19826601627E+02  0.11569875499E+02  0.68358190132E+02  0.47000000000E+01 0. -1.
        -13    1    6    6    0    0 -0.36163729400E+02 -0.11280297408E+02  0.25301138903E+02  0.45554451633E+02  0.00000000000E+00 0.  1.
         14    1    6    6    0    0 -0.26636028160E+02 -0.19466625121E+02 -0.57018703466E+02  0.65875337074E+02  0.00000000000E+00 0. -1.
         -5    1    3    3    0  503 -0.14097052118E+02  0.18163982298E+02 -0.39107879179E+03  0.39178229735E+03  0.47000000000E+01 0.  1.
         11    1    4    4    0    0 -0.13647328043E+02  0.45999810041E+02 -0.32921146818E+02  0.58189638204E+02  0.00000000000E+00 0. -1.
        -12    1    4    4    0    0  0.26327348585E+02 -0.13590268183E+02 -0.68155916215E+02  0.74317249598E+02  0.00000000000E+00 0.  1.
</event>
<event>
12    1  0.8417180E-002  0.2086000E+03  0.7818608E-02  0.1143192E+00
         21   -1    0    0  503  502  0.00000000000E+00  0.00000000000E+00  0.92760094278E+03  0.92760094278E+03  0.00000000000E+00 0.  1.
         21   -1    0    0  501  503 -0.00000000000E+00 -0.00000000000E+00 -0.56796045634E+02  0.56796045634E+02  0.00000000000E+00 0.  1.
          6    2    1    2  501    0 -0.29442586014E+02  0.10907059115E+03  0.22202623005E+03  0.30290766234E+03  0.17231989249E+03 0.  0.
         24    2    3    3    0    0 -0.27443633694E+02  0.44259408822E+02  0.29971589860E+02  0.10014780442E+03  0.80120148722E+02 0.  0.
         -6    2    1    2    0  502  0.29442586014E+02 -0.10907059115E+03  0.64877866709E+03  0.68148932607E+03  0.17535872647E+03 0.  0.
        -24    2    5    5    0    0  0.69263799115E+01  0.75503345634E+01  0.17020529445E+03  0.18837475231E+03  0.80063866753E+02 0.  0.
          5    1    3    3  501    0 -0.19989523203E+01  0.64811182330E+02  0.19205464019E+03  0.20275985792E+03  0.47000000000E+01 0. -1.
        -11    1    4    4    0    0  0.27067926060E+02  0.41719831255E+01  0.13367316436E+02  0.30475616697E+02  0.00000000000E+00 0.  1.
         12    1    4    4    0    0 -0.54511559754E+02  0.40087425696E+02  0.16604273423E+02  0.69672187720E+02  0.00000000000E+00 0. -1.
         -5    1    5    5    0  502  0.22516206103E+02 -0.11662092572E+03  0.47857337264E+03  0.49311457375E+03  0.47000000000E+01 0.  1.
         11    1    6    6    0    0  0.31691359202E+02 -0.99748161582E+01  0.29483739561E+02  0.44419929130E+02  0.00000000000E+00 0. -1.
        -12    1    6    6    0    0 -0.24764979290E+02  0.17525150722E+02  0.14072155489E+03  0.14395482318E+03  0.00000000000E+00 0.  1.
</event>
<event>
12    1  0.8417180E-002  0.2462352E+03  0.7818608E-02  0.1116513E+00
         21   -1    0    0  503  502  0.00000000000E+00  0.00000000000E+00  0.22334474150E+03  0.22334474150E+03  0.00000000000E+00 0.  1.
         21   -1    0    0  501  503 -0.00000000000E+00 -0.00000000000E+00 -0.33908393800E+03  0.33908393800E+03  0.00000000000E+00 0. -1.
          6    2    1    2  501    0  0.11267526668E+03 -0.13677914397E+03 -0.18884107400E+03  0.31031067434E+03  0.17096056104E+03 0.  0.
         24    2    3    3    0    0  0.71937022887E+01 -0.87785345009E+01 -0.39717123022E+02  0.87217511721E+02  0.76815574391E+02 0.  0.
         -6    2    1    2    0  502 -0.11267526668E+03  0.13677914397E+03  0.73101877505E+02  0.25211800517E+03  0.16375394373E+03 0.  0.
        -24    2    5    5    0    0 -0.11724685206E+03  0.63929550291E+02  0.85998373429E+02  0.17784572030E+03  0.79997301696E+02 0.  0.
          5    1    3    3  501    0  0.10548156439E+03 -0.12800060947E+03 -0.14912395098E+03  0.22309316262E+03  0.47000000000E+01 0. -1.
        -13    1    4    4    0    0 -0.23233609319E+02 -0.11848001677E+02 -0.48785923149E+02  0.55319454473E+02  0.00000000000E+00 0.  1.
         14    1    4    4    0    0  0.30427311608E+02  0.30694671760E+01  0.90688001267E+01  0.31898057248E+02  0.00000000000E+00 0. -1.
         -5    1    5    5    0  502  0.45715853764E+01  0.72849593679E+02 -0.12896495924E+02  0.74272284865E+02  0.47000000000E+01 0.  1.
         13    1    6    6    0    0 -0.43609564174E+00  0.58758813519E+01 -0.12879773655E+02  0.14163499938E+02  0.00000000000E+00 0. -1.
        -14    1    6    6    0    0 -0.11681075642E+03  0.58053668939E+02  0.98878147085E+02  0.16368222036E+03  0.00000000000E+00 0.  1.
</event>
<event>
12    1  0.8417180E-002  0.1937160E+03  0.7818608E-02  0.1155299E+00
         21   -1    0    0  503  502  0.00000000000E+00  0.00000000000E+00  0.44282868937E+03  0.44282868937E+03  0.00000000000E+00 0. -1.
         21   -1    0    0  501  503 -0.00000000000E+00 -0.00000000000E+00 -0.48128666441E+03  0.48128666441E+03  0.00000000000E+00 0.  1.
          6    2    1    2  501    0  0.86593038874E+02  0.27377502100E+02 -0.43880115637E+03  0.47965857044E+03  0.17110817446E+03 0.  0.
         24    2    3    3    0    0  0.54246952023E+02 -0.25019483320E+02 -0.38544023258E+03  0.39804244701E+03  0.79403465827E+02 0.  0.
         -6    2    1    2    0  502 -0.86593038874E+02 -0.27377502100E+02  0.40034318133E+03  0.44445678334E+03  0.17035048406E+03 0.  0.
        -24    2    5    5    0    0  0.17129259706E+02 -0.13879005746E+01  0.17586234851E+03  0.19576518937E+03  0.84268060016E+02 0.  0.
          5    1    3    3  501    0  0.32346086851E+02  0.52396985420E+02 -0.53360923789E+02  0.81616123427E+02  0.47000000000E+01 0. -1.
        -13    1    4    4    0    0 -0.12349969762E+02  0.27445241383E+01 -0.17730287310E+03  0.17775365812E+03  0.00000000000E+00 0.  1.
         14    1    4    4    0    0  0.66596921785E+02 -0.27764007458E+02 -0.20813735948E+03  0.22028878890E+03  0.00000000000E+00 0. -1.
         -5    1    5    5    0  502 -0.10372229858E+03 -0.25989601525E+02  0.22448083282E+03  0.24869159398E+03  0.47000000000E+01 0.  1.
         11    1    6    6    0    0  0.50579579069E+01  0.31919627620E+02  0.25166407309E+02  0.40960879171E+02  0.00000000000E+00 0. -1.
        -12    1    6    6    0    0  0.12071301799E+02 -0.33307528194E+02  0.15069594120E+03  0.15480431020E+03  0.00000000000E+00 0.  1.
</event>
<event>
12    1  0.8417180E-002  0.2383863E+03  0.7818608E-02  0.1121155E+00
         21   -1    0    0  503  502  0.00000000000E+00  0.00000000000E+00  0.87802667439E+02  0.87802667439E+02  0.00000000000E+00 0. -1.
         21   -1    0    0  501  503 -0.00000000000E+00 -0.00000000000E+00 -0.68678309944E+03  0.68678309944E+03  0.00000000000E+00 0. -1.
          6    2    1    2  501    0  0.14577017674E+03  0.72881410991E+02 -0.39861487300E+03  0.46445865421E+03  0.17397522813E+03 0.  0.
         24    2    3    3    0    0  0.74487906596E+02 -0.21489952908E+02 -0.13789555668E+03  0.17813057619E+03  0.81884377734E+02 0.  0.
         -6    2    1    2    0  502 -0.14577017674E+03 -0.72881410991E+02 -0.20036555900E+03  0.31012711267E+03  0.17167359810E+03 0.  0.
        -24    2    5    5    0    0 -0.17141932565E+03 -0.69336649499E+02 -0.20197912102E+03  0.28376164744E+03  0.74383809117E+02 0.  0.
          5    1    3    3  501    0  0.71282270139E+02  0.94371363899E+02 -0.26071931632E+03  0.28632807802E+03  0.47000000000E+01 0. -1.
        -11    1    4    4    0    0  0.14528884487E+02 -0.41420223727E+01  0.96490350443E+01  0.17926201803E+02  0.00000000000E+00 0.  1.
         12    1    4    4    0    0  0.59959022108E+02 -0.17347930535E+02 -0.14754459172E+03  0.16020437439E+03  0.00000000000E+00 0. -1.
         -5    1    5    5    0  502  0.25649148916E+02 -0.35447614925E+01  0.16135620216E+01  0.26365465226E+02  0.47000000000E+01 0.  1.
         11    1    6    6    0    0 -0.14240255415E+03 -0.84227440990E+02 -0.17970046607E+03  0.24426421504E+03  0.00000000000E+00 0. -1.
        -12    1    6    6    0    0 -0.29016771504E+02  0.14890791491E+02 -0.22278654953E+02  0.39497432401E+02  0.00000000000E+00 0.  1.
</event>
<event>
12    1  0.8417180E-002  0.1755514E+03  0.7818608E-02  0.1172521E+00
         21   -1    0    0  501  502  0.00000000000E+00  0.00000000000E+00  0.28341473182E+03  0.28341473182E+03  0.00000000000E+00 0. -1.
         21   -1    0    0  502  503 -0.00000000000E+00 -0.00000000000E+00 -0.11078357269E+03  0.11078357269E+03  0.00000000000E+00 0. -1.
         -6    2    1    2    0  503 -0.26336634406E+02  0.16148942489E+02  0.54176330536E+02  0.18242046885E+03  0.17142854491E+03 0.  0.
        -24    2    3    3    0    0  0.25512488962E+02  0.59409142878E+02  0.15298717780E+02  0.10436065009E+03  0.80478327339E+02 0.  0.
          6    2    1    2  501    0  0.26336634406E+02 -0.16148942489E+02  0.11845482859E+03  0.21177783565E+03  0.17281174324E+03 0.  0.
         24    2    5    5    0    0  0.30609063645E+02 -0.63517632085E+02  0.46357558433E+02  0.12527839768E+03  0.92597242604E+02 0.  0.
          5    1    5    5  501    0 -0.42724292390E+01  0.47368689596E+02  0.72097270161E+02  0.86499437977E+02  0.47000000000E+01 0. -1.
        -13    1    6    6    0    0 -0.16163210949E+02 -0.32066370255E+02 -0.17632417954E+02  0.40005045337E+02  0.00000000000E+00 0.  1.
         14    1    6    6    0    0  0.46772274594E+02 -0.31451261830E+02  0.63989976387E+02  0.85273352341E+02  0.00000000000E+00 0. -1.
         -5    1    3    3    0  503 -0.51849123367E+02 -0.43260200389E+02  0.38877612756E+02  0.78059818763E+02  0.47000000000E+01 0.  1.
         11    1    4    4    0    0 -0.23276978256E+02  0.75602860252E+01 -0.13042172725E+02  0.27732181863E+02  0.00000000000E+00 0. -1.
        -12    1    4    4    0    0  0.48789467217E+02  0.51848856852E+02  0.28340890506E+02  0.76628468228E+02  0.00000000000E+00 0.  1.
</event>
<event>
12    1  0.8417180E-002  0.2249607E+03  0.7818608E-02  0.1131062E+00
         21   -1    0    0  503  502  0.00000000000E+00  0.00000000000E+00  0.46395398324E+03  0.46395398324E+03  0.00000000000E+00 0. -1.
         21   -1    0    0  501  503 -0.00000000000E+00 -0.00000000000E+00 -0.10933378999E+03  0.10933378999E+03  0.00000000000E+00 0. -1.
          6    2    1    2  501    0 -0.26012995119E+02 -0.13813283243E+03  0.13634610443E+03  0.26305433158E+03  0.17564158352E+03 0.  0.
         24    2    3    3    0    0 -0.44956624570E+02 -0.15291907568E+02  0.29025287967E+02  0.98772252329E+02  0.81599938472E+02 0.  0.
         -6    2    1    2    0  502  0.26012995119E+02  0.13813283243E+03  0.21827408882E+03  0.31023344165E+03  0.16983478782E+03 0.  0.
        -24    2    5    5    0    0 -0.15990059741E+02  0.16825119411E+02  0.40633389025E+02  0.91011804757E+02  0.78059654418E+02 0.  0.
          5    1    3    3  501    0  0.18943629451E+02 -0.12284092486E+03  0.10732081647E+03  0.16428207925E+03  0.47000000000E+01 0. -1.
        -11    1    4    4    0    0 -0.50168728768E+00  0.94822591117E+01  0.44561207959E+02  0.45561674494E+02  0.00000000000E+00 0.  1.
         12    1    4    4    0    0 -0.44454937283E+02 -0.24774166680E+02 -0.15535919992E+02  0.53210577834E+02  0.00000000000E+00 0. -1.
         -5    1    5    5    0  502  0.42003054860E+02  0.12130771302E+03  0.17764069980E+03  0.21922163689E+03  0.47000000000E+01 0.  1.
         11    1    6    6    0    0  0.14735433156E+02 -0.18521396967E+02 -0.65226476689E+01  0.24550357809E+02  0.00000000000E+00 0. -1.
        -12    1    6    6    0    0 -0.30725492897E+02  0.35346516378E+02  0.47156036694E+02  0.66461446949E+02  0.00000000000E+00 0.  1.
</event>
<event>
12    1  0.8417180E-002  0.1738294E+03  0.7818608E-02  0.1174667E+00
         21   -1    0    0  501  502  0.00000000000E+00  0.00000000000E+00  0.92454643000E+02  0.92454643000E+02  0.00000000000E+00 0. -1.
         21   -1    0    0  502  503 -0.00000000000E+00 -0.00000000000E+00 -0.76111054580E+03  0.76111054580E+03  0.00000000000E+00 0. -1.
         -6    2    1    2    0  503  0.28874609280E+01 -0.12254323307E+01 -0.65754015635E+03  0.67938073711E+03  0.17084873317E+03 0.  0.
        -24    2    3    3    0    0 -0.63713764217E+02  0.19960432793E+01 -0.43914320301E+03  0.45098323203E+03  0.80471702396E+02 0.  0.
          6    2    1    2  501    0 -0.28874609280E+01  0.12254323307E+01 -0.11115746453E+02  0.17418445169E+03  0.17380110551E+03 0.  0.
         24    2    5    5    0    0  0.54492458585E+02  0.28756767264E+02 -0.27559440176E+02  0.10828365785E+03  0.84672593604E+02 0.  0.
          5    1    5    5  501    0 -0.57379919513E+02 -0.27531334934E+02  0.16443693722E+02  0.65900793848E+02  0.47000000000E+01 0. -1.
        -11    1    6    6    0    0  0.54416218528E+02 -0.12336855384E+02 -0.35904752222E+02  0.66351142204E+02  0.00000000000E+00 0.  1.
         12    1    6    6    0    0  0.76240057024E-01  0.41093622649E+02  0.83453120463E+01  0.41932515642E+02  0.00000000000E+00 0. -1.
         -5    1    3    3    0  503  0.66601225145E+02 -0.32214756100E+01 -0.21839695334E+03  0.22839750507E+03  0.47000000000E+01 0.  1.
         11    1    4    4    0    0 -0.42545907135E+02  0.35019075508E+02 -0.33868836827E+03  0.34314180839E+03  0.00000000000E+00 0. -1.
        -12    1    4    4    0    0 -0.21167857082E+02 -0.33023032229E+02 -0.10045483474E+03  0.10784142364E+03  0.00000000000E+00 0.  1.
</event>
<event>
12    1  0.8417180E-002  0.2442688E+03  0.7818608E-02  0.1117335E+00
         21   -1    0    0  503  502  0.00000000000E+00  0.00000000000E+00  0.25969312957E+03  0.25969312957E+03  0.00000000000E+00 0. -1.
         21   -1    0    0  501  503 -0.00000000000E+00 -0.00000000000E+00 -0.22844650138E+03  0.22844650138E+03  0.00000000000E+00 0.  1.
          6    2    1    2  501    0  0.15050138169E+03 -0.79971701745E+02  0.20458623136E+01  0.24427736342E+03  0.17498887323E+03 0.  0.
         24    2    3    3    0    0  0.17605059282E+03 -0.45981058244E+02  0.15528441789E+02  0.19942208520E+03  0.80124694144E+02 0.  0.
         -6    2    1    2    0  502 -0.15050138169E+03  0.79971701745E+02  0.29200765879E+02  0.24386226753E+03  0.17195924466E+03 0.  0.
        -24    2    5    5    0    0 -0.12506111883E+03 -0.78876567760E+01  0.33473626802E+02  0.15217354851E+03  0.79585215990E+02 0.  0.
          5    1    3    3  501    0 -0.25549211127E+02 -0.33990643501E+02 -0.13482579475E+02  0.44855278219E+02  0.47000000000E+01 0. -1.
        -13    1    4    4    0    0  0.12106468101E+03 -0.31459217161E+02 -0.27542554789E+02  0.12808173818E+03  0.00000000000E+00 0.  1.
         14    1    4    4    0    0  0.54985911812E+02 -0.14521841083E+02  0.43070996577E+02  0.71340347017E+02  0.00000000000E+00 0. -1.
         -5    1    5    5    0  502 -0.25440262865E+02  0.87859358521E+02 -0.42728609228E+01  0.91688719016E+02  0.47000000000E+01 0.  1.
         13    1    6    6    0    0 -0.10964224699E+02 -0.13295268716E+02 -0.19703904018E+02  0.26176749742E+02  0.00000000000E+00 0. -1.
        -14    1    6    6    0    0 -0.11409689413E+03  0.54076119403E+01  0.53177530820E+02  0.12599679877E+03  0.00000000000E+00 0.  1.
</event>
<event>
12    1  0.8417180E-002  0.4804818E+03  0.7818608E-02  0.1019126E+00
         21   -1    0    0  501  502  0.00000000000E+00  0.00000000000E+00  0.39437129642E+03  0.39437129642E+03  0.00000000000E+00 0. -1.
         21   -1    0    0  502  503 -0.00000000000E+00 -0.00000000000E+00 -0.75120869747E+03  0.75120869747E+03  0.00000000000E+00 0.  1.
         -6    2    1    2    0  503 -0.23363165848E+03  0.37998949330E+03 -0.44955254467E+03  0.65799717171E+03  0.17856937223E+03 0.  0.
        -24    2    3    3    0    0 -0.15119957278E+03  0.29162362339E+03 -0.23492477520E+03  0.41164225468E+03  0.79712278270E+02 0.  0.
          6    2    1    2  501    0  0.23363165848E+03 -0.37998949330E+03  0.92715143623E+02  0.48758282217E+03  0.17368115545E+03 0.  0.
         24    2    5    5    0    0  0.69630604474E+02 -0.98253356561E+02 -0.11840618155E+02  0.14520058872E+03  0.80255015871E+02 0.  0.
          5    1    5    5  501    0  0.16400105401E+03 -0.28173613674E+03  0.10455576178E+03  0.34238223345E+03  0.47000000000E+01 0. -1.
        -13    1    6    6    0    0 -0.46449657587E+01 -0.16796712359E+02 -0.28805076933E+02  0.33666566651E+02  0.00000000000E+00 0.  1.
         14    1    6    6    0    0  0.74275570232E+02 -0.81456644202E+02  0.16964458778E+02  0.11153402207E+03  0.00000000000E+00 0. -1.
         -5    1    3    3    0  503 -0.82432085698E+02  0.88365869909E+02 -0.21462776947E+03  0.24635491703E+03  0.47000000000E+01 0.  1.
         11    1    4    4    0    0 -0.22649270967E+02  0.12215238367E+03 -0.70959909532E+02  0.14307167111E+03  0.00000000000E+00 0. -1.
        -12    1    4    4    0    0 -0.12855030181E+03  0.16947123972E+03 -0.16396486567E+03  0.26857058358E+03  0.00000000000E+00 0.  1.
</event>
<event>
12    1  0.8417180E-002  0.2307829E+03  0.7818608E-02  0.1126142E+00
         21   -1    0    0  503  502  0.00000000000E+00  0.00000000000E+00  0.14027119168E+03  0.14027119168E+03  0.00000000000E+00 0.  1.
         21   -1    0    0  501  503 -0.00000000000E+00 -0.00000000000E+00 -0.38635733951E+03  0.38635733951E+03  0.00000000000E+00 0. -1.
          6    2    1    2  501    0  0.97383170627E+02  0.11805714732E+03 -0.15892270075E+03  0.28020914956E+03  0.17274191943E+03 0.  0.
         24    2    3    3    0    0  0.13301892697E+03  0.99675163217E+02 -0.15158756711E+03  0.23917625233E+03  0.81223863985E+02 0.  0.
         -6    2    1    2    0  502 -0.97383170627E+02 -0.11805714732E+03 -0.87163447084E+02  0.24641938164E+03  0.17234869650E+03 0.  0.
        -24    2    5    5    0    0 -0.44732682032E+02 -0.32561037423E+01 -0.19003354936E+02  0.10282536464E+03  0.90555579959E+02 0.  0.
          5    1    3    3  501    0 -0.35635756340E+02  0.18381984104E+02 -0.73351336349E+01  0.41032897229E+02  0.47000000000E+01 0. -1.
        -11    1    4    4    0    0  0.31702096934E+01  0.21630742036E+02  0.37643418762E+01  0.22183541203E+02  0.00000000000E+00 0.  1.
         12    1    4    4    0    0  0.12984871727E+03  0.78044421181E+02 -0.15535190899E+03  0.21699271112E+03  0.00000000000E+00 0. -1.
         -5    1    5    5    0  502 -0.52650488595E+02 -0.11480104358E+03 -0.68160092148E+02  0.14359401700E+03  0.47000000000E+01 0.  1.
         11    1    6    6    0    0 -0.55178164653E+02 -0.10806278538E+02 -0.46171903707E+02  0.72754726322E+02  0.00000000000E+00 0. -1.
        -12    1    6    6    0    0  0.10445482621E+02  0.75501747952E+01  0.27168548771E+02  0.30070638320E+02  0.00000000000E+00 0.  1.
</event>
<event>
12    1  0.8417180E-002  0.1958108E+03  0.7818608E-02  0.1153799E+00
         21   -1    0    0  503  502  0.00000000000E+00  0.00000000000E+00  0.41540563776E+03  0.41540563776E+03  0.00000000000E+00 0. -1.
         21   -1    0    0  501  503 -0.00000000000E+00 -0.00000000000E+00 -0.92353112231E+02  0.92353112231E+02  0.00000000000E+00 0. -1.
          6    2    1    2  501    0  0.85186424774E+00  0.88953513232E+02  0.18808717845E+03  0.26994053072E+03  0.17198154041E+03 0.  0.
         24    2    3    3    0    0  0.62206205241E+02  0.29533847568E+02  0.85004835159E+02  0.13598863143E+03  0.80778869482E+02 0.  0.
         -6    2    1    2    0  502 -0.85186424774E+00 -0.88953513232E+02  0.13496534708E+03  0.23781821926E+03  0.17443740228E+03 0.  0.
        -24    2    5    5    0    0 -0.68414067126E+02 -0.52293877507E+02  0.10463670620E+03  0.15505049242E+03  0.75343750308E+02 0.  0.
          5    1    3    3  501    0 -0.61354340993E+02  0.59419665663E+02  0.10308234329E+03  0.13395189929E+03  0.47000000000E+01 0. -1.
        -11    1    4    4    0    0 -0.55803601679E+01 -0.15458275479E+02  0.39467557215E+02  0.42752622994E+02  0.00000000000E+00 0.  1.
         12    1    4    4    0    0  0.67786565409E+02  0.44992123047E+02  0.45537277944E+02  0.93236008434E+02  0.00000000000E+00 0. -1.
         -5    1    5    5    0  502  0.67562202878E+02 -0.36659635725E+02  0.30328640874E+02  0.82767726841E+02  0.47000000000E+01 0.  1.
         11    1    6    6    0    0 -0.50972444644E+02 -0.71754183059E+02  0.85030096071E+02  0.12238043200E+03  0.00000000000E+00 0. -1.
        -12    1    6    6    0    0 -0.17441622482E+02  0.19460305553E+02  0.19606610131E+02  0.32670060419E+02  0.00000000000E+00 0.  1.
</event>
<event>
12    1  0.8417180E-002  0.2532669E+03  0.7818608E-02  0.1111479E+00
         21   -1    0    0  503  502  0.00000000000E+00  0.00000000000E+00  0.20528132871E+03  0.20528132871E+03  0.00000000000E+00 0.  1.
         21   -1    0    0  501  503 -0.00000000000E+00 -0.00000000000E+00 -0.76422800508E+03  0.76422800508E+03  0.00000000000E+00 0.  1.
          6    2    1    2  501    0  0.59137911009E+02 -0.17558253738E+03 -0.65257765881E+03  0.69948921422E+03  0.17059026958E+03 0.  0.
         24    2    3    3    0    0  0.10369637226E+03 -0.15176961996E+03 -0.51179412996E+03  0.54984094827E+03  0.81270423714E+02 0.  0.
         -6    2    1    2    0  502 -0.59137911009E+02  0.17558253738E+03  0.93630982443E+02  0.27002011958E+03  0.17267768863E+03 0.  0.
        -24    2    5    5    0    0 -0.43428509374E+02  0.62265706694E+02 -0.15680209279E+02  0.11172130071E+03  0.80453256078E+02 0.  0.
          5    1    3    3  501    0 -0.44558461252E+02 -0.23812917420E+02 -0.14078352885E+03  0.14964826595E+03  0.47000000000E+01 0. -1.
        -11    1    4    4    0    0  0.53888957178E+02 -0.13738955003E+03 -0.34683995944E+03  0.37693217643E+03  0.00000000000E+00 0.  1.
         12    1    4    4    0    0  0.49807415084E+02 -0.14380069938E+02 -0.16495417052E+03  0.17290877184E+03  0.00000000000E+00 0. -1.
         -5    1    5    5    0  502 -0.15709401636E+02  0.11331683069E+03  0.10931119172E+03  0.15829881886E+03  0.47000000000E+01 0.  1.
         13    1    6    6    0    0  0.14781311271E+02  0.48319900156E+02 -0.36068526554E+01  0.50658753439E+02  0.00000000000E+00 0. -1.
        -14    1    6    6    0    0 -0.58209820645E+02  0.13945806538E+02 -0.12073356624E+02  0.61062547274E+02  0.00000000000E+00 0.  1.
</event>
<event>
12    1  0.8417180E-002  0.2139295E+03  0.7818608E-02  0.1138649E+00
         21   -1    0    0  503  502  0.00000000000E+00  0.00000000000E+00  0.68382129652E+03  0.68382129652E+03  0.00000000000E+00 0. -1.
         21   -1    0    0  501  503 -0.00000000000E+00 -0.00000000000E+00 -0.78925155134E+02  0.78925155134E+02  0.00000000000E+00 0. -1.
          6    2    1    2  501    0  0.10455014501E+03 -0.71277603965E+02  0.15266949600E+03  0.26281898567E+03  0.17249525956E+03 0.  0.
         24    2    3    3    0    0  0.32441517579E+02 -0.10216346383E+03  0.77348281659E+02  0.15396603064E+03  0.78949075427E+02 0.  0.
         -6    2    1    2    0  502 -0.10455014501E+03  0.71277603965E+02  0.45222664539E+03  0.49992746598E+03  0.17148557606E+03 0.  0.
        -24    2    5    5    0    0 -0.55742588305E+02 -0.27596463010E+02  0.24704526964E+03  0.26694732591E+03  0.79754050935E+02 0.  0.
          5    1    3    3  501    0  0.72108627432E+02  0.30885859865E+02  0.75321214339E+02  0.10885295503E+03  0.47000000000E+01 0. -1.
        -11    1    4    4    0    0 -0.14588902713E+02 -0.52082731488E+02  0.64321852427E+02  0.84040155291E+02  0.00000000000E+00 0.  1.
         12    1    4    4    0    0  0.47030420292E+02 -0.50080732341E+02  0.13026429231E+02  0.69925875348E+02  0.00000000000E+00 0. -1.
         -5    1    5    5    0  502 -0.48807556707E+02  0.98874066975E+02  0.20518137575E+03  0.23298014007E+03  0.47000000000E+01 0.  1.
         11    1    6    6    0    0 -0.63524137623E+02 -0.23274470880E+02  0.10683292514E+03  0.12645272219E+03  0.00000000000E+00 0. -1.
        -12    1    6    6    0    0  0.77815493180E+01 -0.43219921300E+01  0.14021234450E+03  0.14049460372E+03  0.00000000000E+00 0.  1.
</event>
<event>
12    1  0.8417180E-002  0.2070211E+03  0.7818608E-02  0.1144092E+00
         21   -1    0    0  501  502  0.00000000000E+00  0.00000000000E+00  0.31500186073E+02  0.31500186073E+02  0.00000000000E+00 0.  1.
         21   -1    0    0  502  503 -0.00000000000E+00 -0.00000000000E+00 -0.13871128691E+04  0.13871128691E+04  0.00000000000E+00 0. -1.
         -6    2    1    2    0  503 -0.10119752650E+03 -0.51966909671E+02 -0.78316950816E+03  0.80988576377E+03  0.17210163500E+03 0.  0.
        -24    2    3    3    0    0 -0.92331130020E+02 -0.93622324447E+02 -0.49105022089E+03  0.51464085769E+03  0.80216680093E+02 0.  0.
          6    2    1    2  501    0  0.10119752650E+03  0.51966909671E+02 -0.57244317485E+03  0.60872729139E+03  0.17296308213E+03 0.  0.
         24    2    5    5    0    0  0.10739602737E+03 -0.82654013473E+01 -0.28490098656E+03  0.31484133945E+03  0.79713695982E+02 0.  0.
          5    1    5    5  501    0 -0.61985008735E+01  0.60232311018E+02 -0.28754218829E+03  0.29388595194E+03  0.47000000000E+01 0. -1.
        -13    1    6    6    0    0  0.37225700595E+02  0.31279664988E+02 -0.69048241281E+02  0.84450161933E+02  0.00000000000E+00 0.  1.
         14    1    6    6    0    0  0.70170326774E+02 -0.39545066335E+02 -0.21585274528E+03  0.23039117752E+03  0.00000000000E+00 0. -1.
         -5    1    3    3    0  503 -0.88663964752E+01  0.41655414777E+02 -0.29211928727E+03  0.29524490608E+03  0.47000000000E+01 0.  1.
         11    1    4    4    0    0 -0.76921597364E+00  0.25395393554E+01 -0.12871839211E+03  0.12874573943E+03  0.00000000000E+00 0. -1.
        -12    1    4    4    0    0 -0.91561914047E+02 -0.96161863803E+02 -0.36233182878E+03  0.38589511826E+03  0.00000000000E+00 0.  1.
</event>
<event>
12    1  0.8417180E-002  0.1812068E+03  0.7818608E-02  0.1166759E+00
         21   -1    0    0  501  502  0.00000000000E+00  0.00000000000E+00  0.10742300598E+03  0.10742300598E+03  0.00000000000E+00 0. -1.
         21   -1    0    0  502  503 -0.00000000000E+00 -0.00000000000E+00 -0.31138978058E+03  0.31138978058E+03  0.00000000000E+00 0. -1.
         -6    2    1    2    0  503 -0.43407008398E+02  0.34424091896E+02 -0.71469054979E+02  0.19433219108E+03  0.17201159319E+03 0.  0.
        -24    2    3    3    0    0 -0.21434183451E+02  0.52406126712E+02 -0.10927885851E+03  0.14681556394E+03  0.80044453645E+02 0.  0.
          6    2    1    2  501    0  0.43407008398E+02 -0.34424091896E+02 -0.13249771962E+03  0.22448059548E+03  0.17253030331E+03 0.  0.
         24    2    5    5    0    0  0.97630649466E+02  0.67722758387E+01 -0.69737398892E+02  0.13175362085E+03  0.54019481376E+02 0.  0.
          5    1    5    5  501    0 -0.54223641067E+02 -0.41196367735E+02 -0.62760320730E+02  0.92726974626E+02  0.47000000000E+01 0. -1.
        -13    1    6    6    0    0  0.20031504232E+02  0.24869147693E+02 -0.16718074286E+02  0.36044828708E+02  0.00000000000E+00 0.  1.
         14    1    6    6    0    0  0.77599145234E+02 -0.18096871854E+02 -0.53019324606E+02  0.95708792144E+02  0.00000000000E+00 0. -1.
         -5    1    3    3    0  503 -0.21972824948E+02 -0.17982034816E+02  0.37809803532E+02  0.47516627147E+02  0.47000000000E+01 0.  1.
         13    1    4    4    0    0 -0.72902157689E+01  0.54325895998E+02 -0.23131696691E+02  0.59493912409E+02  0.00000000000E+00 0. -1.
        -14    1    4    4    0    0 -0.14143967682E+02 -0.19197692856E+01 -0.86147161819E+02  0.87321651527E+02  0.00000000000E+00 0.  1.
</event>
<event>
12    1  0.8417180E-002  0.1884758E+03  0.7818608E-02  0.1160210E+00
         21   -1    0    0  501  502  0.00000000000E+00  0.00000000000E+00  0.20425651468E+04  0.20425651468E+04  0.00000000000E+00 0. -1.
         21   -1    0    0  502  503 -0.00000000000E+00 -0.00000000000E+00 -0.17466370182E+02  0.17466370182E+02  0.00000000000E+00 0. -1.
         -6    2    1    2    0  503 -0.68732117134E+02 -0.28289133591E+02  0.90054497736E+03  0.92005672319E+03  0.17320143947E+03 0.  0.
        -24    2    3    3    0    0 -0.70158283943E+02 -0.53731776053E+02  0.41729174414E+03  0.43610926796E+03  0.90827337891E+02 0.  0.
          6    2    1    2  501    0  0.68732117134E+02  0.28289133591E+02  0.11245537993E+04  0.11399747938E+04  0.17145525379E+03 0.  0.
         24    2    5    5    0    0 -0.16356590160E+02  0.19965154068E+02  0.80164498195E+03  0.80590658064E+03  0.78642191066E+02 0.  0.
          5    1    5    5  501    0  0.85088707293E+02  0.83239795228E+01  0.32290881733E+03  0.33406821317E+03  0.47000000000E+01 0. -1.
        -11    1    6    6    0    0  0.19176056499E+02  0.84667824364E+01  0.62525364925E+03  0.62560493401E+03  0.00000000000E+00 0.  1.
         12    1    6    6    0    0 -0.35532646659E+02  0.11498371632E+02  0.17639133269E+03  0.18030164663E+03  0.00000000000E+00 0. -1.
         -5    1    3    3    0  503  0.14261668092E+01  0.25442642462E+02  0.48325323322E+03  0.48394745524E+03  0.47000000000E+01 0.  1.
         13    1    4    4    0    0 -0.56759698004E+02 -0.70954831704E+02  0.39337970681E+03  0.40373734679E+03  0.00000000000E+00 0. -1.
        -14    1    4    4    0    0 -0.13398585939E+02  0.17223055650E+02  0.23912037326E+02  0.32371921169E+02  0.00000000000E+00 0.  1.
</event>
<event>
12    1  0.8417180E-002  0.2568416E+03  0.7818608E-02  0.1109070E+00
         21   -1    0    0  501  502  0.00000000000E+00  0.00000000000E+00  0.15257029565E+04  0.15257029565E+04  0.00000000000E+00 0. -1.
         21   -1    0    0  502  503 -0.00000000000E+00 -0.00000000000E+00 -0.57602883439E+02  0.57602883439E+02  0.00000000000E+00 0. -1.
         -6    2    1    2    0  503  0.18148795598E+03 -0.57477789305E+02  0.33838491929E+03  0.42476194425E+03  0.17226950181E+03 0.  0.
        -24    2    3    3    0    0  0.70511879115E+02  0.89534394107E+01  0.68990581177E+02  0.12589040464E+03  0.77695588776E+02 0.  0.
          6    2    1    2  501    0 -0.18148795598E+03  0.57477789305E+02  0.11297151538E+04  0.11585438957E+04  0.17241245646E+03 0.  0.
         24    2    5    5    0    0 -0.44765786952E+02  0.68271320448E+02  0.63895950757E+03  0.64896304234E+03  0.78859553213E+02 0.  0.
          5    1    5    5  501    0 -0.13672216903E+03 -0.10793531143E+02  0.49075564622E+03  0.50958085336E+03  0.47000000000E+01 0. -1.
        -11    1    6    6    0    0  0.21465718132E+02  0.10728903048E+02  0.95617687654E+02  0.98583105083E+02  0.00000000000E+00 0.  1.
         12    1    6    6    0    0 -0.66231505084E+02  0.57542417401E+02  0.54334181992E+03  0.55037993726E+03  0.00000000000E+00 0. -1.
         -5    1    3    3    0  503  0.11097607686E+03 -0.66431228716E+02  0.26939433811E+03  0.29887153962E+03  0.47000000000E+01 0.  1.
         13    1    4    4    0    0  0.38517780226E+02  0.24479914981E+02  0.76933221867E+02  0.89451697904E+02  0.00000000000E+00 0. -1.
        -14    1    4    4    0    0  0.31994098889E+02 -0.15526475570E+02 -0.79426406902E+01  0.36438706734E+02  0.00000000000E+00 0.  1.
</event>
<event>
12    1  0.8417180E-002  0.2227831E+03  0.7818608E-02  0.1131922E+00
         21   -1    0    0  501  502  0.00000000000E+00  0.00000000000E+00  0.55501325175E+02  0.55501325175E+02  0.00000000000E+00 0.  1.
         21   -1    0    0  502  503 -0.00000000000E+00 -0.00000000000E+00 -0.89214434160E+03  0.89214434160E+03  0.00000000000E+00 0.  1.
         -6    2    1    2    0  503 -0.10211001523E+03  0.99271718996E+02 -0.41793401224E+03  0.47360441344E+03  0.17132125506E+03 0.  0.
        -24    2    3    3    0    0  0.69581121915E+01  0.92260306826E+01 -0.13643956704E+03  0.15854045948E+03  0.79911118567E+02 0.  0.
          6    2    1    2  501    0  0.10211001523E+03 -0.99271718996E+02 -0.41870900418E+03  0.47404125334E+03  0.17063572392E+03 0.  0.
         24    2    5    5    0    0  0.12180437745E+03 -0.10261141714E+03 -0.41698033429E+03  0.45344757017E+03  0.79854182250E+02 0.  0.
          5    1    5    5  501    0 -0.19694362212E+02  0.33396981409E+01 -0.17286698956E+01  0.20593683163E+02  0.47000000000E+01 0. -1.
        -11    1    6    6    0    0  0.47448407006E+02 -0.54563507378E+02 -0.28847553912E+03  0.29739983916E+03  0.00000000000E+00 0.  1.
         12    1    6    6    0    0  0.74355970439E+02 -0.48047909759E+02 -0.12850479517E+03  0.15604773101E+03  0.00000000000E+00 0. -1.
         -5    1    3    3    0  503 -0.10906812742E+03  0.90045688313E+02 -0.28149444521E+03  0.31506395396E+03  0.47000000000E+01 0.  1.
         11    1    4    4    0    0  0.16273967399E+02 -0.19228477665E+02 -0.12329391643E+03  0.12584103542E+03  0.00000000000E+00 0. -1.
        -12    1    4    4    0    0 -0.93158552070E+01  0.28454508347E+02 -0.13145650608E+02  0.32699424054E+02  0.00000000000E+00 0.  1.
</event>
<event>
12    1  0.8417180E-002  0.2902361E+03  0.7818608E-02  0.1090272E+00
         21   -1    0    0  501  502  0.00000000000E+00  0.00000000000E+00  0.14624135054E+04  0.14624135054E+04  0.00000000000E+00 0.  1.
         21   -1    0    0  502  503 -0.00000000000E+00 -0.00000000000E+00 -0.13116270482E+03  0.13116270482E+03  0.00000000000E+00 0.  1.
         -6    2    1    2    0  503 -0.19923344559E+03 -0.12121301885E+03  0.68811345068E+02  0.29828172838E+03  0.17277275970E+03 0.  0.
        -24    2    3    3    0    0 -0.35254974031E+02 -0.78677722132E+02  0.49874471440E+02  0.12775640538E+03  0.80007118804E+02 0.  0.
          6    2    1    2  501    0  0.19923344559E+03  0.12121301885E+03  0.12624394555E+04  0.12952944818E+04  0.17218552227E+03 0.  0.
         24    2    5    5    0    0  0.10037727100E+03  0.94695523618E+02  0.10222551676E+04  0.10341694103E+04  0.73877620911E+02 0.  0.
          5    1    5    5  501    0  0.98856174590E+02  0.26517495229E+02  0.24018428790E+03  0.26112507149E+03  0.47000000000E+01 0. -1.
        -13    1    6    6    0    0 -0.87410635600E+01  0.26051044694E+02  0.16385904278E+03  0.16614707046E+03  0.00000000000E+00 0.  1.
         14    1    6    6    0    0  0.10911833456E+03  0.68644478925E+02  0.85839612479E+03  0.86802233985E+03  0.00000000000E+00 0. -1.
         -5    1    3    3    0  503 -0.16397847156E+03 -0.42535296715E+02  0.18936873628E+02  0.17052532300E+03  0.47000000000E+01 0.  1.
         11    1    4    4    0    0  0.73873041169E+01  0.13563780966E+02  0.10962557221E+02  0.18940065391E+02  0.00000000000E+00 0. -1.
        -12    1    4    4    0    0 -0.42642278148E+02 -0.92241503098E+02  0.38911914219E+02  0.10881633998E+03  0.00000000000E+00 0.  1.
</event>
<event>
12    1  0.8417180E-002  0.1801713E+03  0.7818608E-02  0.1167698E+00
         21   -1    0    0  501  502  0.00000000000E+00  0.00000000000E+00  0.11811747639E+03  0.11811747639E+03  0.00000000000E+00 0.  1.
         21   -1    0    0  502  503 -0.00000000000E+00 -0.00000000000E+00 -0.65642494205E+03  0.65642494205E+03  0.00000000000E+00 0.  1.
         -6    2    1    2    0  503 -0.54591559326E+02  0.45139386725E+01 -0.56449778015E+03  0.59247750286E+03  0.17138037696E+03 0.  0.
        -24    2    3    3    0    0  0.17197347445E+02  0.40524676293E+02 -0.38679998674E+03  0.39741593272E+03  0.79919933033E+02 0.  0.
          6    2    1    2  501    0  0.54591559326E+02 -0.45139386725E+01  0.26190314496E+02  0.18206491558E+03  0.17164232263E+03 0.  0.
         24    2    5    5    0    0 -0.11104481085E+02 -0.49016074260E+02  0.35364578435E+02  0.10204824909E+03  0.81469667346E+02 0.  0.
          5    1    5    5  501    0  0.65696040411E+02  0.44502135588E+02 -0.91742639392E+01  0.80016666491E+02  0.47000000000E+01 0. -1.
        -13    1    6    6    0    0 -0.22003222530E+02 -0.52385662665E+01  0.49788058572E+02  0.54684871351E+02  0.00000000000E+00 0.  1.
         14    1    6    6    0    0  0.10898741445E+02 -0.43777507994E+02 -0.14423480137E+02  0.47363377735E+02  0.00000000000E+00 0. -1.
         -5    1    3    3    0  503 -0.71788906770E+02 -0.36010737620E+02 -0.17769779341E+03  0.19506157014E+03  0.47000000000E+01 0.  1.
         11    1    4    4    0    0  0.16639766558E+02  0.46000272238E+02 -0.10800228962E+03  0.11856391289E+03  0.00000000000E+00 0. -1.
        -12    1    4    4    0    0  0.55758088695E+00 -0.54755959452E+01 -0.27879769711E+03  0.27885201983E+03  0.00000000000E+00 0.  1.
</event>
<event>
12    1  0.8417180E-002  0.2248523E+03  0.7818608E-02  0.1130507E+00
         21   -1    0    0  501  502  0.00000000000E+00  0.00000000000E+00  0.36480606022E+03  0.36480606022E+03  0.00000000000E+00 0. -1.
         21   -1    0    0  502  503 -0.00000000000E+00 -0.00000000000E+00 -0.30185319090E+03  0.30185319090E+03  0.00000000000E+00 0.  1.
         -6    2    1    2    0  503 -0.14227450080E+03  0.30286121059E+02 -0.21418561108E+03  0.30977793239E+03  0.17008118266E+03 0.  0.
        -24    2    3    3    0    0 -0.98829621646E+02 -0.37773339004E+02 -0.86472560120E+02  0.15860828922E+03  0.80529289719E+02 0.  0.
          6    2    1    2  501    0  0.14227450080E+03 -0.30286121059E+02  0.27713848039E+03  0.35688131873E+03  0.17146211138E+03 0.  0.
         24    2    5    5    0    0  0.12679001974E+03 -0.73282291285E+02  0.15922756683E+03  0.23033680742E+03  0.79092499578E+02 0.  0.
          5    1    5    5  501    0  0.15484481064E+02  0.42996170226E+02  0.11791091356E+03  0.12654451132E+03  0.47000000000E+01 0. -1.
        -13    1    6    6    0    0  0.51283727459E+02 -0.59957730166E+02  0.12153725813E+03  0.14490084618E+03  0.00000000000E+00 0.  1.
         14    1    6    6    0    0  0.75506292280E+02 -0.13324561120E+02  0.37690308703E+02  0.85435961240E+02  0.00000000000E+00 0. -1.
         -5    1    3    3    0  503 -0.43444879157E+02  0.68059460063E+02 -0.12771305096E+03  0.15116964317E+03  0.47000000000E+01 0.  1.
         11    1    4    4    0    0 -0.82478281630E+02 -0.66925991940E+01 -0.22702371941E+02  0.85807083136E+02  0.00000000000E+00 0. -1.
        -12    1    4    4    0    0 -0.16351340017E+02 -0.31080739810E+02 -0.63770188179E+02  0.72801206088E+02  0.00000000000E+00 0.  1.
</event>
<event>
12    1  0.8417180E-002  0.1870586E+03  0.7818608E-02  0.1161619E+00
         21   -1    0    0  503  502  0.00000000000E+00  0.00000000000E+00  0.77162704555E+03  0.77162704555E+03  0.00000000000E+00 0.  1.
         21   -1    0    0  501  503 -0.00000000000E+00 -0.00000000000E+00 -0.83554092827E+02  0.83554092827E+02  0.00000000000E+00 0.  1.
          6    2    1    2  501    0 -0.50959291868E+02 -0.47823754618E+02  0.54036258518E+02  0.19470710244E+03  0.17351362360E+03 0.  0.
         24    2    3    3    0    0 -0.15339432407E+02 -0.68851630613E+02 -0.16819844044E+02  0.11252667152E+03  0.86043590258E+02 0.  0.
         -6    2    1    2    0  502  0.50959291868E+02  0.47823754618E+02  0.63403669420E+03  0.66047403593E+03  0.17128765749E+03 0.  0.
        -24    2    5    5    0    0  0.88222574860E+02  0.73206574095E+02  0.47699652467E+03  0.49702207163E+03  0.79767348856E+02 0.  0.
          5    1    3    3  501    0 -0.35619859461E+02  0.21027875996E+02  0.70856102562E+02  0.82180430926E+02  0.47000000000E+01 0. -1.
        -11    1    4    4    0    0 -0.44330713805E+02 -0.21366606735E+02 -0.26750218322E+02  0.56011768853E+02  0.00000000000E+00 0.  1.
         12    1    4    4    0    0  0.28991281398E+02 -0.47485023878E+02  0.99303742782E+01  0.56514902664E+02  0.00000000000E+00 0. -1.
         -5    1    5    5    0  502 -0.37263282991E+02 -0.25382819477E+02  0.15704016954E+03  0.16345196430E+03  0.47000000000E+01 0.  1.
         11    1    6    6    0    0  0.89961311797E+01 -0.16583770407E+02  0.46501968131E+02  0.50183511806E+02  0.00000000000E+00 0. -1.
        -12    1    6    6    0    0  0.79226443680E+02  0.89790344502E+02  0.43049455653E+03  0.44683855983E+03  0.00000000000E+00 0.  1.
</event>
<event>
12    1  0.8417180E-002  0.2897136E+03  0.7818608E-02  0.1090657E+00
         21   -1    0    0  503  502  0.00000000000E+00  0.00000000000E+00  0.23415906067E+03  0.23415906067E+03  0.00000000000E+00 0.  1.
         21   -1    0    0  501  503 -0.00000000000E+00 -0.00000000000E+00 -0.45717734706E+03  0.45717734706E+03  0.00000000000E+00 0. -1.
          6    2    1    2  501    0  0.20919335467E+03 -0.99829506545E+02 -0.27353834912E+03  0.39844348727E+03  0.17379929254E+03 0.  0.
         24    2    3    3    0    0  0.19882237359E+02 -0.44744904266E+02 -0.13845940676E+03  0.15940076469E+03  0.61969239503E+02 0.  0.
         -6    2    1    2    0  502 -0.20919335467E+03  0.99829506545E+02  0.50520062735E+02  0.29289292046E+03  0.17177367698E+03 0.  0.
        -24    2    5    5    0    0 -0.75632899954E+02  0.80650667724E+02 -0.24779573900E+02  0.13830201452E+03  0.79300404654E+02 0.  0.
          5    1    3    3  501    0  0.18931111731E+03 -0.55084602279E+02 -0.13507894237E+03  0.23904272258E+03  0.47000000000E+01 0. -1.
        -11    1    4    4    0    0  0.10295140244E+02 -0.59861405534E+02 -0.11280804083E+03  0.12812116087E+03  0.00000000000E+00 0.  1.
         12    1    4    4    0    0  0.95870971155E+01  0.15116501268E+02 -0.25651365924E+02  0.31279603826E+02  0.00000000000E+00 0. -1.
         -5    1    5    5    0  502 -0.13356045472E+03  0.19178838821E+02  0.75299636634E+02  0.15459090594E+03  0.47000000000E+01 0.  1.
         13    1    6    6    0    0 -0.12906379779E+02  0.32912498319E+02 -0.44707277569E+02  0.56996033654E+02  0.00000000000E+00 0. -1.
        -14    1    6    6    0    0 -0.62726520174E+02  0.47738169405E+02  0.19927703670E+02  0.81305980868E+02  0.00000000000E+00 0.  1.
</event>
<event>
12    1  0.8417180E-002  0.1949542E+03  0.7818608E-02  0.1154124E+00
         21   -1    0    0  501  502  0.00000000000E+00  0.00000000000E+00  0.49691207636E+03  0.49691207636E+03  0.00000000000E+00 0. -1.
         21   -1    0    0  502  503 -0.00000000000E+00 -0.00000000000E+00 -0.10204298710E+03  0.10204298710E+03  0.00000000000E+00 0. -1.
         -6    2    1    2    0  503 -0.63742885201E+02 -0.67365761832E+02  0.47363958826E+02  0.20062520877E+03  0.17148127745E+03 0.  0.
        -24    2    3    3    0    0  0.28533765702E+02 -0.56650428513E+02  0.31884327687E+02  0.10633041756E+03  0.79158704572E+02 0.  0.
          6    2    1    2  501    0  0.63742885201E+02  0.67365761832E+02  0.34750513044E+03  0.39832985469E+03  0.17118865668E+03 0.  0.
         24    2    5    5    0    0  0.22013033769E+02  0.14788525236E+02  0.58529808399E+02  0.10162364805E+03  0.78729621098E+02 0.  0.
          5    1    5    5  501    0  0.41729851432E+02  0.52577236596E+02  0.28897532204E+03  0.29670620663E+03  0.47000000000E+01 0. -1.
        -11    1    6    6    0    0  0.34389465313E+02 -0.14990629225E+01  0.70119075476E+02  0.78112529467E+02  0.00000000000E+00 0.  1.
         12    1    6    6    0    0 -0.12376431544E+02  0.16287588159E+02 -0.11589267078E+02  0.23511118587E+02  0.00000000000E+00 0. -1.
         -5    1    3    3    0  503 -0.92276650903E+02 -0.10715333319E+02  0.15479631139E+02  0.94294791215E+02  0.47000000000E+01 0.  1.
         13    1    4    4    0    0  0.32786268455E+02 -0.15348753489E+02 -0.18815505296E+02  0.40798858715E+02  0.00000000000E+00 0. -1.
        -14    1    4    4    0    0 -0.42525027531E+01 -0.41301675024E+02  0.50699832984E+02  0.65531558840E+02  0.00000000000E+00 0.  1.
</event>
<event>
12    1  0.8417180E-002  0.1964390E+03  0.7818608E-02  0.1152929E+00
         21   -1    0    0  501  502  0.00000000000E+00  0.00000000000E+00  0.75243953040E+02  0.75243953040E+02  0.00000000000E+00 0. -1.
         21   -1    0    0  502  503 -0.00000000000E+00 -0.00000000000E+00 -0.16086143813E+04  0.16086143813E+04  0.00000000000E+00 0. -1.
         -6    2    1    2    0  503  0.84504782560E+02 -0.41326561103E+02 -0.14625675313E+04  0.14757005322E+04  0.17245096159E+03 0.  0.
        -24    2    3    3    0    0  0.44119060526E+02 -0.66211923321E+02 -0.13317032659E+04  0.13364244260E+04  0.79159002680E+02 0.  0.
          6    2    1    2  501    0 -0.84504782560E+02  0.41326561103E+02 -0.70802896930E+02  0.20815780212E+03  0.17166151998E+03 0.  0.
         24    2    5    5    0    0 -0.60748199623E+02 -0.38549582646E+01 -0.10514114629E+03  0.14645731352E+03  0.81791684040E+02 0.  0.
          5    1    5    5  501    0 -0.23756582937E+02  0.45181519367E+02  0.34338249362E+02  0.61700488608E+02  0.47000000000E+01 0. -1.
        -11    1    6    6    0    0  0.19116707410E+02 -0.77883049960E+01 -0.32058000883E+02  0.38129012805E+02  0.00000000000E+00 0.  1.
         12    1    6    6    0    0 -0.79864907033E+02  0.39333467314E+01 -0.73083145409E+02  0.10832830071E+03  0.00000000000E+00 0. -1.
         -5    1    3    3    0  503  0.40385722034E+02  0.24885362218E+02 -0.13086426545E+03  0.13927610624E+03  0.47000000000E+01 0.  1.
         11    1    4    4    0    0  0.10271675082E+02 -0.69932498162E+01 -0.83140368885E+03  0.83149654641E+03  0.00000000000E+00 0. -1.
        -12    1    4    4    0    0  0.33847385444E+02 -0.59218673505E+02 -0.50029957701E+03  0.50492787956E+03  0.00000000000E+00 0.  1.
</event>
<event>
12    1  0.8417180E-002  0.1945204E+03  0.7818608E-02  0.1154551E+00
         21   -1    0    0  503  502  0.00000000000E+00  0.00000000000E+00  0.36290126809E+03  0.36290126809E+03  0.00000000000E+00 0. -1.
         21   -1    0    0  501  503 -0.00000000000E+00 -0.00000000000E+00 -0.11436422414E+03  0.11436422414E+03  0.00000000000E+00 0.  1.
          6    2    1    2  501    0 -0.31519074957E+02 -0.85315609003E+02  0.52327574683E+02  0.20097514797E+03  0.17140778805E+03 0.  0.
         24    2    3    3    0    0 -0.45232389426E+02 -0.67228921825E+02 -0.27703712243E+02  0.11765480151E+03  0.80681222497E+02 0.  0.
         -6    2    1    2    0  502  0.31519074957E+02  0.85315609003E+02  0.19620946926E+03  0.27629034426E+03  0.17194764691E+03 0.  0.
        -24    2    5    5    0    0  0.58995759068E+02  0.98338471125E+02  0.80669269603E+02  0.15672366477E+03  0.70027291463E+02 0.  0.
          5    1    3    3  501    0  0.13713314469E+02 -0.18086687178E+02  0.80031286926E+02  0.83320346458E+02  0.47000000000E+01 0. -1.
        -11    1    4    4    0    0 -0.32829083689E+02 -0.53667061874E+02  0.20418608570E+02  0.66142436015E+02  0.00000000000E+00 0.  1.
         12    1    4    4    0    0 -0.12403305738E+02 -0.13561859951E+02 -0.48122320813E+02  0.51512365496E+02  0.00000000000E+00 0. -1.
         -5    1    5    5    0  502 -0.27476684111E+02 -0.13022862121E+02  0.11554019966E+03  0.11956667949E+03  0.47000000000E+01 0.  1.
         13    1    6    6    0    0  0.43874053962E+02  0.88870020538E+02  0.92294263402E+02  0.13542911141E+03  0.00000000000E+00 0. -1.
        -14    1    6    6    0    0  0.15121705106E+02  0.94684505869E+01 -0.11624993799E+02  0.21294553356E+02  0.00000000000E+00 0.  1.
</event>
<event>
12    1  0.8417180E-002  0.2750072E+03  0.7818608E-02  0.1098571E+00
         21   -1    0    0  501  502  0.00000000000E+00  0.00000000000E+00  0.11273546705E+04  0.11273546705E+04  0.00000000000E+00 0.  1.
         21   -1    0    0  502  503 -0.00000000000E+00 -0.00000000000E+00 -0.23685973001E+03  0.23685973001E+03  0.00000000000E+00 0. -1.
         -6    2    1    2    0  503  0.17351311016E+03 -0.12546023355E+03 -0.13280813540E+03  0.30460214724E+03  0.17116482606E+03 0.  0.
        -24    2    3    3    0    0  0.11011164492E+03 -0.14931784360E+03 -0.12039524399E+03  0.23557243463E+03  0.81110815660E+02 0.  0.
          6    2    1    2  501    0 -0.17351311016E+03  0.12546023355E+03  0.10233030759E+04  0.10596122533E+04  0.17257425230E+03 0.  0.
         24    2    5    5    0    0 -0.11264282428E+03  0.96935006986E+02  0.92662854033E+03  0.94176940844E+03  0.78767794625E+02 0.  0.
          5    1    5    5  501    0 -0.60870285874E+02  0.28525226566E+02  0.96674535564E+02  0.11784284484E+03  0.47000000000E+01 0. -1.
        -13    1    6    6    0    0 -0.41829671129E+02  0.17545426820E+02  0.50093371707E+03  0.50298325249E+03  0.00000000000E+00 0.  1.
         14    1    6    6    0    0 -0.70813153154E+02  0.79389580166E+02  0.42569482326E+03  0.43878615595E+03  0.00000000000E+00 0. -1.
         -5    1    3    3    0  503  0.63401465234E+02  0.23857610044E+02 -0.12412891407E+02  0.69029712617E+02  0.47000000000E+01 0.  1.
         13    1    4    4    0    0  0.26206140457E+01 -0.59688148250E+02 -0.54541283181E+02  0.80896812240E+02  0.00000000000E+00 0. -1.
        -14    1    4    4    0    0  0.10749103088E+03 -0.89629695345E+02 -0.65853960810E+02  0.15467562239E+03  0.00000000000E+00 0.  1.
</event>
<event>
12    1  0.8417180E-002  0.1767863E+03  0.7818608E-02  0.1170956E+00
         21   -1    0    0  503  502  0.00000000000E+00  0.00000000000E+00  0.28617462750E+02  0.28617462750E+02  0.00000000000E+00 0. -1.
         21   -1    0    0  501  503 -0.00000000000E+00 -0.00000000000E+00 -0.14025097963E+04  0.14025097963E+04  0.00000000000E+00 0. -1.
          6    2    1    2  501    0  0.39368093508E+02 -0.73498806332E+00 -0.10236219220E+04  0.10387718652E+04  0.17232168136E+03 0.  0.
         24    2    3    3    0    0  0.58606517773E+02 -0.43472466174E+02 -0.90012231763E+03  0.90659451741E+03  0.79805094295E+02 0.  0.
         -6    2    1    2    0  502 -0.39368093508E+02  0.73498806332E+00 -0.35027041159E+03  0.39235539383E+03  0.17234560289E+03 0.  0.
        -24    2    5    5    0    0  0.30275064718E+02 -0.36857884693E+02 -0.23151519316E+03  0.24956784019E+03  0.80060845516E+02 0.  0.
          5    1    3    3  501    0 -0.19238424264E+02  0.42737478111E+02 -0.12349960436E+03  0.13217734783E+03  0.47000000000E+01 0. -1.
        -11    1    4    4    0    0  0.69667982089E+02 -0.57106325111E+02 -0.71830613741E+03  0.72393263992E+03  0.00000000000E+00 0.  1.
         12    1    4    4    0    0 -0.11061464317E+02  0.13633858937E+02 -0.18181618021E+03  0.18266187749E+03  0.00000000000E+00 0. -1.
         -5    1    5    5    0  502 -0.69643158227E+02  0.37592872756E+02 -0.11875521843E+03  0.14278755364E+03  0.47000000000E+01 0.  1.
         13    1    6    6    0    0  0.53560876008E+02 -0.29934125736E+02 -0.11295512350E+03  0.12854446409E+03  0.00000000000E+00 0. -1.
        -14    1    6    6    0    0 -0.23285811289E+02 -0.69237589567E+01 -0.11856006966E+03  0.12102337610E+03  0.00000000000E+00 0.  1.
</event>
<event>
12    1  0.8417180E-002  0.2013454E+03  0.7818608E-02  0.1148672E+00
         21   -1    0    0  503  502  0.00000000000E+00  0.00000000000E+00  0.11866594317E+03  0.11866594317E+03  0.00000000000E+00 0.  1.
         21   -1    0    0  501  503 -0.00000000000E+00 -0.00000000000E+00 -0.35562589357E+03  0.35562589357E+03  0.00000000000E+00 0.  1.
          6    2    1    2  501    0  0.73894899603E+02  0.73939159580E+02 -0.16645493081E+03  0.26124170910E+03  0.17208291918E+03 0.  0.
         24    2    3    3    0    0  0.53708692773E+02  0.11702093911E+03 -0.13997094568E+03  0.20658812603E+03  0.80673814285E+02 0.  0.
         -6    2    1    2    0  502 -0.73894899603E+02 -0.73939159580E+02 -0.70505019598E+02  0.21305012764E+03  0.17173218566E+03 0.  0.
        -24    2    5    5    0    0 -0.63224745213E+02  0.76469345826E+01 -0.80472338725E+02  0.13003458448E+03  0.79858323584E+02 0.  0.
          5    1    3    3  501    0  0.20186206830E+02 -0.43081779534E+02 -0.26483985135E+02  0.54653583072E+02  0.47000000000E+01 0. -1.
        -13    1    4    4    0    0  0.74115396068E+02  0.89041335749E+02 -0.94956432647E+02  0.14979377660E+03  0.00000000000E+00 0.  1.
         14    1    4    4    0    0 -0.20406703295E+02  0.27979603365E+02 -0.45014513029E+02  0.56794349430E+02  0.00000000000E+00 0. -1.
         -5    1    5    5    0  502 -0.10670154390E+02 -0.81586094163E+02  0.99673191272E+01  0.83015543160E+02  0.47000000000E+01 0.  1.
         13    1    6    6    0    0  0.94367140291E+01 -0.61562001433E+01  0.86611523593E+01  0.14211471847E+02  0.00000000000E+00 0. -1.
        -14    1    6    6    0    0 -0.72661459242E+02  0.13803134726E+02 -0.89133491084E+02  0.11582311263E+03  0.00000000000E+00 0.  1.
</event>
<event>
12    1  0.8417180E-002  0.2122075E+03  0.7818608E-02  0.1139890E+00
         21   -1    0    0  503  502  0.00000000000E+00  0.00000000000E+00  0.13183584513E+03  0.13183584513E+03  0.00000000000E+00 0.  1.
         21   -1    0    0  501  503 -0.00000000000E+00 -0.00000000000E+00 -0.41381075301E+03  0.41381075301E+03  0.00000000000E+00 0.  1.
          6    2    1    2  501    0  0.83900744458E+00  0.12161210010E+03 -0.25527899473E+03  0.33176650354E+03  0.17352648472E+03 0.  0.
         24    2    3    3    0    0 -0.29206279834E+02  0.73324962666E+02 -0.25181351049E+03  0.27459599970E+03  0.75916810073E+02 0.  0.
         -6    2    1    2    0  502 -0.83900744458E+00 -0.12161210010E+03 -0.26695913148E+02  0.21388009460E+03  0.17390174313E+03 0.  0.
        -24    2    5    5    0    0  0.40213499896E+02 -0.78201505234E+02  0.39373874946E+02  0.12467754417E+03  0.79130190172E+02 0.  0.
          5    1    3    3  501    0  0.30045287279E+02  0.48287137429E+02 -0.34654842387E+01  0.57170503844E+02  0.47000000000E+01 0. -1.
        -13    1    4    4    0    0  0.11524234014E+02  0.11598680011E+02 -0.13735493253E+03  0.13832467183E+03  0.00000000000E+00 0.  1.
         14    1    4    4    0    0 -0.40730513848E+02  0.61726282655E+02 -0.11445857796E+03  0.13627132787E+03  0.00000000000E+00 0. -1.
         -5    1    5    5    0  502 -0.41052507341E+02 -0.43410594861E+02 -0.66069788094E+02  0.89202550434E+02  0.47000000000E+01 0.  1.
         11    1    6    6    0    0  0.43492806965E+02 -0.92066676095E+02  0.25894220716E+02  0.10506382713E+03  0.00000000000E+00 0. -1.
        -12    1    6    6    0    0 -0.32793070688E+01  0.13865170861E+02  0.13479654230E+02  0.19613717037E+02  0.00000000000E+00 0.  1.
</event>
<event>
12    1  0.8417180E-002  0.1959816E+03  0.7818608E-02  0.1153440E+00
         21   -1    0    0  503  502  0.00000000000E+00  0.00000000000E+00  0.19972393060E+04  0.19972393060E+04  0.00000000000E+00 0.  1.
         21   -1    0    0  501  503 -0.00000000000E+00 -0.00000000000E+00 -0.19125089622E+02  0.19125089622E+02  0.00000000000E+00 0.  1.
          6    2    1    2  501    0 -0.57335230931E+02  0.72410007615E+02  0.96504379261E+03  0.98474276933E+03  0.17285329672E+03 0.  0.
         24    2    3    3    0    0 -0.95047763361E+02  0.71042759028E+02  0.88052661594E+03  0.89206403594E+03  0.79812103755E+02 0.  0.
         -6    2    1    2    0  502  0.57335230931E+02 -0.72410007615E+02  0.10130704238E+04  0.10316216263E+04  0.17146707675E+03 0.  0.
        -24    2    5    5    0    0  0.93277897247E+02 -0.26390262943E+02  0.82033854246E+03  0.83018339696E+03  0.82776423314E+02 0.  0.
          5    1    3    3  501    0  0.37712532431E+02  0.13672485876E+01  0.84517176667E+02  0.92678733390E+02  0.47000000000E+01 0. -1.
        -11    1    4    4    0    0 -0.21581890835E+02  0.65565442638E+02  0.39658912970E+03  0.40255129248E+03  0.00000000000E+00 0.  1.
         12    1    4    4    0    0 -0.73465872527E+02  0.54773163900E+01  0.48393748624E+03  0.48951274346E+03  0.00000000000E+00 0. -1.
         -5    1    5    5    0  502 -0.35942666316E+02 -0.46019744672E+02  0.19273188129E+03  0.20143822931E+03  0.47000000000E+01 0.  1.
         13    1    6    6    0    0 -0.63662093957E+00  0.21034456071E+02  0.18493994444E+03  0.18613338410E+03  0.00000000000E+00 0. -1.
        -14    1    6    6    0    0  0.93914518186E+02 -0.47424719015E+02  0.63539859802E+03  0.64405001286E+03  0.00000000000E+00 0.  1.
</event>
<event>
12    1  0.8417180E-002  0.2083813E+03  0.7818608E-02  0.1143207E+00
         21   -1    0    0  503  502  0.00000000000E+00  0.00000000000E+00  0.99950707680E+03  0.99950707680E+03  0.00000000000E+00 0. -1.
         21   -1    0    0  501  503 -0.00000000000E+00 -0.00000000000E+00 -0.46145481444E+02  0.46145481444E+02  0.00000000000E+00 0.  1.
          6    2    1    2  501    0 -0.34696373520E+02  0.11042484811E+03  0.34379042357E+03  0.40201320189E+03  0.17327802440E+03 0.  0.
         24    2    3    3    0    0 -0.30957221123E+02  0.12377614470E+03  0.16786531713E+03  0.22547999975E+03  0.79897321952E+02 0.  0.
         -6    2    1    2    0  502  0.34696373520E+02 -0.11042484811E+03  0.60957117178E+03  0.64363935635E+03  0.17116402122E+03 0.  0.
        -24    2    5    5    0    0 -0.20868333351E+02 -0.67060954039E+02  0.17984867800E+03  0.20814954519E+03  0.77769063857E+02 0.  0.
          5    1    3    3  501    0 -0.37391523967E+01 -0.13351296591E+02  0.17592510644E+03  0.17653320214E+03  0.47000000000E+01 0. -1.
        -13    1    4    4    0    0  0.17109552209E+02  0.40785350993E+02  0.18426727039E+02  0.47913733958E+02  0.00000000000E+00 0.  1.
         14    1    4    4    0    0 -0.48066773332E+02  0.82990793711E+02  0.14943859009E+03  0.17756626580E+03  0.00000000000E+00 0. -1.
         -5    1    5    5    0  502  0.55564706871E+02 -0.43363894074E+02  0.42972249378E+03  0.43548981116E+03  0.47000000000E+01 0.  1.
         11    1    6    6    0    0 -0.36418771406E+02 -0.55023953732E+01  0.97086036141E+02  0.10383786245E+03  0.00000000000E+00 0. -1.
        -12    1    6    6    0    0  0.15550438055E+02 -0.61558558666E+02  0.82762641859E+02  0.10431168274E+03  0.00000000000E+00 0.  1.
</event>
<event>
12    1  0.8417180E-002  0.2162087E+03  0.7818608E-02  0.1136833E+00
         21   -1    0    0  503  502  0.00000000000E+00  0.00000000000E+00  0.46773558739E+03  0.46773558739E+03  0.00000000000E+00 0.  1.
         21   -1    0    0  501  503 -0.00000000000E+00 -0.00000000000E+00 -0.30329514505E+03  0.30329514505E+03  0.00000000000E+00 0.  1.
          6    2    1    2  501    0 -0.11272776878E+03  0.65705493134E+02 -0.23359309486E+03  0.31829535822E+03  0.17239907022E+03 0.  0.
         24    2    3    3    0    0 -0.14097100475E+03  0.23783342562E+02 -0.19725865294E+03  0.25586596805E+03  0.78217299118E+02 0.  0.
         -6    2    1    2    0  502  0.11272776878E+03 -0.65705493134E+02  0.39803353720E+03  0.45273537423E+03  0.17179598556E+03 0.  0.
        -24    2    5    5    0    0  0.56091209544E+01 -0.71951136993E+02  0.22283252877E+03  0.24723380213E+03  0.79131464566E+02 0.  0.
          5    1    3    3  501    0  0.28243235977E+02  0.41922150572E+02 -0.36334441928E+02  0.62429390172E+02  0.47000000000E+01 0. -1.
        -13    1    4    4    0    0 -0.10308876815E+03  0.63406129540E+01 -0.18586233394E+03  0.21263185243E+03  0.00000000000E+00 0.  1.
         14    1    4    4    0    0 -0.37882236608E+02  0.17442729608E+02 -0.11396319001E+02  0.43234115619E+02  0.00000000000E+00 0. -1.
         -5    1    5    5    0  502  0.10711864782E+03  0.62456438583E+01  0.17520100843E+03  0.20550157210E+03  0.47000000000E+01 0.  1.
         11    1    6    6    0    0 -0.66239094140E+01  0.12234918728E+02  0.78279560482E+02  0.79506345668E+02  0.00000000000E+00 0. -1.
        -12    1    6    6    0    0  0.12233030368E+02 -0.84186055721E+02  0.14455296829E+03  0.16772745646E+03  0.00000000000E+00 0.  1.
</event>
<event>
12    1  0.8417180E-002  0.1755586E+03  0.7818608E-02  0.1172225E+00
         21   -1    0    0  503  502  0.00000000000E+00  0.00000000000E+00  0.22562222640E+03  0.22562222640E+03  0.00000000000E+00 0. -1.
         21   -1    0    0  501  503 -0.00000000000E+00 -0.00000000000E+00 -0.14454621834E+03  0.14454621834E+03  0.00000000000E+00 0. -1.
          6    2    1    2  501    0 -0.31272826783E+01 -0.37688321583E+02 -0.32697434885E+01  0.17558901450E+03  0.17143693100E+03 0.  0.
         24    2    3    3    0    0 -0.47887445962E+02  0.27176146931E+02  0.28935745024E+02  0.90323810680E+02  0.65493228603E+02 0.  0.
         -6    2    1    2    0  502  0.31272826783E+01  0.37688321583E+02  0.84345751554E+02  0.19457943024E+03  0.17122137538E+03 0.  0.
        -24    2    5    5    0    0 -0.33156661718E+02  0.71720978401E+02  0.90814529877E+02  0.14419410059E+03  0.79381338165E+02 0.  0.
          5    1    3    3  501    0  0.44760163284E+02 -0.64864468514E+02 -0.32205488513E+02  0.85265203824E+02  0.47000000000E+01 0. -1.
        -11    1    4    4    0    0 -0.59114968111E+02  0.13488974133E+02  0.36826687843E+02  0.70941784693E+02  0.00000000000E+00 0.  1.
         12    1    4    4    0    0  0.11227522149E+02  0.13687172798E+02 -0.78909428190E+01  0.19382025987E+02  0.00000000000E+00 0. -1.
         -5    1    5    5    0  502  0.36283944396E+02 -0.34032656818E+02 -0.64687783234E+01  0.50385329651E+02  0.47000000000E+01 0.  1.
         11    1    6    6    0    0 -0.33901719192E+02  0.13376400358E+02  0.23299682535E+00  0.36445972867E+02  0.00000000000E+00 0. -1.
        -12    1    6    6    0    0  0.74505747383E+00  0.58344578043E+02  0.90581533052E+02  0.10774812772E+03  0.00000000000E+00 0.  1.
</event>
<event>
12    1  0.8417180E-002  0.1973713E+03  0.7818608E-02  0.1152034E+00
         21   -1    0    0  503  502  0.00000000000E+00  0.00000000000E+00  0.11741272504E+04  0.11741272504E+04  0.00000000000E+00 0. -1.
         21   -1    0    0  501  503 -0.00000000000E+00 -0.00000000000E+00 -0.64530489786E+02  0.64530489786E+02  0.00000000000E+00 0. -1.
          6    2    1    2  501    0 -0.43465302796E+02 -0.86633671979E+02  0.12298968267E+03  0.23255515393E+03  0.17193257955E+03 0.  0.
         24    2    3    3    0    0 -0.14168654496E+02  0.95969839191E+01  0.10061496118E+03  0.12939823028E+03  0.79546707758E+02 0.  0.
         -6    2    1    2    0  502  0.43465302796E+02  0.86633671979E+02  0.98660707800E+03  0.10061025863E+04  0.17162244068E+03 0.  0.
        -24    2    5    5    0    0 -0.31370377126E+02  0.44011911916E+02  0.33467282713E+03  0.34848769074E+03  0.80725587162E+02 0.  0.
          5    1    3    3  501    0 -0.29296648300E+02 -0.96230655898E+02  0.22374721486E+02  0.10315692365E+03  0.47000000000E+01 0. -1.
        -13    1    4    4    0    0 -0.30013953200E+02 -0.20585795594E+02  0.83853175349E+02  0.91410980648E+02  0.00000000000E+00 0.  1.
         14    1    4    4    0    0  0.15845298704E+02  0.30182779513E+02  0.16761785831E+02  0.37987249629E+02  0.00000000000E+00 0. -1.
         -5    1    5    5    0  502  0.74835679922E+02  0.42621760064E+02  0.65193425086E+03  0.65761489557E+03  0.47000000000E+01 0.  1.
         11    1    6    6    0    0  0.23263016967E+02 -0.37677473636E+01  0.10534735747E+03  0.10795105189E+03  0.00000000000E+00 0. -1.
        -12    1    6    6    0    0 -0.54633394093E+02  0.47779659279E+02  0.22932546967E+03  0.24053663885E+03  0.00000000000E+00 0.  1.
</event>
<event>
12    1  0.8417180E-002  0.1784092E+03  0.7818608E-02  0.1170138E+00
         21   -1    0    0  503  502  0.00000000000E+00  0.00000000000E+00  0.11717189349E+04  0.11717189349E+04  0.00000000000E+00 0. -1.
         21   -1    0    0  501  503 -0.00000000000E+00 -0.00000000000E+00 -0.45420613027E+02  0.45420613027E+02  0.00000000000E+00 0. -1.
          6    2    1    2  501    0  0.52261038292E+02  0.43605780986E+01  0.17525392413E+03  0.25008751574E+03  0.17052740790E+03 0.  0.
         24    2    3    3    0    0  0.70838461463E+02  0.29667122896E+02  0.18640405745E+03  0.21644294212E+03  0.78758166280E+02 0.  0.
         -6    2    1    2    0  502 -0.52261038292E+02 -0.43605780986E+01  0.95104439777E+03  0.96705203221E+03  0.16719436505E+03 0.  0.
        -24    2    5    5    0    0 -0.24188951070E+02 -0.64837816907E+02  0.48040912140E+03  0.49169407039E+03  0.78619889872E+02 0.  0.
          5    1    3    3  501    0 -0.18577423171E+02 -0.25306544797E+02 -0.11150133322E+02  0.33644573624E+02  0.47000000000E+01 0. -1.
        -11    1    4    4    0    0  0.21134408755E+02  0.50929531344E+02  0.81055066195E+02  0.98032668801E+02  0.00000000000E+00 0.  1.
         12    1    4    4    0    0  0.49704052708E+02 -0.21262408449E+02  0.10534899126E+03  0.11841027332E+03  0.00000000000E+00 0. -1.
         -5    1    5    5    0  502 -0.28072087222E+02  0.60477238808E+02  0.47063527637E+03  0.47535796182E+03  0.47000000000E+01 0.  1.
         11    1    6    6    0    0  0.24323376813E+02 -0.29274375533E+02  0.27620206473E+03  0.27881211646E+03  0.00000000000E+00 0. -1.
        -12    1    6    6    0    0 -0.48512327883E+02 -0.35563441374E+02  0.20420705667E+03  0.21288195394E+03  0.00000000000E+00 0.  1.
</event>
<event>
12    1  0.8417180E-002  0.1763511E+03  0.7818608E-02  0.1172174E+00
         21   -1    0    0  503  502  0.00000000000E+00  0.00000000000E+00  0.35332501014E+02  0.35332501014E+02  0.00000000000E+00 0.  1.
         21   -1    0    0  501  503 -0.00000000000E+00 -0.00000000000E+00 -0.19026771040E+04  0.19026771040E+04  0.00000000000E+00 0.  1.
          6    2    1    2  501    0  0.48469298106E+01  0.36203995664E+02 -0.16456014071E+04  0.16546904148E+04  0.16929901230E+03 0.  0.
         24    2    3    3    0    0 -0.48842908327E+02 -0.30266739680E+00 -0.60926628446E+03  0.61631287666E+03  0.79059694300E+02 0.  0.
         -6    2    1    2    0  502 -0.48469298106E+01 -0.36203995664E+02 -0.22174319587E+03  0.28331919026E+03  0.17252679972E+03 0.  0.
        -24    2    5    5    0    0 -0.16534644711E+02  0.42389022671E+02 -0.12981900182E+03  0.16172308562E+03  0.85036224460E+02 0.  0.
          5    1    3    3  501    0  0.53689838138E+02  0.36506663061E+02 -0.10363351227E+04  0.10383775381E+04  0.47000000000E+01 0. -1.
        -13    1    4    4    0    0 -0.73142852431E+01 -0.44646694247E+01 -0.48781536366E+03  0.48789062408E+03  0.00000000000E+00 0.  1.
         14    1    4    4    0    0 -0.41528623084E+02  0.41620020279E+01 -0.12145092080E+03  0.12842225258E+03  0.00000000000E+00 0. -1.
         -5    1    5    5    0  502  0.11687714901E+02 -0.78593018335E+02 -0.91924194055E+02  0.12159610464E+03  0.47000000000E+01 0.  1.
         11    1    6    6    0    0 -0.45953504187E+02  0.17637405298E+02 -0.10499213552E+03  0.11595754022E+03  0.00000000000E+00 0. -1.
        -12    1    6    6    0    0  0.29418859476E+02  0.24751617373E+02 -0.24826866295E+02  0.45765545397E+02  0.00000000000E+00 0.  1.
</event>
<event>
12    1  0.8417180E-002  0.2556302E+03  0.7818608E-02  0.1109882E+00
         21   -1    0    0  503  502  0.00000000000E+00  0.00000000000E+00  0.25983092953E+03  0.25983092953E+03  0.00000000000E+00 0. -1.
         21   -1    0    0  501  503 -0.00000000000E+00 -0.00000000000E+00 -0.37353683343E+03  0.37353683343E+03  0.00000000000E+00 0. -1.
          6    2    1    2  501    0  0.17580328455E+03 -0.65008618124E+02 -0.23822597964E+03  0.34902281594E+03  0.17300980720E+03 0.  0.
         24    2    3    3    0    0  0.67900476010E+02  0.25925397407E+02 -0.70750461958E+02  0.12997453292E+03  0.81272076807E+02 0.  0.
         -6    2    1    2    0  502 -0.17580328455E+03  0.65008618124E+02  0.12452007574E+03  0.28434494702E+03  0.17382141510E+03 0.  0.
        -24    2    5    5    0    0 -0.14508931348E+03 -0.10473277502E+02  0.55088114286E+02  0.17718267821E+03  0.84843401005E+02 0.  0.
          5    1    3    3  501    0  0.10790280854E+03 -0.90934015531E+02 -0.16747551768E+03  0.21904828302E+03  0.47000000000E+01 0. -1.
        -13    1    4    4    0    0  0.24451571294E+02 -0.88188169798E+01  0.13286149098E+02  0.29191995984E+02  0.00000000000E+00 0.  1.
         14    1    4    4    0    0  0.43448904717E+02  0.34744214387E+02 -0.84036611056E+02  0.10078253694E+03  0.00000000000E+00 0. -1.
         -5    1    5    5    0  502 -0.30713971073E+02  0.75481895626E+02  0.69431961452E+02  0.10716226881E+03  0.47000000000E+01 0.  1.
         11    1    6    6    0    0 -0.12503565571E+03  0.97688821110E+01  0.71433778273E+02  0.14433340201E+03  0.00000000000E+00 0. -1.
        -12    1    6    6    0    0 -0.20053657763E+02 -0.20242159613E+02 -0.16345663987E+02  0.32849276197E+02  0.00000000000E+00 0.  1.
</event>
<event>
12    1  0.8417180E-002  0.1968867E+03  0.7818608E-02  0.1152685E+00
         21   -1    0    0  501  502  0.00000000000E+00  0.00000000000E+00  0.47059032447E+03  0.47059032447E+03  0.00000000000E+00 0. -1.
         21   -1    0    0  502  503 -0.00000000000E+00 -0.00000000000E+00 -0.11689315246E+03  0.11689315246E+03  0.00000000000E+00 0. -1.
         -6    2    1    2    0  503  0.33074469416E+02  0.89656493742E+02  0.15495398662E+02  0.19614627330E+03  0.17059028622E+03 0.  0.
        -24    2    3    3    0    0  0.93835018223E+01  0.29808354684E+02 -0.54616767745E+02  0.10085268709E+03  0.78814244010E+02 0.  0.
          6    2    1    2  501    0 -0.33074469416E+02 -0.89656493742E+02  0.33820177335E+03  0.39133720363E+03  0.17213994323E+03 0.  0.
         24    2    5    5    0    0 -0.46339158696E+02  0.11720495057E+02  0.13447740204E+03  0.16334826683E+03  0.79459404629E+02 0.  0.
          5    1    5    5  501    0  0.13264689280E+02 -0.10137698880E+03  0.20372437130E+03  0.22798893680E+03  0.47000000000E+01 0. -1.
        -13    1    6    6    0    0  0.54282454202E+01  0.22152568643E+02  0.47679036426E+01  0.23300966739E+02  0.00000000000E+00 0.  1.
         14    1    6    6    0    0 -0.51767404116E+02 -0.10432073587E+02  0.12970949840E+03  0.14004730009E+03  0.00000000000E+00 0. -1.
         -5    1    3    3    0  503  0.23690967593E+02  0.59848139059E+02  0.70112166407E+02  0.95293586209E+02  0.47000000000E+01 0.  1.
         11    1    4    4    0    0  0.21161412554E+02  0.52867592206E+02 -0.27087282074E+02  0.63059563408E+02  0.00000000000E+00 0. -1.
        -12    1    4    4    0    0 -0.11777910732E+02 -0.23059237523E+02 -0.27529485671E+02  0.37793123682E+02  0.00000000000E+00 0.  1.
</event>
<event>
12    1  0.8417180E-002  0.1813231E+03  0.7818608E-02  0.1166772E+00
         21   -1    0    0  501  502  0.00000000000E+00  0.00000000000E+00  0.12887076245E+03  0.12887076245E+03  0.00000000000E+00 0.  1.
         21   -1    0    0  502  503 -0.00000000000E+00 -0.00000000000E+00 -0.30018279849E+03  0.30018279849E+03  0.00000000000E+00 0. -1.
         -6    2    1    2    0  503  0.23588465902E+02 -0.52082046061E+02 -0.17027758738E+03  0.24874190954E+03  0.17207302389E+03 0.  0.
        -24    2    3    3    0    0  0.41065311109E+02 -0.13264697589E+02 -0.20048242056E+02  0.92526760279E+02  0.79353370310E+02 0.  0.
          6    2    1    2  501    0 -0.23588465902E+02  0.52082046061E+02 -0.10344486632E+01  0.18031165141E+03  0.17100370261E+03 0.  0.
         24    2    5    5    0    0 -0.66295400442E+02 -0.12391091324E+02 -0.40064528798E+01  0.10277720416E+03  0.77449872599E+02 0.  0.
          5    1    5    5  501    0  0.42706934539E+02  0.64473137384E+02  0.29720042166E+01  0.77534447254E+02  0.47000000000E+01 0. -1.
        -11    1    6    6    0    0 -0.53034943727E+01 -0.10560270187E+02  0.30477240747E+02  0.32688049231E+02  0.00000000000E+00 0.  1.
         12    1    6    6    0    0 -0.60991906069E+02 -0.18308211365E+01 -0.34483693627E+02  0.70089154925E+02  0.00000000000E+00 0. -1.
         -5    1    3    3    0  503 -0.17476845206E+02 -0.38817348471E+02 -0.15022934532E+03  0.15621514926E+03  0.47000000000E+01 0.  1.
         11    1    4    4    0    0 -0.23323861929E+01  0.14865059098E+02 -0.35494703812E+02  0.38552354092E+02  0.00000000000E+00 0. -1.
        -12    1    4    4    0    0  0.43397697302E+02 -0.28129756688E+02  0.15446461756E+02  0.53974406187E+02  0.00000000000E+00 0.  1.
</event>
<event>
12    1  0.8417180E-002  0.2156983E+03  0.7818608E-02  0.1137187E+00
         21   -1    0    0  503  502  0.00000000000E+00  0.00000000000E+00  0.77782621898E+03  0.77782621898E+03  0.00000000000E+00 0.  1.
         21   -1    0    0  501  503 -0.00000000000E+00 -0.00000000000E+00 -0.64598306323E+02  0.64598306323E+02  0.00000000000E+00 0. -1.
          6    2    1    2  501    0 -0.34077937832E+00  0.13002972461E+03  0.47241504046E+03  0.51932816227E+03  0.17209858878E+03 0.  0.
         24    2    3    3    0    0 -0.74431184914E+01  0.36718963270E+01  0.25680383187E+03  0.26927411360E+03  0.80569580813E+02 0.  0.
         -6    2    1    2    0  502  0.34077937832E+00 -0.13002972461E+03  0.24081287219E+03  0.32309636303E+03  0.17173402394E+03 0.  0.
        -24    2    5    5    0    0 -0.11527584273E+02 -0.29280315347E+02  0.18780670139E+03  0.20854050039E+03  0.85015064259E+02 0.  0.
          5    1    3    3  501    0  0.71023391131E+01  0.12635782828E+03  0.21561120859E+03  0.25005404867E+03  0.47000000000E+01 0. -1.
        -11    1    4    4    0    0  0.82322587905E+01  0.31234051038E+02  0.21164256540E+03  0.21409323091E+03  0.00000000000E+00 0.  1.
         12    1    4    4    0    0 -0.15675377282E+02 -0.27562154711E+02  0.45161266469E+02  0.55180882689E+02  0.00000000000E+00 0. -1.
         -5    1    5    5    0  502  0.11868363651E+02 -0.10074940926E+03  0.53006170809E+02  0.11455586264E+03  0.47000000000E+01 0.  1.
         13    1    6    6    0    0 -0.31397629264E+02  0.18178984488E+02  0.10457785047E+03  0.11069242706E+03  0.00000000000E+00 0. -1.
        -14    1    6    6    0    0  0.19870044991E+02 -0.47459299834E+02  0.83228850920E+02  0.97848073329E+02  0.00000000000E+00 0.  1.
</event>
<event>
12    1  0.8417180E-002  0.2542175E+03  0.7818608E-02  0.1110752E+00
         21   -1    0    0  501  502  0.00000000000E+00  0.00000000000E+00  0.68581664318E+02  0.68581664318E+02  0.00000000000E+00 0.  1.
         21   -1    0    0  502  503 -0.00000000000E+00 -0.00000000000E+00 -0.16759794217E+04  0.16759794217E+04  0.00000000000E+00 0.  1.
         -6    2    1    2    0  503  0.17321442477E+03 -0.70815938882E+02 -0.13811275469E+04  0.14042307177E+04  0.17126725815E+03 0.  0.
        -24    2    3    3    0    0  0.11210519708E+03 -0.30897615516E+02 -0.47400761814E+03  0.49416672802E+03  0.77429291415E+02 0.  0.
          6    2    1    2  501    0 -0.17321442477E+03  0.70815938882E+02 -0.22627021045E+03  0.34033036823E+03  0.17207096576E+03 0.  0.
         24    2    5    5    0    0 -0.11582017468E+03 -0.76102534693E+00 -0.64317761209E+02  0.15413679271E+03  0.78781244204E+02 0.  0.
          5    1    5    5  501    0 -0.57394250094E+02  0.71576964229E+02 -0.16195244924E+03  0.18619357552E+03  0.47000000000E+01 0. -1.
        -11    1    6    6    0    0 -0.81718048997E+02 -0.62899376879E+01 -0.95214456556E+00  0.81965294041E+02  0.00000000000E+00 0.  1.
         12    1    6    6    0    0 -0.34102125679E+02  0.55289123410E+01 -0.63365616643E+02  0.72171498669E+02  0.00000000000E+00 0. -1.
         -5    1    3    3    0  503  0.61109227691E+02 -0.39918323367E+02 -0.90711992876E+03  0.91006398973E+03  0.47000000000E+01 0.  1.
         11    1    4    4    0    0  0.10574391499E+03 -0.25451412060E+02 -0.28615902289E+03  0.30613156700E+03  0.00000000000E+00 0. -1.
        -12    1    4    4    0    0  0.63612820936E+01 -0.54462034559E+01 -0.18784859525E+03  0.18803516102E+03  0.00000000000E+00 0.  1.
</event>
<event>
12    1  0.8417180E-002  0.2457969E+03  0.7818608E-02  0.1117149E+00
         21   -1    0    0  501  502  0.00000000000E+00  0.00000000000E+00  0.30450886957E+03  0.30450886957E+03  0.00000000000E+00 0.  1.
         21   -1    0    0  502  503 -0.00000000000E+00 -0.00000000000E+00 -0.37356493149E+03  0.37356493149E+03  0.00000000000E+00 0. -1.
         -6    2    1    2    0  503 -0.14793332573E+03 -0.89002910889E+02 -0.27013507305E+03  0.36050665290E+03  0.16488269190E+03 0.  0.
        -24    2    3    3    0    0 -0.13431706877E+03 -0.11898822514E+03 -0.26050184849E+03  0.32587414593E+03  0.78316493988E+02 0.  0.
          6    2    1    2  501    0  0.14793332573E+03  0.89002910889E+02  0.20107901114E+03  0.31756714816E+03  0.17495810316E+03 0.  0.
         24    2    5    5    0    0  0.12443929967E+02  0.62829243310E+02  0.11564063496E+03  0.15519645080E+03  0.81306928842E+02 0.  0.
          5    1    5    5  501    0  0.13548939576E+03  0.26173667579E+02  0.85438376176E+02  0.16237069736E+03  0.47000000000E+01 0. -1.
        -13    1    6    6    0    0  0.36723094265E+02  0.35190229741E+02  0.10536662343E+03  0.11700027032E+03  0.00000000000E+00 0.  1.
         14    1    6    6    0    0 -0.24279164298E+02  0.27639013568E+02  0.10274011529E+02  0.38196180475E+02  0.00000000000E+00 0. -1.
         -5    1    3    3    0  503 -0.13616256954E+02  0.29985314249E+02 -0.96332245609E+01  0.34632506976E+02  0.47000000000E+01 0.  1.
         11    1    4    4    0    0 -0.95104020116E+02 -0.10493323925E+03 -0.14321981211E+03  0.20141418501E+03  0.00000000000E+00 0. -1.
        -12    1    4    4    0    0 -0.39213048657E+02 -0.14054985883E+02 -0.11728203639E+03  0.12445996092E+03  0.00000000000E+00 0.  1.
</event>
<event>
12    1  0.8417180E-002  0.1764026E+03  0.7818608E-02  0.1172041E+00
         21   -1    0    0  501  502  0.00000000000E+00  0.00000000000E+00  0.48456906786E+02  0.48456906786E+02  0.00000000000E+00 0. -1.
         21   -1    0    0  502  503 -0.00000000000E+00 -0.00000000000E+00 -0.64748979818E+03  0.64748979818E+03  0.00000000000E+00 0. -1.
         -6    2    1    2    0  503 -0.31657395306E+02 -0.43216895440E+01 -0.35113382468E+03  0.39169052119E+03  0.17060373349E+03 0.  0.
        -24    2    3    3    0    0 -0.10141902478E+02 -0.40812645236E+02 -0.32999508274E+03  0.34411486892E+03  0.88032710849E+02 0.  0.
          6    2    1    2  501    0  0.31657395306E+02  0.43216895440E+01 -0.24789906671E+03  0.30425618377E+03  0.17348489965E+03 0.  0.
         24    2    5    5    0    0  0.32488216259E+02  0.66461488007E+02 -0.11148050447E+03  0.15427565523E+03  0.76814460458E+02 0.  0.
          5    1    5    5  501    0 -0.83082095305E+00 -0.62139798463E+02 -0.13641856225E+03  0.14998052854E+03  0.47000000000E+01 0. -1.
        -11    1    6    6    0    0  0.39431621674E+02  0.46033965545E+01 -0.22342132445E+02  0.45554526996E+02  0.00000000000E+00 0.  1.
         12    1    6    6    0    0 -0.69434054143E+01  0.61858091452E+02 -0.89138372021E+02  0.10872112823E+03  0.00000000000E+00 0. -1.
         -5    1    3    3    0  503 -0.21515492828E+02  0.36490955692E+02 -0.21138741937E+02  0.47575652278E+02  0.47000000000E+01 0.  1.
         11    1    4    4    0    0  0.20282147438E+02 -0.36940420376E+01 -0.24984459108E+03  0.25069369985E+03  0.00000000000E+00 0. -1.
        -12    1    4    4    0    0 -0.30424049916E+02 -0.37118603198E+02 -0.80150491656E+02  0.93421169065E+02  0.00000000000E+00 0.  1.
</event>
<event>
12    1  0.8417180E-002  0.2429175E+03  0.7818608E-02  0.1117986E+00
         21   -1    0    0  503  502  0.00000000000E+00  0.00000000000E+00  0.20791236587E+04  0.20791236587E+04  0.00000000000E+00 0.  1.
         21   -1    0    0  501  503 -0.00000000000E+00 -0.00000000000E+00 -0.28314367760E+02  0.28314367760E+02  0.00000000000E+00 0.  1.
          6    2    1    2  501    0 -0.22476512319E+02  0.16973736829E+03  0.10510830834E+04  0.10786224865E+04  0.17127420254E+03 0.  0.
         24    2    3    3    0    0 -0.43855820088E+02  0.15626358231E+03  0.10238816072E+04  0.10411975214E+04  0.97041706767E+02 0.  0.
         -6    2    1    2    0  502  0.22476512319E+02 -0.16973736829E+03  0.99972620752E+03  0.10288155399E+04  0.17231644536E+03 0.  0.
        -24    2    5    5    0    0 -0.47450307531E+02 -0.74207587844E+02  0.59514231523E+03  0.60724002474E+03  0.82387951095E+02 0.  0.
          5    1    3    3  501    0  0.21379307769E+02  0.13473785983E+02  0.27201476185E+02  0.37424965144E+02  0.47000000000E+01 0. -1.
        -13    1    4    4    0    0 -0.18736673653E+02  0.29148886358E+02  0.51199523651E+03  0.51316648636E+03  0.00000000000E+00 0.  1.
         14    1    4    4    0    0 -0.25119146435E+02  0.12711469595E+03  0.51188637071E+03  0.52803103504E+03  0.00000000000E+00 0. -1.
         -5    1    5    5    0  502  0.69926819850E+02 -0.95529780448E+02  0.40458389229E+03  0.42157551517E+03  0.47000000000E+01 0.  1.
         11    1    6    6    0    0 -0.19264919515E+02 -0.48631196743E+02  0.52357748472E+03  0.52618391549E+03  0.00000000000E+00 0. -1.
        -12    1    6    6    0    0 -0.28185388016E+02 -0.25576391100E+02  0.71564830514E+02  0.81056109244E+02  0.00000000000E+00 0.  1.
</event>
<event>
12    1  0.8417180E-002  0.1868075E+03  0.7818608E-02  0.1161587E+00
         21   -1    0    0  501  502  0.00000000000E+00  0.00000000000E+00  0.25132173380E+03  0.25132173380E+03  0.00000000000E+00 0.  1.
         21   -1    0    0  502  503 -0.00000000000E+00 -0.00000000000E+00 -0.49834510498E+03  0.49834510498E+03  0.00000000000E+00 0.  1.
         -6    2    1    2    0  503  0.69007993645E+02 -0.21670386533E+02 -0.44208999297E+03  0.47957790583E+03  0.17122995369E+03 0.  0.
        -24    2    3    3    0    0 -0.13822944296E+01  0.30725490756E+02 -0.17609493159E+03  0.19944296819E+03  0.88442671304E+02 0.  0.
          6    2    1    2  501    0 -0.69007993645E+02  0.21670386533E+02  0.19506662179E+03  0.27008893295E+03  0.17223627935E+03 0.  0.
         24    2    5    5    0    0 -0.27229660002E+02  0.71007300945E+02  0.15500133782E+03  0.19388606381E+03  0.88220744955E+02 0.  0.
          5    1    5    5  501    0 -0.41778333643E+02 -0.49336914412E+02  0.40065283970E+02  0.76202869141E+02  0.47000000000E+01 0. -1.
        -13    1    6    6    0    0  0.81271636918E+01  0.64875897644E+02  0.14089857077E+03  0.15532977863E+03  0.00000000000E+00 0.  1.
         14    1    6    6    0    0 -0.35356823694E+02  0.61314033013E+01  0.14102767057E+02  0.38556285179E+02  0.00000000000E+00 0. -1.
         -5    1    3    3    0  503  0.70390288075E+02 -0.52395877289E+02 -0.26599506138E+03  0.28013493764E+03  0.47000000000E+01 0.  1.
         13    1    4    4    0    0  0.41310093789E+02  0.23791648153E+02 -0.11589427799E+03  0.12531580125E+03  0.00000000000E+00 0. -1.
        -14    1    4    4    0    0 -0.42692388218E+02  0.69338426026E+01 -0.60200653599E+02  0.74127166942E+02  0.00000000000E+00 0.  1.
</event>
<event>
12    1  0.8417180E-002  0.2907453E+03  0.7818608E-02  0.1089999E+00
         21   -1    0    0  503  502  0.00000000000E+00  0.00000000000E+00  0.22329955528E+03  0.22329955528E+03  0.00000000000E+00 0.  1.
         21   -1    0    0  501  503 -0.00000000000E+00 -0.00000000000E+00 -0.38406128057E+03  0.38406128057E+03  0.00000000000E+00 0. -1.
          6    2    1    2  501    0  0.20316105208E+03 -0.11590647694E+03 -0.42847035717E+02  0.29388553565E+03  0.17269659846E+03 0.  0.
         24    2    3    3    0    0  0.83846149661E+02 -0.80535040162E+02  0.36334171451E+02  0.14630864706E+03  0.81055405016E+02 0.  0.
         -6    2    1    2    0  502 -0.20316105208E+03  0.11590647694E+03 -0.11791468957E+03  0.31347530020E+03  0.17220384822E+03 0.  0.
        -24    2    5    5    0    0 -0.12735868097E+03 -0.18896773125E+00 -0.70689943237E+02  0.16692695185E+03  0.81530790819E+02 0.  0.
          5    1    3    3  501    0  0.11931490242E+03 -0.35371436774E+02 -0.79181207168E+02  0.14757688860E+03  0.47000000000E+01 0. -1.
        -11    1    4    4    0    0  0.38507253834E+02 -0.35189627585E+02  0.58576845349E+02  0.78437014849E+02  0.00000000000E+00 0.  1.
         12    1    4    4    0    0  0.45338895827E+02 -0.45345412578E+02 -0.22242673899E+02  0.67871632210E+02  0.00000000000E+00 0. -1.
         -5    1    5    5    0  502 -0.75802371108E+02  0.11609544467E+03 -0.47224746333E+02  0.14654834835E+03  0.47000000000E+01 0.  1.
         11    1    6    6    0    0 -0.30202339217E+02  0.36480689999E+02 -0.21109734416E+02  0.51852125551E+02  0.00000000000E+00 0. -1.
        -12    1    6    6    0    0 -0.97156341756E+02 -0.36669657730E+02 -0.49580208821E+02  0.11507482630E+03  0.00000000000E+00 0.  1.
</event>
<event>
12    1  0.8417180E-002  0.2268938E+03  0.7818608E-02  0.1131176E+00
         21   -1    0    0  501  502  0.00000000000E+00  0.00000000000E+00  0.84716075843E+03  0.84716075843E+03  0.00000000000E+00 0. -1.
         21   -1    0    0  502  503 -0.00000000000E+00 -0.00000000000E+00 -0.66084516231E+02  0.66084516231E+02  0.00000000000E+00 0. -1.
         -6    2    1    2    0  503  0.12525028004E+03 -0.29853732084E+02  0.56539515264E+03  0.60922282808E+03  0.18682049582E+03 0.  0.
        -24    2    3    3    0    0  0.11051732149E+03  0.31811401271E+02  0.23426941859E+03  0.27204929637E+03  0.76828481489E+02 0.  0.
          6    2    1    2  501    0 -0.12525028004E+03  0.29853732084E+02  0.21568108956E+03  0.30402244658E+03  0.17126715290E+03 0.  0.
         24    2    5    5    0    0 -0.79915330928E+02 -0.42023318130E+02  0.87186925706E+02  0.14989779540E+03  0.81947359118E+02 0.  0.
          5    1    5    5  501    0 -0.45334949109E+02  0.71877050214E+02  0.12849416385E+03  0.15412465119E+03  0.47000000000E+01 0. -1.
        -11    1    6    6    0    0 -0.20186094044E+02 -0.28311193341E+02  0.81189819605E+02  0.88322074640E+02  0.00000000000E+00 0.  1.
         12    1    6    6    0    0 -0.59729236884E+02 -0.13712124788E+02  0.59971061004E+01  0.61575720755E+02  0.00000000000E+00 0. -1.
         -5    1    3    3    0  503  0.14732958551E+02 -0.61665133355E+02  0.33112573404E+03  0.33717353171E+03  0.47000000000E+01 0.  1.
         13    1    4    4    0    0  0.27174995170E+02 -0.55484300776E+01  0.13221922139E+03  0.13509695757E+03  0.00000000000E+00 0. -1.
        -14    1    4    4    0    0  0.83342326315E+02  0.37359831348E+02  0.10205019720E+03  0.13695233880E+03  0.00000000000E+00 0.  1.
</event>
<event>
12    1  0.8417180E-002  0.1771399E+03  0.7818608E-02  0.1170667E+00
         21   -1    0    0  503  502  0.00000000000E+00  0.00000000000E+00  0.12976179185E+04  0.12976179185E+04  0.00000000000E+00 0. -1.
         21   -1    0    0  501  503 -0.00000000000E+00 -0.00000000000E+00 -0.38485195365E+02  0.38485195365E+02  0.00000000000E+00 0. -1.
          6    2    1    2  501    0  0.21827238315E+02 -0.35713895512E+02  0.22207068720E+03  0.28406679158E+03  0.17212391264E+03 0.  0.
         24    2    3    3    0    0  0.49803728299E+02 -0.23694076397E+01  0.47965675735E+02  0.10454190785E+03  0.78372692963E+02 0.  0.
         -6    2    1    2    0  502 -0.21827238315E+02  0.35713895512E+02  0.10370620359E+04  0.10520363223E+04  0.17184541414E+03 0.  0.
        -24    2    5    5    0    0 -0.87333378468E+01  0.69314235144E+02  0.96878214543E+03  0.97467569599E+03  0.81074858396E+02 0.  0.
          5    1    3    3  501    0 -0.27976489983E+02 -0.33344487873E+02  0.17410501146E+03  0.17952488374E+03  0.47000000000E+01 0. -1.
        -11    1    4    4    0    0  0.18986448955E+02  0.36881630373E+01  0.65690386816E+02  0.68478571178E+02  0.00000000000E+00 0.  1.
         12    1    4    4    0    0  0.30817279344E+02 -0.60575706770E+01 -0.17724711082E+02  0.36063336667E+02  0.00000000000E+00 0. -1.
         -5    1    5    5    0  502 -0.13093900468E+02 -0.33600339632E+02  0.68279890482E+02  0.77360626271E+02  0.47000000000E+01 0.  1.
         11    1    6    6    0    0  0.34622830936E+02  0.41218482427E+02  0.57611884223E+03  0.57862822614E+03  0.00000000000E+00 0. -1.
        -12    1    6    6    0    0 -0.43356168783E+02  0.28095752717E+02  0.39266330320E+03  0.39604746984E+03  0.00000000000E+00 0.  1.
</event>
<event>
12    1  0.8417180E-002  0.1852029E+03  0.7818608E-02  0.1163264E+00
         21   -1    0    0  503  502  0.00000000000E+00  0.00000000000E+00  0.13492070976E+03  0.13492070976E+03  0.00000000000E+00 0. -1.
         21   -1    0    0  501  503 -0.00000000000E+00 -0.00000000000E+00 -0.63308003707E+03  0.63308003707E+03  0.00000000000E+00 0.  1.
          6    2    1    2  501    0 -0.27812021095E+02  0.63704078879E+02 -0.54659556432E+03  0.57656877834E+03  0.16980320093E+03 0.  0.
         24    2    3    3    0    0  0.46459879797E+02  0.10213199378E+02 -0.33091258034E+03  0.34222111134E+03  0.73139068550E+02 0.  0.
         -6    2    1    2    0  502  0.27812021095E+02 -0.63704078879E+02  0.48436237002E+02  0.19143196848E+03  0.17166365754E+03 0.  0.
        -24    2    5    5    0    0  0.14097293621E+02 -0.65353536257E+02  0.95795062740E+02  0.14187631457E+03  0.80513205139E+02 0.  0.
          5    1    3    3  501    0 -0.74271900892E+02  0.53490879501E+02 -0.21568298398E+03  0.23434766700E+03  0.47000000000E+01 0. -1.
        -13    1    4    4    0    0  0.52018687842E+02  0.18121043344E+02 -0.13145911564E+03  0.14253355809E+03  0.00000000000E+00 0.  1.
         14    1    4    4    0    0 -0.55588080455E+01 -0.79078439660E+01 -0.19945346470E+03  0.19968755326E+03  0.00000000000E+00 0. -1.
         -5    1    5    5    0  502  0.13714727475E+02  0.16494573782E+01 -0.47358825738E+02  0.49555653912E+02  0.47000000000E+01 0.  1.
         11    1    6    6    0    0 -0.83463532945E+01 -0.78151353759E+02  0.75972186924E+02  0.10931179668E+03  0.00000000000E+00 0. -1.
        -12    1    6    6    0    0  0.22443646915E+02  0.12797817502E+02  0.19822875817E+02  0.32564517889E+02  0.00000000000E+00 0.  1.
</event>
<event>
12    1  0.8417180E-002  0.2100605E+03  0.7818608E-02  0.1141636E+00
         21   -1    0    0  501  502  0.00000000000E+00  0.00000000000E+00  0.74595980171E+02  0.74595980171E+02  0.00000000000E+00 0.  1.
         21   -1    0    0  502  503 -0.00000000000E+00 -0.00000000000E+00 -0.77753436079E+03  0.77753436079E+03  0.00000000000E+00 0. -1.
         -6    2    1    2    0  503 -0.10296641707E+03 -0.60557985018E+02 -0.56117582996E+03  0.59920258623E+03  0.17278910447E+03 0.  0.
        -24    2    3    3    0    0 -0.94238271179E+02  0.46767941872E+00 -0.21641566555E+03  0.24894272097E+03  0.79092778112E+02 0.  0.
          6    2    1    2  501    0  0.10296641707E+03  0.60557985018E+02 -0.14176255066E+03  0.25292775473E+03  0.17206532407E+03 0.  0.
         24    2    5    5    0    0  0.19803191427E+02  0.68977929860E+02 -0.29536203251E+02  0.11291396747E+03  0.82018629276E+02 0.  0.
          5    1    5    5  501    0  0.83163225642E+02 -0.84199448413E+01 -0.11222634741E+03  0.14001378726E+03  0.47000000000E+01 0. -1.
        -11    1    6    6    0    0  0.48716418371E+02  0.21291146005E+02 -0.16112343337E+02  0.55553667070E+02  0.00000000000E+00 0.  1.
         12    1    6    6    0    0 -0.28913226944E+02  0.47686783854E+02 -0.13423859914E+02  0.57360300397E+02  0.00000000000E+00 0. -1.
         -5    1    3    3    0  503 -0.87281458899E+01 -0.61025664437E+02 -0.34476016441E+03  0.35025986527E+03  0.47000000000E+01 0.  1.
         13    1    4    4    0    0 -0.70145910161E+02 -0.21958708283E+02 -0.19805239728E+03  0.21125194827E+03  0.00000000000E+00 0. -1.
        -14    1    4    4    0    0 -0.24092361018E+02  0.22426387701E+02 -0.18363268270E+02  0.37690772694E+02  0.00000000000E+00 0.  1.
</event>
<event>
12    1  0.8417180E-002  0.2101692E+03  0.7818608E-02  0.1142281E+00
         21   -1    0    0  503  502  0.00000000000E+00  0.00000000000E+00  0.35100935311E+03  0.35100935311E+03  0.00000000000E+00 0. -1.
         21   -1    0    0  501  503 -0.00000000000E+00 -0.00000000000E+00 -0.17608476848E+03  0.17608476848E+03  0.00000000000E+00 0. -1.
          6    2    1    2  501    0  0.93351228180E+02  0.76184716617E+02 -0.57439728463E+02  0.21378232976E+03  0.16698802132E+03 0.  0.
         24    2    3    3    0    0  0.78294040751E+02  0.56223677417E+02 -0.98670075320E+02  0.16533448687E+03  0.91151796822E+02 0.  0.
         -6    2    1    2    0  502 -0.93351228180E+02 -0.76184716617E+02  0.23236431309E+03  0.31331179183E+03  0.17219913488E+03 0.  0.
        -24    2    5    5    0    0 -0.10419649528E+03 -0.93776535702E+02  0.24183886176E+03  0.29009651691E+03  0.77582251795E+02 0.  0.
          5    1    3    3  501    0  0.15057187428E+02  0.19961039201E+02  0.41230346857E+02  0.48447842895E+02  0.47000000000E+01 0. -1.
        -13    1    4    4    0    0  0.44895219377E+01 -0.23332776390E+02 -0.22743587016E+02  0.32891412430E+02  0.00000000000E+00 0.  1.
         14    1    4    4    0    0  0.73804518814E+02  0.79556453807E+02 -0.75926488304E+02  0.13244307443E+03  0.00000000000E+00 0. -1.
         -5    1    5    5    0  502  0.10845267102E+02  0.17591819085E+02 -0.94745486615E+01  0.23215274919E+02  0.47000000000E+01 0.  1.
         11    1    6    6    0    0 -0.39040216349E+02 -0.61021481287E+02  0.59600093781E+02  0.93807946624E+02  0.00000000000E+00 0. -1.
        -12    1    6    6    0    0 -0.65156278933E+02 -0.32755054415E+02  0.18223876797E+03  0.19628857029E+03  0.00000000000E+00 0.  1.
</event>
<event>
12    1  0.8417180E-002  0.1785417E+03  0.7818608E-02  0.1169553E+00
         21   -1    0    0  503  502  0.00000000000E+00  0.00000000000E+00  0.12027469560E+03  0.12027469560E+03  0.00000000000E+00 0.  1.
         21   -1    0    0  501  503 -0.00000000000E+00 -0.00000000000E+00 -0.37436722237E+03  0.37436722237E+03  0.00000000000E+00 0.  1.
          6    2    1    2  501    0 -0.18208942733E+02 -0.34108991866E+02 -0.26157865399E+03  0.31594332620E+03  0.17292138163E+03 0.  0.
         24    2    3    3    0    0 -0.79766524884E+00 -0.35346202493E+02 -0.47372149558E+02  0.10097542205E+03  0.81865285708E+02 0.  0.
         -6    2    1    2    0  502  0.18208942733E+02  0.34108991866E+02  0.74861272271E+01  0.17869859177E+03  0.17430477813E+03 0.  0.
        -24    2    5    5    0    0 -0.46627585067E+02 -0.14793621246E+02  0.20202314596E+02  0.96363712604E+02  0.80528558122E+02 0.  0.
          5    1    3    3  501    0 -0.17411277484E+02  0.12372106275E+01 -0.21420650443E+03  0.21496790415E+03  0.47000000000E+01 0. -1.
        -13    1    4    4    0    0  0.11730015222E+01 -0.59670489227E+02 -0.47959961696E+02  0.76564359483E+02  0.00000000000E+00 0.  1.
         14    1    4    4    0    0 -0.19706667710E+01  0.24324286734E+02  0.58781213741E+00  0.24411062569E+02  0.00000000000E+00 0. -1.
         -5    1    5    5    0  502  0.64836527799E+02  0.48902613112E+02 -0.12716187369E+02  0.82334879167E+02  0.47000000000E+01 0.  1.
         13    1    6    6    0    0 -0.46953320121E+02  0.86079297891E+01  0.42591974824E+02  0.63974893865E+02  0.00000000000E+00 0. -1.
        -14    1    6    6    0    0  0.32573505433E+00 -0.23401551035E+02 -0.22389660228E+02  0.32388818739E+02  0.00000000000E+00 0.  1.
</event>
<event>
12    1  0.8417180E-002  0.2350692E+03  0.7818608E-02  0.1123268E+00
         21   -1    0    0  501  502  0.00000000000E+00  0.00000000000E+00  0.22684802275E+03  0.22684802275E+03  0.00000000000E+00 0. -1.
         21   -1    0    0  502  503 -0.00000000000E+00 -0.00000000000E+00 -0.25994425011E+03  0.25994425011E+03  0.00000000000E+00 0.  1.
         -6    2    1    2    0  503 -0.77561443753E+02 -0.13789350940E+03 -0.79252647912E+02  0.24806955886E+03  0.17385950172E+03 0.  0.
        -24    2    3    3    0    0 -0.11537826085E+03 -0.11391034474E+03 -0.33727533608E+02  0.18403886407E+03  0.80281051622E+02 0.  0.
          6    2    1    2  501    0  0.77561443753E+02  0.13789350940E+03  0.46156420556E+02  0.23872271401E+03  0.17270703962E+03 0.  0.
         24    2    5    5    0    0  0.10980867053E+03  0.13825798372E+03  0.19497673388E+02  0.19661813852E+03  0.84293053933E+02 0.  0.
          5    1    5    5  501    0 -0.32247226778E+02 -0.36447432641E+00  0.26658747168E+02  0.42104575488E+02  0.47000000000E+01 0. -1.
        -13    1    6    6    0    0  0.11116916444E+02  0.77009443638E+02 -0.47836627577E+01  0.77954625713E+02  0.00000000000E+00 0.  1.
         14    1    6    6    0    0  0.98691754086E+02  0.61248540086E+02  0.24281336145E+02  0.11866351281E+03  0.00000000000E+00 0. -1.
         -5    1    3    3    0  503  0.37816817095E+02 -0.23983164653E+02 -0.45525114305E+02  0.64030694784E+02  0.47000000000E+01 0.  1.
         11    1    4    4    0    0 -0.31613150329E+02 -0.96616423589E+01  0.21411481231E+02  0.39385151203E+02  0.00000000000E+00 0. -1.
        -12    1    4    4    0    0 -0.83765110519E+02 -0.10424870239E+03 -0.55139014839E+02  0.14465371287E+03  0.00000000000E+00 0.  1.
</event>
<event>
12    1  0.8417180E-002  0.1788777E+03  0.7818608E-02  0.1169213E+00
         21   -1    0    0  501  502  0.00000000000E+00  0.00000000000E+00  0.48528084272E+02  0.48528084272E+02  0.00000000000E+00 0. -1.
         21   -1    0    0  502  503 -0.00000000000E+00 -0.00000000000E+00 -0.94945939446E+03  0.94945939446E+03  0.00000000000E+00 0. -1.
         -6    2    1    2    0  503  0.15624696378E+01  0.47080822690E+02 -0.72742446356E+03  0.74878506775E+03  0.17121238951E+03 0.  0.
        -24    2    3    3    0    0 -0.71003316250E+02  0.25374168477E+02 -0.46123868862E+03  0.47199285525E+03  0.65960656347E+02 0.  0.
          6    2    1    2  501    0 -0.15624696378E+01 -0.47080822690E+02 -0.17350684663E+03  0.24920241098E+03  0.17256352638E+03 0.  0.
         24    2    5    5    0    0 -0.92301605513E+01 -0.91893013714E+02 -0.15969978379E+03  0.20145672078E+03  0.80939900992E+02 0.  0.
          5    1    5    5  501    0  0.76676909135E+01  0.44812191024E+02 -0.13807062837E+02  0.47745690198E+02  0.47000000000E+01 0. -1.
        -11    1    6    6    0    0 -0.39183948688E+02 -0.47165579730E+02 -0.11935557261E+03  0.13418541821E+03  0.00000000000E+00 0.  1.
         12    1    6    6    0    0  0.29953788137E+02 -0.44727433984E+02 -0.40344211179E+02  0.67271302576E+02  0.00000000000E+00 0. -1.
         -5    1    3    3    0  503  0.72565785887E+02  0.21706654213E+02 -0.26618577494E+03  0.27679221250E+03  0.47000000000E+01 0.  1.
         13    1    4    4    0    0 -0.13881451567E+01 -0.88853466593E+01 -0.18066761712E+03  0.18089130496E+03  0.00000000000E+00 0. -1.
        -14    1    4    4    0    0 -0.69615171093E+02  0.34259515136E+02 -0.28057107150E+03  0.29110155030E+03  0.00000000000E+00 0.  1.
</event>
<event>
12    1  0.8417180E-002  0.1914941E+03  0.7818608E-02  0.1158859E+00
         21   -1    0    0  501  502  0.00000000000E+00  0.00000000000E+00  0.18292698066E+03  0.18292698066E+03  0.00000000000E+00 0. -1.
         21   -1    0    0  502  503 -0.00000000000E+00 -0.00000000000E+00 -0.30592960676E+03  0.30592960676E+03  0.00000000000E+00 0. -1.
         -6    2    1    2    0  503 -0.13656177715E+01  0.64741382681E+02 -0.20948752334E+03  0.27873843288E+03  0.17209526428E+03 0.  0.
        -24    2    3    3    0    0  0.61850012890E+02  0.61981417376E+02 -0.11176106473E+03  0.16222069139E+03  0.78472268559E+02 0.  0.
          6    2    1    2  501    0  0.13656177715E+01 -0.64741382681E+02  0.86484897243E+02  0.21011815453E+03  0.18021290151E+03 0.  0.
         24    2    5    5    0    0  0.52763611789E+02  0.25020847114E+01  0.80079268885E+02  0.12510897991E+03  0.80307586136E+02 0.  0.
          5    1    5    5  501    0 -0.51397994018E+02 -0.67243467393E+02  0.64056283581E+01  0.85009174627E+02  0.47000000000E+01 0. -1.
        -11    1    6    6    0    0  0.24751878063E+01  0.23509255631E+02 -0.49127424191E+01  0.24144289037E+02  0.00000000000E+00 0.  1.
         12    1    6    6    0    0  0.50288423983E+02 -0.21007170920E+02  0.84992011304E+02  0.10096469087E+03  0.00000000000E+00 0. -1.
         -5    1    3    3    0  503 -0.63215630662E+02  0.27599653051E+01 -0.97726458615E+02  0.11651774149E+03  0.47000000000E+01 0.  1.
         13    1    4    4    0    0 -0.12665618633E+02  0.36744117439E+02 -0.38975797596E+02  0.55042355146E+02  0.00000000000E+00 0. -1.
        -14    1    4    4    0    0  0.74515631524E+02  0.25237299937E+02 -0.72785267132E+02  0.10717833625E+03  0.00000000000E+00 0.  1.
</event>
<event>
12    1  0.8417180E-002  0.2145306E+03  0.7818608E-02  0.1138248E+00
         21   -1    0    0  503  502  0.00000000000E+00  0.00000000000E+00  0.24500370156E+03  0.24500370156E+03  0.00000000000E+00 0.  1.
         21   -1    0    0  501  503 -0.00000000000E+00 -0.00000000000E+00 -0.20106294057E+03  0.20106294057E+03  0.00000000000E+00 0. -1.
          6    2    1    2  501    0 -0.46184211858E+02 -0.11966361374E+03 -0.37276604238E+02  0.21774512807E+03  0.17196230312E+03 0.  0.
         24    2    3    3    0    0 -0.69549735858E+02 -0.10033254369E+03  0.24610128184E+02  0.14866766698E+03  0.81195022711E+02 0.  0.
         -6    2    1    2    0  502  0.46184211858E+02  0.11966361374E+03  0.81217365230E+02  0.22832151407E+03  0.17053472225E+03 0.  0.
        -24    2    5    5    0    0  0.33436913575E+02  0.42756528384E+02 -0.21851792000E+02  0.99005874783E+02  0.79865602853E+02 0.  0.
          5    1    3    3  501    0  0.23365523999E+02 -0.19331070047E+02 -0.61886732422E+02  0.69077461091E+02  0.47000000000E+01 0. -1.
        -13    1    4    4    0    0  0.16083915546E+01 -0.23326855330E+02  0.36289376905E+02  0.43169989334E+02  0.00000000000E+00 0.  1.
         14    1    4    4    0    0 -0.71158127412E+02 -0.77005688364E+02 -0.11679248721E+02  0.10549767764E+03  0.00000000000E+00 0. -1.
         -5    1    5    5    0  502  0.12747298283E+02  0.76907085356E+02  0.10306915723E+03  0.12931563929E+03  0.47000000000E+01 0.  1.
         11    1    6    6    0    0  0.51601126409E+02  0.23205665500E+01 -0.17163755552E+02  0.54430283670E+02  0.00000000000E+00 0. -1.
        -12    1    6    6    0    0 -0.18164212833E+02  0.40435961834E+02 -0.46880364480E+01  0.44575591113E+02  0.00000000000E+00 0.  1.
</event>
<event>
12    1  0.8417180E-002  0.2316981E+03  0.7818608E-02  0.1125477E+00
         21   -1    0    0  501  502  0.00000000000E+00  0.00000000000E+00  0.53608482621E+03  0.53608482621E+03  0.00000000000E+00 0.  1.
         21   -1    0    0  502  503 -0.00000000000E+00 -0.00000000000E+00 -0.11343277427E+03  0.11343277427E+03  0.00000000000E+00 0. -1.
         -6    2    1    2    0  503  0.15338636985E+03 -0.21777799103E+02  0.99818606978E+02  0.25214442797E+03  0.17207965385E+03 0.  0.
        -24    2    3    3    0    0  0.54817002468E+02  0.25039694741E+02 -0.57949483921E+01  0.10020986642E+03  0.79853276881E+02 0.  0.
          6    2    1    2  501    0 -0.15338636985E+03  0.21777799103E+02  0.32283344497E+03  0.39737317251E+03  0.17228567570E+03 0.  0.
         24    2    5    5    0    0 -0.12618683379E+03 -0.73775142111E+01  0.15741345873E+03  0.22715064491E+03  0.10411951669E+03 0.  0.
          5    1    5    5  501    0 -0.27199536063E+02  0.29155313314E+02  0.16541998623E+03  0.17022252760E+03  0.47000000000E+01 0. -1.
        -11    1    6    6    0    0 -0.60173590686E+02 -0.41244322208E+02  0.12801964238E+03  0.14734647591E+03  0.00000000000E+00 0.  1.
         12    1    6    6    0    0 -0.66013243103E+02  0.33866807997E+02  0.29393816358E+02  0.79804168995E+02  0.00000000000E+00 0. -1.
         -5    1    3    3    0  503  0.98569367385E+02 -0.46817493844E+02  0.10561355537E+03  0.15193456155E+03  0.47000000000E+01 0.  1.
         11    1    4    4    0    0  0.10786422133E+02 -0.23965882520E+02 -0.19740690876E+02  0.32869519371E+02  0.00000000000E+00 0. -1.
        -12    1    4    4    0    0  0.44030580334E+02  0.49005577261E+02  0.13945742484E+02  0.67340347049E+02  0.00000000000E+00 0.  1.
</event>
<event>
12    1  0.8417180E-002  0.1878282E+03  0.7818608E-02  0.1160981E+00
         21   -1    0    0  501  502  0.00000000000E+00  0.00000000000E+00  0.20938207786E+04  0.20938207786E+04  0.00000000000E+00 0.  1.
         21   -1    0    0  502  503 -0.00000000000E+00 -0.00000000000E+00 -0.17207181257E+02  0.17207181257E+02  0.00000000000E+00 0. -1.
         -6    2    1    2    0  503  0.65530539928E+02 -0.30343413610E+02  0.85259303839E+03  0.87303741864E+03  0.17339109211E+03 0.  0.
        -24    2    3    3    0    0  0.10518764731E+03 -0.15581627960E+02  0.75589032471E+03  0.76737710767E+03  0.78677913713E+02 0.  0.
          6    2    1    2  501    0 -0.65530539928E+02  0.30343413610E+02  0.12240205590E+04  0.12379905412E+04  0.17081942802E+03 0.  0.
         24    2    5    5    0    0 -0.25321085384E+01 -0.42230199361E+02  0.57722646985E+03  0.58407891465E+03  0.78536486640E+02 0.  0.
          5    1    5    5  501    0 -0.62998431390E+02  0.72573612971E+02  0.64679408912E+03  0.65391162658E+03  0.47000000000E+01 0. -1.
        -11    1    6    6    0    0 -0.24287205156E+02 -0.35460737754E+02  0.14459108234E+03  0.15084400336E+03  0.00000000000E+00 0.  1.
         12    1    6    6    0    0  0.21755096618E+02 -0.67694616066E+01  0.43263538750E+03  0.43323491129E+03  0.00000000000E+00 0. -1.
         -5    1    3    3    0  503 -0.39657107383E+02 -0.14761785650E+02  0.96702713677E+02  0.10566031097E+03  0.47000000000E+01 0.  1.
         13    1    4    4    0    0  0.49462875463E+02  0.30634169207E+02  0.27687198127E+03  0.28291893253E+03  0.00000000000E+00 0. -1.
        -14    1    4    4    0    0  0.55724771848E+02 -0.46215797167E+02  0.47901834344E+03  0.48445817513E+03  0.00000000000E+00 0.  1.
</event>
<event>
12    1  0.8417180E-002  0.1822186E+03  0.7818608E-02  0.1166894E+00
         21   -1    0    0  503  502  0.00000000000E+00  0.00000000000E+00  0.46579287406E+03  0.46579287406E+03  0.00000000000E+00 0.  1.
         21   -1    0    0  501  503 -0.00000000000E+00 -0.00000000000E+00 -0.86401881361E+02  0.86401881361E+02  0.00000000000E+00 0.  1.
          6    2    1    2  501    0 -0.20437204739E+02  0.58152473326E+02  0.64805829594E+02  0.18864635399E+03  0.16609714577E+03 0.  0.
         24    2    3    3    0    0  0.93532105413E+01  0.89696188347E+02  0.84254184415E+02  0.14086766308E+03  0.67912017779E+02 0.  0.
         -6    2    1    2    0  502  0.20437204739E+02 -0.58152473326E+02  0.31458516310E+03  0.36354840143E+03  0.17147660437E+03 0.  0.
        -24    2    5    5    0    0 -0.53554581216E+02 -0.34637652578E+02  0.20646024033E+03  0.23035373146E+03  0.79806958435E+02 0.  0.
          5    1    3    3  501    0 -0.29790415280E+02 -0.31543715021E+02 -0.19448354820E+02  0.47778690911E+02  0.47000000000E+01 0. -1.
        -11    1    4    4    0    0  0.26701837674E+02  0.72372927874E+02  0.32710334089E+02  0.83790183079E+02  0.00000000000E+00 0.  1.
         12    1    4    4    0    0 -0.17348627133E+02  0.17323260473E+02  0.51543850326E+02  0.57077480001E+02  0.00000000000E+00 0. -1.
         -5    1    5    5    0  502  0.73991785955E+02 -0.23514820748E+02  0.10812492277E+03  0.13319466997E+03  0.47000000000E+01 0.  1.
         11    1    6    6    0    0 -0.26279247212E+02 -0.20053981295E+02  0.14808462752E+02  0.36222252399E+02  0.00000000000E+00 0. -1.
        -12    1    6    6    0    0 -0.27275334004E+02 -0.14583671282E+02  0.19165177758E+03  0.19413147906E+03  0.00000000000E+00 0.  1.
</event>
<event>
12    1  0.8417180E-002  0.1753316E+03  0.7818608E-02  0.1172665E+00
         21   -1    0    0  501  502  0.00000000000E+00  0.00000000000E+00  0.47282151802E+03  0.47282151802E+03  0.00000000000E+00 0. -1.
         21   -1    0    0  502  503 -0.00000000000E+00 -0.00000000000E+00 -0.27493199204E+03  0.27493199204E+03  0.00000000000E+00 0. -1.
         -6    2    1    2    0  503  0.18519159859E+02 -0.20703039420E+02 -0.22812228555E+03  0.28707223921E+03  0.17204394276E+03 0.  0.
        -24    2    3    3    0    0 -0.44870299104E+02 -0.34970206486E+02 -0.18405323452E+03  0.20842144887E+03  0.79546515490E+02 0.  0.
          6    2    1    2  501    0 -0.18519159859E+02  0.20703039420E+02  0.42601181152E+03  0.46068127084E+03  0.17311728574E+03 0.  0.
         24    2    5    5    0    0 -0.12825436485E+02  0.63148476082E+02  0.15198189367E+03  0.18328530934E+03  0.79641614515E+02 0.  0.
          5    1    5    5  501    0 -0.56937233737E+01 -0.42445436662E+02  0.27402991786E+03  0.27739596150E+03  0.47000000000E+01 0. -1.
        -11    1    6    6    0    0 -0.43522191530E+02  0.55096200620E+02  0.11275371312E+03  0.13282760369E+03  0.00000000000E+00 0.  1.
         12    1    6    6    0    0  0.30696755044E+02  0.80522754618E+01  0.39228180547E+02  0.50457705650E+02  0.00000000000E+00 0. -1.
         -5    1    3    3    0  503  0.63389458963E+02  0.14267167066E+02 -0.44069051025E+02  0.78650790345E+02  0.47000000000E+01 0.  1.
         11    1    4    4    0    0 -0.53756559762E+02 -0.99917591977E+01 -0.58397130626E+02  0.79998923959E+02  0.00000000000E+00 0. -1.
        -12    1    4    4    0    0  0.88862606579E+01 -0.24978447289E+02 -0.12565610390E+03  0.12842252491E+03  0.00000000000E+00 0.  1.
</event>
<event>
12    1  0.8417180E-002  0.1895234E+03  0.7818608E-02  0.1159129E+00
         21   -1    0    0  501  502  0.00000000000E+00  0.00000000000E+00  0.79867785889E+02  0.79867785889E+02  0.00000000000E+00 0.  1.
         21   -1    0    0  502  503 -0.00000000000E+00 -0.00000000000E+00 -0.48720683093E+03  0.48720683093E+03  0.00000000000E+00 0.  1.
         -6    2    1    2    0  503 -0.76523001505E+02 -0.14102125215E+02 -0.28537956605E+03  0.34257936412E+03  0.17281343787E+03 0.  0.
        -24    2    3    3    0    0 -0.14515228689E+02 -0.62255468142E+02 -0.10881988742E+03  0.14929429372E+03  0.79753263630E+02 0.  0.
          6    2    1    2  501    0  0.76523001505E+02  0.14102125215E+02 -0.12195947898E+03  0.22449525269E+03  0.17166643316E+03 0.  0.
         24    2    5    5    0    0  0.59103279789E+02  0.49256962218E+02 -0.16347666279E+02  0.11173331651E+03  0.79357682779E+02 0.  0.
          5    1    5    5  501    0  0.17419721716E+02 -0.35154837004E+02 -0.10561181271E+03  0.11276193619E+03  0.47000000000E+01 0. -1.
        -13    1    6    6    0    0  0.84619203225E+01  0.87056312653E+01  0.29760199446E+02  0.32141275369E+02  0.00000000000E+00 0.  1.
         14    1    6    6    0    0  0.50641359466E+02  0.40551330953E+02 -0.46107865726E+02  0.79592041137E+02  0.00000000000E+00 0. -1.
         -5    1    3    3    0  503 -0.62007772816E+02  0.48153342928E+02 -0.17655967863E+03  0.19328507041E+03  0.47000000000E+01 0.  1.
         11    1    4    4    0    0  0.21534207410E+02 -0.17429760349E+02 -0.80587207450E+02  0.85216293273E+02  0.00000000000E+00 0. -1.
        -12    1    4    4    0    0 -0.36049436100E+02 -0.44825707793E+02 -0.28232679974E+02  0.64078000443E+02  0.00000000000E+00 0.  1.
</event>
<event>
12    1  0.8417180E-002  0.1906211E+03  0.7818608E-02  0.1158132E+00
         21   -1    0    0  501  502  0.00000000000E+00  0.00000000000E+00  0.88923712468E+03  0.88923712468E+03  0.00000000000E+00 0.  1.
         21   -1    0    0  502  503 -0.00000000000E+00 -0.00000000000E+00 -0.90412740977E+02  0.90412740977E+02  0.00000000000E+00 0.  1.
         -6    2    1    2    0  503 -0.78813419781E+02  0.18299635595E+01  0.35516175212E+02  0.19289970195E+03  0.17243547317E+03 0.  0.
        -24    2    3    3    0    0 -0.37849717959E+02  0.67194807588E+02  0.27152413166E+02  0.11516534521E+03  0.81105239542E+02 0.  0.
          6    2    1    2  501    0  0.78813419781E+02 -0.18299635595E+01  0.76330820849E+03  0.78675016370E+03  0.17355545233E+03 0.  0.
         24    2    5    5    0    0 -0.55544105984E+01  0.10738175919E+02  0.56286976142E+03  0.56886590544E+03  0.81485521157E+02 0.  0.
          5    1    5    5  501    0  0.84367830379E+02 -0.12568139478E+02  0.20043844707E+03  0.21788425826E+03  0.47000000000E+01 0. -1.
        -13    1    6    6    0    0  0.16726061707E+02  0.33166104106E+02  0.45350170908E+03  0.45502038607E+03  0.00000000000E+00 0.  1.
         14    1    6    6    0    0 -0.22280472306E+02 -0.22427928188E+02  0.10936805233E+03  0.11384551937E+03  0.00000000000E+00 0. -1.
         -5    1    3    3    0  503 -0.40963701821E+02 -0.65364844029E+02  0.83637620453E+01  0.77734356737E+02  0.47000000000E+01 0.  1.
         13    1    4    4    0    0 -0.32634062368E+02  0.13289323430E+02  0.45890760561E+02  0.57858016288E+02  0.00000000000E+00 0. -1.
        -14    1    4    4    0    0 -0.52156555912E+01  0.53905484158E+02 -0.18738347395E+02  0.57307328926E+02  0.00000000000E+00 0.  1.
</event>
<event>
12    1  0.8417180E-002  0.2203363E+03  0.7818608E-02  0.1133744E+00
         21   -1    0    0  501  502  0.00000000000E+00  0.00000000000E+00  0.77789192524E+02  0.77789192524E+02  0.00000000000E+00 0. -1.
         21   -1    0    0  502  503 -0.00000000000E+00 -0.00000000000E+00 -0.68729090973E+03  0.68729090973E+03  0.00000000000E+00 0. -1.
         -6    2    1    2    0  503  0.71312932821E+02  0.11657158294E+03 -0.42266438875E+03  0.47664797091E+03  0.17283990950E+03 0.  0.
        -24    2    3    3    0    0  0.59125533080E+02  0.62506792251E+02 -0.11657797041E+03  0.16554908021E+03  0.80082126798E+02 0.  0.
          6    2    1    2  501    0 -0.71312932821E+02 -0.11657158294E+03 -0.18683732846E+03  0.28843213135E+03  0.17207683967E+03 0.  0.
         24    2    5    5    0    0  0.20415729495E+02 -0.20182043494E+02 -0.73885664703E+02  0.11383184741E+03  0.81697497796E+02 0.  0.
          5    1    5    5  501    0 -0.91728662317E+02 -0.96389539449E+02 -0.11295166376E+03  0.17460028394E+03  0.47000000000E+01 0. -1.
        -11    1    6    6    0    0 -0.15257354227E+02  0.66913187695E+01 -0.66509353631E+02  0.68564237947E+02  0.00000000000E+00 0.  1.
         12    1    6    6    0    0  0.35673083723E+02 -0.26873362263E+02 -0.73763110729E+01  0.45267609465E+02  0.00000000000E+00 0. -1.
         -5    1    3    3    0  503  0.12187399741E+02  0.54064790691E+02 -0.30608641834E+03  0.31109889070E+03  0.47000000000E+01 0.  1.
         13    1    4    4    0    0  0.11910386778E+02 -0.19512660844E+02 -0.20939513933E+02  0.31001040146E+02  0.00000000000E+00 0. -1.
        -14    1    4    4    0    0  0.47215146303E+02  0.82019453096E+02 -0.95638456480E+02  0.13454804006E+03  0.00000000000E+00 0.  1.
</event>
<event>
12    1  0.8417180E-002  0.2999760E+03  0.7818608E-02  0.1085454E+00
         21   -1    0    0  503  502  0.00000000000E+00  0.00000000000E+00  0.14045106158E+04  0.14045106158E+04  0.00000000000E+00 0.  1.
         21   -1    0    0  501  503 -0.00000000000E+00 -0.00000000000E+00 -0.17917012938E+03  0.17917012938E+03  0.00000000000E+00 0.  1.
          6    2    1    2  501    0  0.11224805460E+03  0.21799278212E+03 -0.22353535136E+02  0.30080767420E+03  0.17281521203E+03 0.  0.
         24    2    3    3    0    0  0.57204126980E+02  0.11800174067E+03 -0.80550272157E+02  0.17260083921E+03  0.78140773018E+02 0.  0.
         -6    2    1    2    0  502 -0.11224805460E+03 -0.21799278212E+03  0.12476940216E+04  0.12828730710E+04  0.17000725273E+03 0.  0.
        -24    2    5    5    0    0 -0.14295912421E+03 -0.14791837117E+03  0.87340856833E+03  0.90081903898E+03  0.79468597737E+02 0.  0.
          5    1    3    3  501    0  0.55043927616E+02  0.99991041456E+02  0.58196737021E+02  0.12820683499E+03  0.47000000000E+01 0. -1.
        -11    1    4    4    0    0  0.64052747425E+02  0.62009856490E+02 -0.23119115554E+02  0.92100327136E+02  0.00000000000E+00 0.  1.
         12    1    4    4    0    0 -0.68486204443E+01  0.55991884177E+02 -0.57431156603E+02  0.80500512075E+02  0.00000000000E+00 0. -1.
         -5    1    5    5    0  502  0.30711069614E+02 -0.70074410957E+02  0.37428545327E+03  0.38205403204E+03  0.47000000000E+01 0.  1.
         13    1    6    6    0    0 -0.59691010188E+02 -0.86489226590E+02  0.29338513972E+03  0.31163800028E+03  0.00000000000E+00 0. -1.
        -14    1    6    6    0    0 -0.83268114022E+02 -0.61429144577E+02  0.58002342861E+03  0.58918103870E+03  0.00000000000E+00 0.  1.
</event>
<event>
12    1  0.8417180E-002  0.1972064E+03  0.7818608E-02  0.1152280E+00
         21   -1    0    0  501  502  0.00000000000E+00  0.00000000000E+00  0.12959445027E+03  0.12959445027E+03  0.00000000000E+00 0. -1.
         21   -1    0    0  502  503 -0.00000000000E+00 -0.00000000000E+00 -0.30089561339E+03  0.30089561339E+03  0.00000000000E+00 0. -1.
         -6    2    1    2    0  503  0.91259196868E+02 -0.24210453670E+02 -0.10280007543E+03  0.22172522552E+03  0.17227835919E+03 0.  0.
        -24    2    3    3    0    0  0.10563133708E+03  0.81444918631E+01 -0.12260839648E+03  0.18088577771E+03  0.80389884752E+02 0.  0.
          6    2    1    2  501    0 -0.91259196868E+02  0.24210453670E+02 -0.68501087698E+02  0.20876483813E+03  0.17313570269E+03 0.  0.
         24    2    5    5    0    0 -0.58901272743E+02  0.74485485190E+02 -0.81242669932E+02  0.14745373012E+03  0.78260997145E+02 0.  0.
          5    1    5    5  501    0 -0.32357924124E+02 -0.50275031519E+02  0.12741582234E+02  0.61311108013E+02  0.47000000000E+01 0. -1.
        -13    1    6    6    0    0  0.70798653342E+01  0.52609621932E+02 -0.28927673229E+02  0.60454173482E+02  0.00000000000E+00 0.  1.
         14    1    6    6    0    0 -0.65981138077E+02  0.21875863258E+02 -0.52314996703E+02  0.86999556639E+02  0.00000000000E+00 0. -1.
         -5    1    3    3    0  503 -0.14372140211E+02 -0.32354945533E+02  0.19808321050E+02  0.40839447812E+02  0.47000000000E+01 0.  1.
         11    1    4    4    0    0  0.66678950497E+02 -0.28301458537E+01 -0.12353079941E+03  0.14040637652E+03  0.00000000000E+00 0. -1.
        -12    1    4    4    0    0  0.38952386582E+02  0.10974637717E+02  0.92240293348E+00  0.40479401189E+02  0.00000000000E+00 0.  1.
</event>
<event>
12    1  0.8417180E-002  0.2440669E+03  0.7818608E-02  0.1119205E+00
         21   -1    0    0  501  502  0.00000000000E+00  0.00000000000E+00  0.21345682696E+04  0.21345682696E+04  0.00000000000E+00 0.  1.
         21   -1    0    0  502  503 -0.00000000000E+00 -0.00000000000E+00 -0.34690246214E+02  0.34690246214E+02  0.00000000000E+00 0.  1.
         -6    2    1    2    0  503  0.13502795549E+03 -0.79798165838E+02  0.50192414464E+03  0.55277304638E+03  0.17038162399E+03 0.  0.
        -24    2    3    3    0    0  0.12978060083E+03 -0.11339107393E+03  0.36084759397E+03  0.40758109979E+03  0.78808799189E+02 0.  0.
          6    2    1    2  501    0 -0.13502795549E+03  0.79798165838E+02  0.15979538787E+04  0.16164854694E+04  0.18699833761E+03 0.  0.
         24    2    5    5    0    0 -0.17629745056E+02 -0.24000002115E+02  0.59674903213E+03  0.60308049887E+03  0.81913812987E+02 0.  0.
          5    1    5    5  501    0 -0.11739821043E+03  0.10379816795E+03  0.10012048466E+04  0.10134049706E+04  0.47000000000E+01 0. -1.
        -11    1    6    6    0    0 -0.60129691752E+01  0.23800081860E+02  0.38120111854E+03  0.38199069683E+03  0.00000000000E+00 0.  1.
         12    1    6    6    0    0 -0.11616775881E+02 -0.47800083975E+02  0.21554791359E+03  0.22108980204E+03  0.00000000000E+00 0. -1.
         -5    1    3    3    0  503  0.52473546538E+01  0.33592908097E+02  0.14107655068E+03  0.14519194659E+03  0.47000000000E+01 0.  1.
         11    1    4    4    0    0 -0.46052829913E+01 -0.31121498655E+02  0.71410010015E+02  0.78032979184E+02  0.00000000000E+00 0. -1.
        -12    1    4    4    0    0  0.13438588382E+03 -0.82269575279E+02  0.28943758395E+03  0.32954812060E+03  0.00000000000E+00 0.  1.
</event>
<event>
12    1  0.8417180E-002  0.2092728E+03  0.7818608E-02  0.1142614E+00
         21   -1    0    0  501  502  0.00000000000E+00  0.00000000000E+00  0.50888815415E+02  0.50888815415E+02  0.00000000000E+00 0. -1.
         21   -1    0    0  502  503 -0.00000000000E+00 -0.00000000000E+00 -0.89784338401E+03  0.89784338401E+03  0.00000000000E+00 0.  1.
         -6    2    1    2    0  503  0.53116610134E+02 -0.10340277957E+03 -0.53415253001E+03  0.57368459109E+03  0.17401602124E+03 0.  0.
        -24    2    3    3    0    0  0.30547289269E+02 -0.73430533534E+01 -0.38570221263E+03  0.39536905062E+03  0.81015011229E+02 0.  0.
          6    2    1    2  501    0 -0.53116610134E+02  0.10340277957E+03 -0.31280203858E+03  0.37504760833E+03  0.17117851523E+03 0.  0.
         24    2    5    5    0    0 -0.89227348104E+02  0.37916348252E+02 -0.23787367862E+03  0.26908154202E+03  0.80136259942E+02 0.  0.
          5    1    5    5  501    0  0.36110737970E+02  0.65486431318E+02 -0.74928359957E+02  0.10596606631E+03  0.47000000000E+01 0. -1.
        -13    1    6    6    0    0 -0.66672538433E+02  0.25331399552E+02 -0.23183327176E+03  0.24255632971E+03  0.00000000000E+00 0.  1.
         14    1    6    6    0    0 -0.22554809671E+02  0.12584948699E+02 -0.60404068612E+01  0.26525212310E+02  0.00000000000E+00 0. -1.
         -5    1    3    3    0  503  0.22569320865E+02 -0.96059726216E+02 -0.14845031738E+03  0.17831554048E+03  0.47000000000E+01 0.  1.
         13    1    4    4    0    0  0.42413480356E+02 -0.25296699590E+02 -0.13507575026E+03  0.14382032066E+03  0.00000000000E+00 0. -1.
        -14    1    4    4    0    0 -0.11866191087E+02  0.17953646236E+02 -0.25062646237E+03  0.25154872996E+03  0.00000000000E+00 0.  1.
</event>
<event>
12    1  0.8417180E-002  0.1745968E+03  0.7818608E-02  0.1173188E+00
         21   -1    0    0  501  502  0.00000000000E+00  0.00000000000E+00  0.23709853885E+03  0.23709853885E+03  0.00000000000E+00 0. -1.
         21   -1    0    0  502  503 -0.00000000000E+00 -0.00000000000E+00 -0.17091702850E+03  0.17091702850E+03  0.00000000000E+00 0. -1.
         -6    2    1    2    0  503  0.76595421876E+01 -0.23584455103E+02 -0.68617466525E+02  0.18759638953E+03  0.17282694681E+03 0.  0.
        -24    2    3    3    0    0 -0.28538704589E+02  0.31053982077E+02 -0.80356225471E+02  0.12084640565E+03  0.79799268938E+02 0.  0.
          6    2    1    2  501    0 -0.76595421876E+01  0.23584455103E+02  0.13479897688E+03  0.22041917781E+03  0.17262373728E+03 0.  0.
         24    2    5    5    0    0 -0.22835576003E+02  0.33041441304E+02  0.16534223082E+03  0.18471585931E+03  0.71893636807E+02 0.  0.
          5    1    5    5  501    0  0.15176033815E+02 -0.94569862011E+01 -0.30543253944E+02  0.35703318499E+02  0.47000000000E+01 0. -1.
        -13    1    6    6    0    0  0.83371267959E+01  0.47119395653E+02  0.88595865810E+02  0.10069246530E+03  0.00000000000E+00 0.  1.
         14    1    6    6    0    0 -0.31172702799E+02 -0.14077954349E+02  0.76746365014E+02  0.84023394012E+02  0.00000000000E+00 0. -1.
         -5    1    3    3    0  503  0.36198246777E+02 -0.54638437180E+02  0.11738758946E+02  0.66749983886E+02  0.47000000000E+01 0.  1.
         13    1    4    4    0    0  0.22996863734E+02  0.29705986902E+02 -0.24578675444E+02  0.44893347903E+02  0.00000000000E+00 0. -1.
        -14    1    4    4    0    0 -0.51535568323E+02  0.13479951749E+01 -0.55777550028E+02  0.75953057743E+02  0.00000000000E+00 0.  1.
</event>
<event>
12    1  0.8417180E-002  0.2155931E+03  0.7818608E-02  0.1137436E+00
         21   -1    0    0  503  502  0.00000000000E+00  0.00000000000E+00  0.59152099815E+02  0.59152099815E+02  0.00000000000E+00 0.  1.
         21   -1    0    0  501  503 -0.00000000000E+00 -0.00000000000E+00 -0.82440640386E+03  0.82440640386E+03  0.00000000000E+00 0.  1.
          6    2    1    2  501    0  0.31034605208E+02  0.12362315891E+03 -0.48239914190E+03  0.52790776762E+03  0.17242925178E+03 0.  0.
         24    2    3    3    0    0  0.11834702342E+02  0.13590044456E+03 -0.47904550237E+03  0.50439809066E+03  0.79522635167E+02 0.  0.
         -6    2    1    2    0  502 -0.31034605208E+02 -0.12362315891E+03 -0.28285516214E+03  0.35565073605E+03  0.17388091087E+03 0.  0.
        -24    2    5    5    0    0  0.83569388761E+01 -0.76030223600E+01 -0.58078636956E+02  0.99605931175E+02  0.80128453611E+02 0.  0.
          5    1    3    3  501    0  0.19199902866E+02 -0.12277285649E+02 -0.33536395298E+01  0.23509676966E+02  0.47000000000E+01 0. -1.
        -11    1    4    4    0    0 -0.33625491695E+02  0.68238139158E+02 -0.21543319709E+03  0.22847008499E+03  0.00000000000E+00 0.  1.
         12    1    4    4    0    0  0.45460194037E+02  0.67662305398E+02 -0.26361230528E+03  0.27592800567E+03  0.00000000000E+00 0. -1.
         -5    1    5    5    0  502 -0.39391544084E+02 -0.11602013655E+03 -0.22477652519E+03  0.25604480488E+03  0.47000000000E+01 0.  1.
         13    1    6    6    0    0 -0.16045154884E+02  0.27144572793E+02 -0.45432402330E+02  0.55302603997E+02  0.00000000000E+00 0. -1.
        -14    1    6    6    0    0  0.24402093760E+02 -0.34747595153E+02 -0.12646234626E+02  0.44303327178E+02  0.00000000000E+00 0.  1.
</event>
<event>
12    1  0.8417180E-002  0.2385408E+03  0.7818608E-02  0.1120944E+00
         21   -1    0    0  503  502  0.00000000000E+00  0.00000000000E+00  0.27925099970E+03  0.27925099970E+03  0.00000000000E+00 0. -1.
         21   -1    0    0  501  503 -0.00000000000E+00 -0.00000000000E+00 -0.23463592583E+03  0.23463592583E+03  0.00000000000E+00 0.  1.
          6    2    1    2  501    0 -0.13911950290E+03  0.88221810066E+02 -0.72178188902E+02  0.24922160329E+03  0.17252360052E+03 0.  0.
         24    2    3    3    0    0 -0.66498154704E+02 -0.90679605794E+01  0.14046240955E+02  0.10023871169E+03  0.73118191634E+02 0.  0.
         -6    2    1    2    0  502  0.13911950290E+03 -0.88221810066E+02  0.11679326277E+03  0.26466532224E+03  0.17108402237E+03 0.  0.
        -24    2    5    5    0    0  0.23058018812E+02 -0.41449509457E+02  0.10297483702E+03  0.13868534334E+03  0.79875361241E+02 0.  0.
          5    1    3    3  501    0 -0.72621348193E+02  0.97289770645E+02 -0.86224429857E+02  0.14898289160E+03  0.47000000000E+01 0. -1.
        -11    1    4    4    0    0  0.84711967775E+01 -0.34670649258E+01 -0.16677856525E+02  0.19024526599E+02  0.00000000000E+00 0.  1.
         12    1    4    4    0    0 -0.74969351481E+02 -0.56008956536E+01  0.30724097481E+02  0.81214185089E+02  0.00000000000E+00 0. -1.
         -5    1    5    5    0  502  0.11606148408E+03 -0.46772300609E+02  0.13818425755E+02  0.12597997890E+03  0.47000000000E+01 0.  1.
         11    1    6    6    0    0  0.24630016244E+02 -0.60691990637E+02  0.50302950515E+02  0.82586574321E+02  0.00000000000E+00 0. -1.
        -12    1    6    6    0    0 -0.15719974316E+01  0.19242481179E+02  0.52671886505E+02  0.56098769023E+02  0.00000000000E+00 0.  1.
</event>
<event>
12    1  0.8417180E-002  0.4171950E+03  0.7818608E-02  0.1038115E+00
         21   -1    0    0  501  502  0.00000000000E+00  0.00000000000E+00  0.18831764698E+04  0.18831764698E+04  0.00000000000E+00 0.  1.
         21   -1    0    0  502  503 -0.00000000000E+00 -0.00000000000E+00 -0.93038023118E+02  0.93038023118E+02  0.00000000000E+00 0.  1.
         -6    2    1    2    0  503  0.57880630018E+02 -0.37585746786E+03  0.79256832791E+03  0.89491998352E+03  0.16762523385E+03 0.  0.
        -24    2    3    3    0    0 -0.16684451098E+02 -0.69408589138E+02  0.15276044239E+03  0.18158479796E+03  0.67389635223E+02 0.  0.
          6    2    1    2  501    0 -0.57880630018E+02  0.37585746786E+03  0.99757011880E+03  0.10812945094E+04  0.17155952525E+03 0.  0.
         24    2    5    5    0    0 -0.17364975002E+02  0.19747216318E+03  0.69738839591E+03  0.72973513750E+03  0.82861321292E+02 0.  0.
          5    1    5    5  501    0 -0.40515655016E+02  0.17838530468E+03  0.30018172289E+03  0.35155937192E+03  0.47000000000E+01 0. -1.
        -11    1    6    6    0    0  0.34671697009E+01  0.94231366739E+02  0.19728496858E+03  0.21866168061E+03  0.00000000000E+00 0.  1.
         12    1    6    6    0    0 -0.20832144702E+02  0.10324079644E+03  0.50010342733E+03  0.51107345689E+03  0.00000000000E+00 0. -1.
         -5    1    3    3    0  503  0.74565081115E+02 -0.30644887872E+03  0.63980788552E+03  0.71333518556E+03  0.47000000000E+01 0.  1.
         11    1    4    4    0    0  0.21057286984E+01 -0.60596438845E+02  0.55711554552E+02  0.82341604336E+02  0.00000000000E+00 0. -1.
        -12    1    4    4    0    0 -0.18790179796E+02 -0.88121502927E+01  0.97048887838E+02  0.99243193621E+02  0.00000000000E+00 0.  1.
</event>
<event>
12    1  0.8417180E-002  0.2276837E+03  0.7818608E-02  0.1128391E+00
         21   -1    0    0  503  502  0.00000000000E+00  0.00000000000E+00  0.13995157335E+04  0.13995157335E+04  0.00000000000E+00 0. -1.
         21   -1    0    0  501  503 -0.00000000000E+00 -0.00000000000E+00 -0.57202698565E+02  0.57202698565E+02  0.00000000000E+00 0.  1.
          6    2    1    2  501    0 -0.14116961538E+03 -0.46074325974E+02  0.23825964957E+03  0.32955659037E+03  0.17259253119E+03 0.  0.
         24    2    3    3    0    0 -0.13409953259E+03 -0.27857385347E+01  0.98848529038E+02  0.18333265799E+03  0.76481284062E+02 0.  0.
         -6    2    1    2    0  502  0.14116961538E+03  0.46074325974E+02  0.11040533854E+04  0.11271618417E+04  0.17177961410E+03 0.  0.
        -24    2    5    5    0    0  0.16046780525E+03  0.80991222804E+01  0.96954897814E+03  0.98599505456E+03  0.79658736453E+02 0.  0.
          5    1    3    3  501    0 -0.70700827848E+01 -0.43288587440E+02  0.13941112053E+03  0.14622393238E+03  0.47000000000E+01 0. -1.
        -11    1    4    4    0    0 -0.18831690421E+02 -0.11315426567E+02 -0.10384427937E+02  0.24300365966E+02  0.00000000000E+00 0.  1.
         12    1    4    4    0    0 -0.11526784217E+03  0.85296880323E+01  0.10923295697E+03  0.15903229202E+03  0.00000000000E+00 0. -1.
         -5    1    5    5    0  502 -0.19298189877E+02  0.37975203694E+02  0.13450440723E+03  0.14116678714E+03  0.47000000000E+01 0.  1.
         13    1    6    6    0    0  0.21079485469E+02  0.20540646353E+02  0.33023247079E+03  0.33154147195E+03  0.00000000000E+00 0. -1.
        -14    1    6    6    0    0  0.13938831978E+03 -0.12441524072E+02  0.63931650735E+03  0.65445358260E+03  0.00000000000E+00 0.  1.
</event>
<event>
12    1  0.8417180E-002  0.2092448E+03  0.7818608E-02  0.1142707E+00
         21   -1    0    0  503  502  0.00000000000E+00  0.00000000000E+00  0.88569472748E+03  0.88569472748E+03  0.00000000000E+00 0. -1.
         21   -1    0    0  501  503 -0.00000000000E+00 -0.00000000000E+00 -0.15330760782E+03  0.15330760782E+03  0.00000000000E+00 0.  1.
          6    2    1    2  501    0  0.90964057502E+02  0.77635389107E+02 -0.61973523349E+02  0.21822951276E+03  0.17170232743E+03 0.  0.
         24    2    3    3    0    0  0.12299955800E+03  0.54519750052E+02 -0.15911045578E+02  0.15736533677E+03  0.80058687422E+02 0.  0.
         -6    2    1    2    0  502 -0.90964057502E+02 -0.77635389107E+02  0.79436064301E+03  0.82077282253E+03  0.16839679819E+03 0.  0.
        -24    2    5    5    0    0 -0.51257640447E+02 -0.47822071049E+02  0.22206201966E+03  0.24630503599E+03  0.80251691522E+02 0.  0.
          5    1    3    3  501    0 -0.32035500497E+02  0.23115639056E+02 -0.46062477770E+02  0.60864175994E+02  0.47000000000E+01 0. -1.
        -11    1    4    4    0    0  0.57543690897E+02 -0.71507066605E+01 -0.31657957396E+02  0.66065386053E+02  0.00000000000E+00 0.  1.
         12    1    4    4    0    0  0.65455867101E+02  0.61670456712E+02  0.15746911818E+02  0.91299950716E+02  0.00000000000E+00 0. -1.
         -5    1    5    5    0  502 -0.39706417054E+02 -0.29813318058E+02  0.57229862335E+03  0.57446778654E+03  0.47000000000E+01 0.  1.
         11    1    6    6    0    0 -0.99425823408E+01 -0.33422591271E+02  0.18703813481E+03  0.19026084311E+03  0.00000000000E+00 0. -1.
        -12    1    6    6    0    0 -0.41315058106E+02 -0.14399479778E+02  0.35023884855E+02  0.56044192871E+02  0.00000000000E+00 0.  1.
</event>
<event>
12    1  0.8417180E-002  0.2621551E+03  0.7818608E-02  0.1105862E+00
         21   -1    0    0  501  502  0.00000000000E+00  0.00000000000E+00  0.32790874770E+03  0.32790874770E+03  0.00000000000E+00 0.  1.
         21   -1    0    0  502  503 -0.00000000000E+00 -0.00000000000E+00 -0.49395119210E+03  0.49395119210E+03  0.00000000000E+00 0. -1.
         -6    2    1    2    0  503 -0.14354694039E+03  0.13737978512E+03 -0.39483462612E+03  0.47394056803E+03  0.17101564428E+03 0.  0.
        -24    2    3    3    0    0 -0.56466790412E+02  0.11904385189E+03 -0.15425467829E+03  0.21738655760E+03  0.78118324107E+02 0.  0.
          6    2    1    2  501    0  0.14354694039E+03 -0.13737978512E+03  0.22879218171E+03  0.34791937177E+03  0.17094764516E+03 0.  0.
         24    2    5    5    0    0  0.10074996318E+03 -0.12519095346E+03  0.24224206402E+03  0.30119530720E+03  0.78829344720E+02 0.  0.
          5    1    5    5  501    0  0.42796977215E+02 -0.12188831654E+02 -0.13449882310E+02  0.46724064570E+02  0.47000000000E+01 0. -1.
        -11    1    6    6    0    0  0.61869683846E+02 -0.86484101123E+02  0.21518212471E+03  0.24002229964E+03  0.00000000000E+00 0.  1.
         12    1    6    6    0    0  0.38880279334E+02 -0.38706852340E+02  0.27059939306E+02  0.61173007564E+02  0.00000000000E+00 0. -1.
         -5    1    3    3    0  503 -0.87080149982E+02  0.18335933228E+02 -0.24057994783E+03  0.25655401043E+03  0.47000000000E+01 0.  1.
         13    1    4    4    0    0 -0.47409405718E+02  0.62872997615E+02 -0.13684951234E+03  0.15788747451E+03  0.00000000000E+00 0. -1.
        -14    1    4    4    0    0 -0.90573846941E+01  0.56170854274E+02 -0.17405165948E+02  0.59499083095E+02  0.00000000000E+00 0.  1.
</event>
<event>
12    1  0.8417180E-002  0.1808680E+03  0.7818608E-02  0.1167270E+00
         21   -1    0    0  503  502  0.00000000000E+00  0.00000000000E+00  0.72837701611E+02  0.72837701611E+02  0.00000000000E+00 0. -1.
         21   -1    0    0  501  503 -0.00000000000E+00 -0.00000000000E+00 -0.46196482883E+03  0.46196482883E+03  0.00000000000E+00 0.  1.
          6    2    1    2  501    0  0.43125280121E+02  0.36329211177E+02 -0.24493814840E+03  0.30447979576E+03  0.17185356590E+03 0.  0.
         24    2    3    3    0    0  0.44440701440E+02 -0.22877443593E+02 -0.22062782749E+03  0.24029070007E+03  0.81022397578E+02 0.  0.
         -6    2    1    2    0  502 -0.43125280121E+02 -0.36329211177E+02 -0.14418897882E+03  0.23032273468E+03  0.17052418927E+03 0.  0.
        -24    2    5    5    0    0 -0.82997748476E+02  0.56774983435E+01 -0.65339043261E+02  0.13237489287E+03  0.79580534361E+02 0.  0.
          5    1    3    3  501    0 -0.13154213187E+01  0.59206654770E+02 -0.24310320913E+02  0.64189095688E+02  0.47000000000E+01 0. -1.
        -11    1    4    4    0    0 -0.21578955504E+02 -0.19514873782E+02 -0.67591946786E+02  0.73587722411E+02  0.00000000000E+00 0.  1.
         12    1    4    4    0    0  0.66019656944E+02 -0.33625698113E+01 -0.15303588070E+03  0.16670297766E+03  0.00000000000E+00 0. -1.
         -5    1    5    5    0  502  0.39872468355E+02 -0.42006709521E+02 -0.78849935556E+02  0.97947841807E+02  0.47000000000E+01 0.  1.
         13    1    6    6    0    0 -0.10006536191E+02 -0.22593196548E+02  0.71151078989E+01  0.25713966189E+02  0.00000000000E+00 0. -1.
        -14    1    6    6    0    0 -0.72991212286E+02  0.28270694891E+02 -0.72454151160E+02  0.10666092668E+03  0.00000000000E+00 0.  1.
</event>
<event>
12    1  0.8417180E-002  0.2181583E+03  0.7818608E-02  0.1138164E+00
         21   -1    0    0  501  502  0.00000000000E+00  0.00000000000E+00  0.43198258704E+03  0.43198258704E+03  0.00000000000E+00 0.  1.
         21   -1    0    0  502  503 -0.00000000000E+00 -0.00000000000E+00 -0.12279269888E+03  0.12279269888E+03  0.00000000000E+00 0.  1.
         -6    2    1    2    0  503  0.10137629476E+03 -0.35981480022E+02  0.47316661210E+02  0.22323060903E+03  0.18979256660E+03 0.  0.
        -24    2    3    3    0    0  0.59429168334E+02 -0.19757216584E+02 -0.51958330474E+02  0.11414164482E+03  0.80040448022E+02 0.  0.
          6    2    1    2  501    0 -0.10137629476E+03  0.35981480022E+02  0.26187322694E+03  0.33154467689E+03  0.17254699575E+03 0.  0.
         24    2    5    5    0    0 -0.12931967005E+03  0.51440730434E+01  0.15556129456E+03  0.21728140694E+03  0.79131882891E+02 0.  0.
          5    1    5    5  501    0  0.27943375288E+02  0.30837406979E+02  0.10631193238E+03  0.11426326995E+03  0.47000000000E+01 0. -1.
        -11    1    6    6    0    0 -0.82763402629E+02 -0.35154157985E+02  0.97803116203E+02  0.13285723607E+03  0.00000000000E+00 0.  1.
         12    1    6    6    0    0 -0.46556267419E+02  0.40298231028E+02  0.57758178357E+02  0.84424170870E+02  0.00000000000E+00 0. -1.
         -5    1    3    3    0  503  0.41947126427E+02 -0.16224263438E+02  0.99274991684E+02  0.10908896421E+03  0.47000000000E+01 0.  1.
         11    1    4    4    0    0 -0.10236106081E+02  0.64709494242E+01 -0.36039287662E+02  0.38019485916E+02  0.00000000000E+00 0. -1.
        -12    1    4    4    0    0  0.69665274415E+02 -0.26228166008E+02 -0.15919042812E+02  0.76122158900E+02  0.00000000000E+00 0.  1.
</event>
<event>
12    1  0.8417180E-002  0.1766965E+03  0.7818608E-02  0.1171274E+00
         21   -1    0    0  501  502  0.00000000000E+00  0.00000000000E+00  0.15669834393E+03  0.15669834393E+03  0.00000000000E+00 0. -1.
         21   -1    0    0  502  503 -0.00000000000E+00 -0.00000000000E+00 -0.22369023038E+03  0.22369023038E+03  0.00000000000E+00 0. -1.
         -6    2    1    2    0  503  0.34591780868E+02 -0.21652149633E+02  0.30809470393E+02  0.17843124727E+03  0.17094759328E+03 0.  0.
        -24    2    3    3    0    0  0.73368748635E+02 -0.49555274289E+02 -0.27702638327E+01  0.11984860354E+03  0.80729888664E+02 0.  0.
          6    2    1    2  501    0 -0.34591780868E+02  0.21652149633E+02 -0.97801356840E+02  0.20195732704E+03  0.17191931148E+03 0.  0.
         24    2    5    5    0    0 -0.24615344450E+02  0.80513069692E+02 -0.69277337777E+02  0.13562598560E+03  0.80664669267E+02 0.  0.
          5    1    5    5  501    0 -0.99764364176E+01 -0.58860920059E+02 -0.28524019062E+02  0.66331341440E+02  0.47000000000E+01 0. -1.
        -13    1    6    6    0    0  0.75571452235E+01 -0.10170808593E+02 -0.28367075040E+02  0.31068420264E+02  0.00000000000E+00 0.  1.
         14    1    6    6    0    0 -0.32172489674E+02  0.90683878285E+02 -0.40910262737E+02  0.10455756534E+03  0.00000000000E+00 0. -1.
         -5    1    3    3    0  503 -0.38776967767E+02  0.27903124656E+02  0.33579734226E+02  0.58582643722E+02  0.47000000000E+01 0.  1.
         13    1    4    4    0    0  0.71977659328E+02 -0.14516769491E+02 -0.25877685000E+02  0.77853545967E+02  0.00000000000E+00 0. -1.
        -14    1    4    4    0    0  0.13910893074E+01 -0.35038504798E+02  0.23107421167E+02  0.41995057577E+02  0.00000000000E+00 0.  1.
</event>
<event>
12    1  0.8417180E-002  0.2629610E+03  0.7818608E-02  0.1105639E+00
         21   -1    0    0  501  502  0.00000000000E+00  0.00000000000E+00  0.29082817723E+03  0.29082817723E+03  0.00000000000E+00 0.  1.
         21   -1    0    0  502  503 -0.00000000000E+00 -0.00000000000E+00 -0.25273809945E+03  0.25273809945E+03  0.00000000000E+00 0.  1.
         -6    2    1    2    0  503 -0.11461664292E+03 -0.15894675705E+03  0.88690104392E+02  0.27751474383E+03  0.17534951387E+03 0.  0.
        -24    2    3    3    0    0 -0.10148687235E+03 -0.18754534376E+03  0.56027959717E+02  0.23191676436E+03  0.71926435282E+02 0.  0.
          6    2    1    2  501    0  0.11461664292E+03  0.15894675705E+03 -0.50600026615E+02  0.26605153285E+03  0.17269050069E+03 0.  0.
         24    2    5    5    0    0  0.14479889249E+03  0.12554882858E+03 -0.66591232724E+02  0.21804946531E+03  0.79887104212E+02 0.  0.
          5    1    5    5  501    0 -0.30182249578E+02  0.33397928471E+02  0.15991206109E+02  0.48002067544E+02  0.47000000000E+01 0. -1.
        -11    1    6    6    0    0  0.32064103978E+01  0.20577185576E+02 -0.32382212338E+02  0.38500770249E+02  0.00000000000E+00 0.  1.
         12    1    6    6    0    0  0.14159248210E+03  0.10497164301E+03 -0.34209020387E+02  0.17954869506E+03  0.00000000000E+00 0. -1.
         -5    1    3    3    0  503 -0.13129770568E+02  0.28598586712E+02  0.32662144675E+02  0.45597979471E+02  0.47000000000E+01 0.  1.
         11    1    4    4    0    0 -0.62097382221E+02 -0.12601122486E+03  0.10571455159E+01  0.14048498577E+03  0.00000000000E+00 0. -1.
        -12    1    4    4    0    0 -0.39389490127E+02 -0.61534118902E+02  0.54970814201E+02  0.91431778587E+02  0.00000000000E+00 0.  1.
</event>
<event>
12    1  0.8417180E-002  0.1900483E+03  0.7818608E-02  0.1159429E+00
         21   -1    0    0  503  502  0.00000000000E+00  0.00000000000E+00  0.17847080212E+03  0.17847080212E+03  0.00000000000E+00 0.  1.
         21   -1    0    0  501  503 -0.00000000000E+00 -0.00000000000E+00 -0.79626916686E+03  0.79626916686E+03  0.00000000000E+00 0.  1.
          6    2    1    2  501    0  0.39446269466E+02 -0.60902388469E+02 -0.73054985094E+03  0.75376199942E+03  0.17084776253E+03 0.  0.
         24    2    3    3    0    0  0.53663834795E+02  0.19929259007E+02 -0.31414207960E+03  0.32931716622E+03  0.80545436002E+02 0.  0.
         -6    2    1    2    0  502 -0.39446269466E+02  0.60902388469E+02  0.11275148620E+03  0.22097796956E+03  0.17565095016E+03 0.  0.
        -24    2    5    5    0    0 -0.24584366183E+02 -0.30730690161E+02  0.88190997570E+02  0.12483846222E+03  0.79108932614E+02 0.  0.
          5    1    3    3  501    0 -0.14217565328E+02 -0.80831647476E+02 -0.41640777135E+03  0.42444483321E+03  0.47000000000E+01 0. -1.
        -13    1    4    4    0    0 -0.90514528413E+01 -0.17088668973E+02 -0.12771557373E+03  0.12917127846E+03  0.00000000000E+00 0.  1.
         14    1    4    4    0    0  0.62715287636E+02  0.37017927981E+02 -0.18642650586E+03  0.20014588775E+03  0.00000000000E+00 0. -1.
         -5    1    5    5    0  502 -0.14861903283E+02  0.91633078630E+02  0.24560488632E+02  0.96139507333E+02  0.47000000000E+01 0.  1.
         13    1    6    6    0    0 -0.40907236519E+02 -0.18218499488E+01  0.81158007977E+02  0.90902933922E+02  0.00000000000E+00 0. -1.
        -14    1    6    6    0    0  0.16322870336E+02 -0.28908840212E+02  0.70329895926E+01  0.33935528300E+02  0.00000000000E+00 0.  1.
</event>
<event>
12    1  0.8417180E-002  0.2294680E+03  0.7818608E-02  0.1127195E+00
         21   -1    0    0  501  502  0.00000000000E+00  0.00000000000E+00  0.65932017562E+03  0.65932017562E+03  0.00000000000E+00 0.  1.
         21   -1    0    0  502  503 -0.00000000000E+00 -0.00000000000E+00 -0.11565674759E+03  0.11565674759E+03  0.00000000000E+00 0. -1.
         -6    2    1    2    0  503 -0.55287606677E+02 -0.14211499341E+03  0.54790063901E+02  0.23492808590E+03  0.17010544858E+03 0.  0.
        -24    2    3    3    0    0 -0.26155497445E+02 -0.37153777079E+01  0.24156155310E+01  0.84036382156E+02  0.79739351950E+02 0.  0.
          6    2    1    2  501    0  0.55287606677E+02  0.14211499341E+03  0.48887336413E+03  0.54004883731E+03  0.17147066723E+03 0.  0.
         24    2    5    5    0    0  0.85445549224E+02  0.10676273690E+03  0.45700758658E+03  0.48350857451E+03  0.78901099829E+02 0.  0.
          5    1    5    5  501    0 -0.30157942548E+02  0.35352256513E+02  0.31865777542E+02  0.56540262801E+02  0.47000000000E+01 0. -1.
        -13    1    6    6    0    0  0.58494694384E+02  0.12638443352E+02  0.18275724352E+03  0.19230592705E+03  0.00000000000E+00 0.  1.
         14    1    6    6    0    0  0.26950854840E+02  0.94124293547E+02  0.27425034306E+03  0.29120264745E+03  0.00000000000E+00 0. -1.
         -5    1    3    3    0  503 -0.29132109232E+02 -0.13839961570E+03  0.52374448370E+02  0.15089170374E+03  0.47000000000E+01 0.  1.
         11    1    4    4    0    0 -0.14117607592E+02 -0.41185535419E+02  0.80587026548E+01  0.44277509645E+02  0.00000000000E+00 0. -1.
        -12    1    4    4    0    0 -0.12037889852E+02  0.37470157711E+02 -0.56430871238E+01  0.39758872510E+02  0.00000000000E+00 0.  1.
</event>
<event>
12    1  0.8417180E-002  0.1983508E+03  0.7818608E-02  0.1152345E+00
         21   -1    0    0  501  502  0.00000000000E+00  0.00000000000E+00  0.23462918865E+02  0.23462918865E+02  0.00000000000E+00 0. -1.
         21   -1    0    0  502  503 -0.00000000000E+00 -0.00000000000E+00 -0.16533602260E+04  0.16533602260E+04  0.00000000000E+00 0.  1.
         -6    2    1    2    0  503 -0.90032631569E+02 -0.83587679002E+01 -0.70389999639E+03  0.72982047453E+03  0.17025562070E+03 0.  0.
        -24    2    3    3    0    0 -0.92131802311E+02  0.51261805818E+02 -0.44835599359E+03  0.46736315097E+03  0.79304326209E+02 0.  0.
          6    2    1    2  501    0  0.90032631569E+02  0.83587679002E+01 -0.92599731077E+03  0.94700267036E+03  0.17654261346E+03 0.  0.
         24    2    5    5    0    0  0.11258033534E+03  0.91888314153E+01 -0.90586183030E+03  0.91639849541E+03  0.80260701876E+02 0.  0.
          5    1    5    5  501    0 -0.22547703770E+02 -0.83006351511E+00 -0.20135480476E+02  0.30604174956E+02  0.47000000000E+01 0. -1.
        -11    1    6    6    0    0  0.29050803180E+02 -0.33603811276E+02 -0.31949776981E+03  0.32257090727E+03  0.00000000000E+00 0.  1.
         12    1    6    6    0    0  0.83529532160E+02  0.42792642692E+02 -0.58636406048E+03  0.59382758814E+03  0.00000000000E+00 0. -1.
         -5    1    3    3    0  503  0.20991707421E+01 -0.59620573718E+02 -0.25554400279E+03  0.26245732356E+03  0.47000000000E+01 0.  1.
         13    1    4    4    0    0  0.10127602121E+02  0.12091407333E+02 -0.21377988081E+02  0.26566686478E+02  0.00000000000E+00 0. -1.
        -14    1    4    4    0    0 -0.10225940443E+03  0.39170398484E+02 -0.42697800551E+03  0.44079646449E+03  0.00000000000E+00 0.  1.
</event>
<event>
12    1  0.8417180E-002  0.1956178E+03  0.7818608E-02  0.1153492E+00
         21   -1    0    0  503  502  0.00000000000E+00  0.00000000000E+00  0.10880855938E+03  0.10880855938E+03  0.00000000000E+00 0. -1.
         21   -1    0    0  501  503 -0.00000000000E+00 -0.00000000000E+00 -0.36135153728E+03  0.36135153728E+03  0.00000000000E+00 0. -1.
          6    2    1    2  501    0 -0.28384191835E+02  0.89003490894E+02 -0.87788257126E+02  0.21440544880E+03  0.17185934554E+03 0.  0.
         24    2    3    3    0    0  0.29433939694E+02  0.19097923268E+02  0.91610338701E+00  0.87439790872E+02  0.80086143017E+02 0.  0.
         -6    2    1    2    0  502  0.28384191835E+02 -0.89003490894E+02 -0.16475472078E+03  0.25575464787E+03  0.17186924725E+03 0.  0.
        -24    2    5    5    0    0 -0.41639412968E+02 -0.41312254685E+02 -0.48813490734E+02  0.11208064860E+03  0.82090022625E+02 0.  0.
          5    1    3    3  501    0 -0.57818131529E+02  0.69905567626E+02 -0.88704360513E+02  0.12696565793E+03  0.47000000000E+01 0. -1.
        -13    1    4    4    0    0 -0.24087045297E+02  0.58826620544E+01 -0.16315108841E+02  0.29681210226E+02  0.00000000000E+00 0.  1.
         14    1    4    4    0    0  0.53520984991E+02  0.13215261213E+02  0.17231212228E+02  0.57758580646E+02  0.00000000000E+00 0. -1.
         -5    1    5    5    0  502  0.70023604803E+02 -0.47691236209E+02 -0.11594123004E+03  0.14367399926E+03  0.47000000000E+01 0.  1.
         13    1    6    6    0    0 -0.17581599265E+02 -0.44230594818E+02 -0.66713771845E+02  0.81952336785E+02  0.00000000000E+00 0. -1.
        -14    1    6    6    0    0 -0.24057813703E+02  0.29183401326E+01  0.17900281111E+02  0.30128311820E+02  0.00000000000E+00 0.  1.
</event>
<event>
12    1  0.8417180E-002  0.1844277E+03  0.7818608E-02  0.1164313E+00
         21   -1    0    0  501  502  0.00000000000E+00  0.00000000000E+00  0.13446913954E+04  0.13446913954E+04  0.00000000000E+00 0.  1.
         21   -1    0    0  502  503 -0.00000000000E+00 -0.00000000000E+00 -0.29137394877E+02  0.29137394877E+02  0.00000000000E+00 0.  1.
         -6    2    1    2    0  503 -0.14010778382E+02 -0.55764649954E+02  0.39976272686E+03  0.44025426584E+03  0.17523579175E+03 0.  0.
        -24    2    3    3    0    0  0.22157725027E+02  0.23466090472E+02  0.27217532203E+03  0.28570231102E+03  0.80652231349E+02 0.  0.
          6    2    1    2  501    0  0.14010778382E+02  0.55764649954E+02  0.91579127362E+03  0.93357452439E+03  0.17199342330E+03 0.  0.
         24    2    5    5    0    0  0.23066450040E+02  0.10089487463E+03  0.75960065175E+03  0.77067473087E+03  0.78959190869E+02 0.  0.
          5    1    5    5  501    0 -0.90556716576E+01 -0.45130224673E+02  0.15619062187E+03  0.16289979352E+03  0.47000000000E+01 0. -1.
        -13    1    6    6    0    0 -0.17417874791E+02  0.83079598729E+02  0.54410193393E+03  0.55068368107E+03  0.00000000000E+00 0.  1.
         14    1    6    6    0    0  0.40484324831E+02  0.17815275898E+02  0.21549871781E+03  0.21999104980E+03  0.00000000000E+00 0. -1.
         -5    1    3    3    0  503 -0.36168503409E+02 -0.79230740425E+02  0.12758740483E+03  0.15455195482E+03  0.47000000000E+01 0.  1.
         11    1    4    4    0    0 -0.48126392667E+00  0.40453647648E+01  0.24595404674E+03  0.24598778363E+03  0.00000000000E+00 0. -1.
        -12    1    4    4    0    0  0.22638988953E+02  0.19420725707E+02  0.26221275296E+02  0.39714527392E+02  0.00000000000E+00 0.  1.
</event>
<event>
12    1  0.8417180E-002  0.2942470E+03  0.7818608E-02  0.1089708E+00
         21   -1    0    0  501  502  0.00000000000E+00  0.00000000000E+00  0.30147437979E+03  0.30147437979E+03  0.00000000000E+00 0. -1.
         21   -1    0    0  502  503 -0.00000000000E+00 -0.00000000000E+00 -0.36401773261E+03  0.36401773261E+03  0.00000000000E+00 0. -1.
         -6    2    1    2    0  503 -0.20436182246E+03 -0.10630006872E+03 -0.19463835139E+03  0.34295467631E+03  0.16331063370E+03 0.  0.
        -24    2    3    3    0    0 -0.16405231170E+03 -0.10389127751E+03 -0.21239579429E+03  0.29859167696E+03  0.79614430857E+02 0.  0.
          6    2    1    2  501    0  0.20436182246E+03  0.10630006872E+03  0.13209499858E+03  0.32253743608E+03  0.18307880800E+03 0.  0.
         24    2    5    5    0    0  0.72406694487E+02 -0.22843061266E+01  0.27952481205E+01  0.10819369877E+03  0.80312611585E+02 0.  0.
          5    1    5    5  501    0  0.13195512797E+03  0.10858437485E+03  0.12929975046E+03  0.21434373732E+03  0.47000000000E+01 0. -1.
        -13    1    6    6    0    0 -0.13345473551E+02 -0.16401679515E+02 -0.13521401863E+01  0.21188323160E+02  0.00000000000E+00 0.  1.
         14    1    6    6    0    0  0.85752168038E+02  0.14117373389E+02  0.41473883068E+01  0.87005375606E+02  0.00000000000E+00 0. -1.
         -5    1    3    3    0  503 -0.40309510759E+02 -0.24087912073E+01  0.17757442898E+02  0.44362999346E+02  0.47000000000E+01 0.  1.
         11    1    4    4    0    0 -0.16076580230E+03 -0.79228392127E+02 -0.20569449270E+03  0.27282412949E+03  0.00000000000E+00 0. -1.
        -12    1    4    4    0    0 -0.32865094017E+01 -0.24662885385E+02 -0.67013015974E+01  0.25767547471E+02  0.00000000000E+00 0.  1.
</event>
<event>
12    1  0.8417180E-002  0.2121360E+03  0.7818608E-02  0.1140114E+00
         21   -1    0    0  501  502  0.00000000000E+00  0.00000000000E+00  0.41885361984E+03  0.41885361984E+03  0.00000000000E+00 0. -1.
         21   -1    0    0  502  503 -0.00000000000E+00 -0.00000000000E+00 -0.18222055699E+03  0.18222055699E+03  0.00000000000E+00 0. -1.
         -6    2    1    2    0  503 -0.52075891969E+02  0.11071351311E+03 -0.75157824116E+02  0.22395983357E+03  0.17187183602E+03 0.  0.
        -24    2    3    3    0    0 -0.62233253560E+02  0.13900080217E+03 -0.84611344393E+02  0.19210388024E+03  0.80935902727E+02 0.  0.
          6    2    1    2  501    0  0.52075891969E+02 -0.11071351311E+03  0.31179088697E+03  0.37711434326E+03  0.17329826943E+03 0.  0.
         24    2    5    5    0    0 -0.25109000713E+02 -0.18855937926E+02  0.10601431455E+03  0.13886781226E+03  0.84019200667E+02 0.  0.
          5    1    5    5  501    0  0.77184892682E+02 -0.91857575185E+02  0.20577657242E+03  0.23824653100E+03  0.47000000000E+01 0. -1.
        -13    1    6    6    0    0  0.20881310010E+02  0.20426951052E+02  0.34286257142E+02  0.45042611667E+02  0.00000000000E+00 0.  1.
         14    1    6    6    0    0 -0.45990310723E+02 -0.39282888978E+02  0.71728057406E+02  0.93825200592E+02  0.00000000000E+00 0. -1.
         -5    1    3    3    0  503  0.10157361591E+02 -0.28287289063E+02  0.94535202766E+01  0.31855953331E+02  0.47000000000E+01 0.  1.
         11    1    4    4    0    0 -0.74832684236E+02  0.70816193920E+02 -0.53764000112E+02  0.11621287218E+03  0.00000000000E+00 0. -1.
        -12    1    4    4    0    0  0.12599430676E+02  0.68184608254E+02 -0.30847344281E+02  0.75891008066E+02  0.00000000000E+00 0.  1.
</event>
<event>
12    1  0.8417180E-002  0.1977194E+03  0.7818608E-02  0.1151928E+00
         21   -1    0    0  503  502  0.00000000000E+00  0.00000000000E+00  0.35258036503E+03  0.35258036503E+03  0.00000000000E+00 0. -1.
         21   -1    0    0  501  503 -0.00000000000E+00 -0.00000000000E+00 -0.20577020649E+03  0.20577020649E+03  0.00000000000E+00 0. -1.
          6    2    1    2  501    0  0.76976598171E+02  0.57997248900E+02 -0.11671475489E+03  0.22959814328E+03  0.17263804864E+03 0.  0.
         24    2    3    3    0    0  0.21086186763E+02  0.44856044176E+02  0.70181744138E+01  0.93112403565E+02  0.78510973464E+02 0.  0.
         -6    2    1    2    0  502 -0.76976598171E+02 -0.57997248900E+02  0.26352491344E+03  0.32875242824E+03  0.17130003364E+03 0.  0.
        -24    2    5    5    0    0  0.43492157793E+01  0.18502601880E+02  0.84700091325E+02  0.11788156210E+03  0.79753967037E+02 0.  0.
          5    1    3    3  501    0  0.55890411408E+02  0.13141204724E+02 -0.12373292931E+03  0.13648573971E+03  0.47000000000E+01 0. -1.
        -11    1    4    4    0    0 -0.38273178680E+01 -0.21539317902E+02  0.30196865380E+01  0.22084136490E+02  0.00000000000E+00 0.  1.
         12    1    4    4    0    0  0.24913504631E+02  0.66395362077E+02  0.39984878757E+01  0.71028267075E+02  0.00000000000E+00 0. -1.
         -5    1    5    5    0  502 -0.81325813950E+02 -0.76499850779E+02  0.17882482212E+03  0.21087086614E+03  0.47000000000E+01 0.  1.
         11    1    6    6    0    0 -0.11911804620E+02  0.95476068161E+01  0.95293072245E+02  0.96508121436E+02  0.00000000000E+00 0. -1.
        -12    1    6    6    0    0  0.16261020399E+02  0.89549950636E+01 -0.10592980920E+02  0.21373440663E+02  0.00000000000E+00 0.  1.
</event>
<event>
12    1  0.8417180E-002  0.2279635E+03  0.7818608E-02  0.1128791E+00
         21   -1    0    0  503  502  0.00000000000E+00  0.00000000000E+00  0.32913370526E+03  0.32913370526E+03  0.00000000000E+00 0.  1.
         21   -1    0    0  501  503 -0.00000000000E+00 -0.00000000000E+00 -0.16002041344E+03  0.16002041344E+03  0.00000000000E+00 0. -1.
          6    2    1    2  501    0  0.10672253619E+03 -0.96427079265E+02  0.41246347677E+02  0.22777830442E+03  0.17173762960E+03 0.  0.
         24    2    3    3    0    0  0.10261291801E+03 -0.10125113175E+03  0.83141494904E+02  0.18514669871E+03  0.81151643519E+02 0.  0.
         -6    2    1    2    0  502 -0.10672253619E+03  0.96427079265E+02  0.12786694414E+03  0.26137581428E+03  0.17686005638E+03 0.  0.
        -24    2    5    5    0    0 -0.98158473454E+02  0.21060433333E+02  0.18704129779E+02  0.12836421882E+03  0.77774677359E+02 0.  0.
          5    1    3    3  501    0  0.41096181827E+01  0.48240524854E+01 -0.41895147228E+02  0.42631605708E+02  0.47000000000E+01 0. -1.
        -13    1    4    4    0    0  0.11241926384E+03 -0.75039221157E+02  0.79799665418E+02  0.15696165836E+03  0.00000000000E+00 0.  1.
         14    1    4    4    0    0 -0.98063458279E+01 -0.26211910594E+02  0.33418294864E+01  0.28185040355E+02  0.00000000000E+00 0. -1.
         -5    1    5    5    0  502 -0.85640627366E+01  0.75366645933E+02  0.10916281436E+03  0.13301159547E+03  0.47000000000E+01 0.  1.
         13    1    6    6    0    0 -0.25096362732E+02 -0.27010667437E+02 -0.62946495394E+01  0.37403558528E+02  0.00000000000E+00 0. -1.
        -14    1    6    6    0    0 -0.73062110723E+02  0.48071100770E+02  0.24998779318E+02  0.90960660287E+02  0.00000000000E+00 0.  1.
</event>
<event>
12    1  0.8417180E-002  0.1849690E+03  0.7818608E-02  0.1163963E+00
         21   -1    0    0  503  502  0.00000000000E+00  0.00000000000E+00  0.35714845370E+03  0.35714845370E+03  0.00000000000E+00 0.  1.
         21   -1    0    0  501  503 -0.00000000000E+00 -0.00000000000E+00 -0.15158121886E+03  0.15158121886E+03  0.00000000000E+00 0.  1.
          6    2    1    2  501    0  0.57027944183E+02  0.57000678686E+01 -0.54819034480E+02  0.18933251760E+03  0.17192148932E+03 0.  0.
         24    2    3    3    0    0  0.79592796995E+02  0.48757937907E+02 -0.10187967612E+02  0.12317229629E+03  0.79719947604E+02 0.  0.
         -6    2    1    2    0  502 -0.57027944183E+02 -0.57000678686E+01  0.26038626932E+03  0.31939715496E+03  0.17586601763E+03 0.  0.
        -24    2    5    5    0    0 -0.47550922792E+02 -0.70562860294E+02  0.19258857852E+03  0.22497463301E+03  0.79265486861E+02 0.  0.
          5    1    3    3  501    0 -0.22564852813E+02 -0.43057870038E+02 -0.44631066868E+02  0.66160221315E+02  0.47000000000E+01 0. -1.
        -13    1    4    4    0    0  0.68301516454E+02  0.70305874406E+01 -0.30832814168E+02  0.75267448071E+02  0.00000000000E+00 0.  1.
         14    1    4    4    0    0  0.11291280541E+02  0.41727350466E+02  0.20644846556E+02  0.47904848215E+02  0.00000000000E+00 0. -1.
         -5    1    5    5    0  502 -0.94770213905E+01  0.64862792425E+02  0.67797690797E+02  0.94422521958E+02  0.47000000000E+01 0.  1.
         11    1    6    6    0    0  0.18725906203E+02 -0.33046252330E+02  0.44939687698E+02  0.58841226080E+02  0.00000000000E+00 0. -1.
        -12    1    6    6    0    0 -0.66276828996E+02 -0.37516607963E+02  0.14764889083E+03  0.16613340693E+03  0.00000000000E+00 0.  1.
</event>
<event>
12    1  0.8417180E-002  0.1893841E+03  0.7818608E-02  0.1159130E+00
         21   -1    0    0  503  502  0.00000000000E+00  0.00000000000E+00  0.18462782738E+03  0.18462782738E+03  0.00000000000E+00 0. -1.
         21   -1    0    0  501  503 -0.00000000000E+00 -0.00000000000E+00 -0.58039081348E+03  0.58039081348E+03  0.00000000000E+00 0. -1.
          6    2    1    2  501    0 -0.78914786165E+02 -0.10283721663E+02 -0.50999467281E+03  0.54385077938E+03  0.17130617479E+03 0.  0.
         24    2    3    3    0    0  0.20818415601E+02 -0.34791659126E+01 -0.30599979045E+03  0.31663058762E+03  0.78571917591E+02 0.  0.
         -6    2    1    2    0  502  0.78914786165E+02  0.10283721663E+02  0.11423168672E+03  0.22116786149E+03  0.17185181494E+03 0.  0.
        -24    2    5    5    0    0 -0.23975002342E+02  0.21079871877E+02  0.69982074373E+02  0.10854910803E+03  0.76591490286E+02 0.  0.
          5    1    3    3  501    0 -0.99733201766E+02 -0.68045557500E+01 -0.20399488236E+03  0.22722019176E+03  0.47000000000E+01 0. -1.
        -11    1    4    4    0    0 -0.18934087625E+02  0.13340446386E+02 -0.33463830549E+02  0.40697606059E+02  0.00000000000E+00 0.  1.
         12    1    4    4    0    0  0.39752503226E+02 -0.16819612298E+02 -0.27253595990E+03  0.27593298156E+03  0.00000000000E+00 0. -1.
         -5    1    5    5    0  502  0.10288978851E+03 -0.10796150214E+02  0.44249612344E+02  0.11261875346E+03  0.47000000000E+01 0.  1.
         13    1    6    6    0    0  0.26011396008E+02  0.49672049489E+01  0.40302005523E+02  0.48223619695E+02  0.00000000000E+00 0. -1.
        -14    1    6    6    0    0 -0.49986398350E+02  0.16112666928E+02  0.29680068851E+02  0.60325488333E+02  0.00000000000E+00 0.  1.
</event>
<event>
12    1  0.8417180E-002  0.2138051E+03  0.7818608E-02  0.1138936E+00
         21   -1    0    0  501  502  0.00000000000E+00  0.00000000000E+00  0.57742990355E+03  0.57742990355E+03  0.00000000000E+00 0. -1.
         21   -1    0    0  502  503 -0.00000000000E+00 -0.00000000000E+00 -0.17857636031E+03  0.17857636031E+03  0.00000000000E+00 0. -1.
         -6    2    1    2    0  503  0.37139854469E+02 -0.12101760169E+03 -0.83174383485E+02  0.22941361660E+03  0.17230206239E+03 0.  0.
        -24    2    3    3    0    0  0.61104986833E+02 -0.62015489002E+02  0.85021906543E+01  0.11768957659E+03  0.78732514879E+02 0.  0.
          6    2    1    2  501    0 -0.37139854469E+02  0.12101760169E+03  0.48202792672E+03  0.52659264727E+03  0.17007135357E+03 0.  0.
         24    2    5    5    0    0  0.11278601756E+02 -0.13809572951E+01  0.18676365924E+03  0.20328345811E+03  0.79463111101E+02 0.  0.
          5    1    5    5  501    0 -0.48418456225E+02  0.12239855898E+03  0.29526426748E+03  0.32330918916E+03  0.47000000000E+01 0. -1.
        -11    1    6    6    0    0  0.67334208708E+01 -0.11413348167E+02 -0.26800572754E+01  0.13519843934E+02  0.00000000000E+00 0.  1.
         12    1    6    6    0    0  0.45451808849E+01  0.10032390872E+02  0.18944371652E+03  0.18976361417E+03  0.00000000000E+00 0. -1.
         -5    1    3    3    0  503 -0.23965132364E+02 -0.59002112684E+02 -0.91676574139E+02  0.11172404001E+03  0.47000000000E+01 0.  1.
         13    1    4    4    0    0  0.58890395662E+02 -0.52808969445E+02 -0.24935003968E+02  0.82937448585E+02  0.00000000000E+00 0. -1.
        -14    1    4    4    0    0  0.22145911709E+01 -0.92065195580E+01  0.33437194622E+02  0.34752128001E+02  0.00000000000E+00 0.  1.
</event>
<event>
12    1  0.8417180E-002  0.1983585E+03  0.7818608E-02  0.1151483E+00
         21   -1    0    0  501  502  0.00000000000E+00  0.00000000000E+00  0.59874452715E+02  0.59874452715E+02  0.00000000000E+00 0. -1.
         21   -1    0    0  502  503 -0.00000000000E+00 -0.00000000000E+00 -0.84276307215E+03  0.84276307215E+03  0.00000000000E+00 0. -1.
         -6    2    1    2    0  503  0.15716227528E+02 -0.99927815531E+02 -0.17782122195E+03  0.26639533367E+03  0.17062684050E+03 0.  0.
        -24    2    3    3    0    0 -0.30194381496E+02 -0.86217635474E+02 -0.18106180996E+03  0.21814241180E+03  0.80358891602E+02 0.  0.
          6    2    1    2  501    0 -0.15716227528E+02  0.99927815531E+02 -0.60506739749E+03  0.63624219120E+03  0.16871574389E+03 0.  0.
         24    2    5    5    0    0 -0.30586788845E+02  0.12796213826E+03 -0.39785171996E+03  0.42655794321E+03  0.79723442949E+02 0.  0.
          5    1    5    5  501    0  0.14870561317E+02 -0.28034322729E+02 -0.20721567752E+03  0.20968424799E+03  0.47000000000E+01 0. -1.
        -11    1    6    6    0    0 -0.24000499834E+02 -0.16494283215E+01 -0.61767828482E+02  0.66287323384E+02  0.00000000000E+00 0.  1.
         12    1    6    6    0    0 -0.65862890113E+01  0.12961156658E+03 -0.33608389148E+03  0.36027061982E+03  0.00000000000E+00 0. -1.
         -5    1    3    3    0  503  0.45910609024E+02 -0.13710180057E+02  0.32405880093E+01  0.48252921868E+02  0.47000000000E+01 0.  1.
         13    1    4    4    0    0 -0.24552049639E+02 -0.19432830265E+01 -0.92657936279E+02  0.95875297371E+02  0.00000000000E+00 0. -1.
        -14    1    4    4    0    0 -0.56423318566E+01 -0.84274352447E+02 -0.88403873682E+02  0.12226711443E+03  0.00000000000E+00 0.  1.
</event>
<event>
12    1  0.8417180E-002  0.1964662E+03  0.7818608E-02  0.1154361E+00
         21   -1    0    0  503  502  0.00000000000E+00  0.00000000000E+00  0.12260995332E+04  0.12260995332E+04  0.00000000000E+00 0. -1.
         21   -1    0    0  501  503 -0.00000000000E+00 -0.00000000000E+00 -0.69964627633E+02  0.69964627633E+02  0.00000000000E+00 0. -1.
          6    2    1    2  501    0 -0.94456469609E+02 -0.49492812438E+01  0.85584801370E+02  0.20763570343E+03  0.16383316843E+03 0.  0.
         24    2    3    3    0    0 -0.12344323918E+03 -0.17787399572E+02  0.92753053966E+02  0.17479481523E+03  0.79971704560E+02 0.  0.
         -6    2    1    2    0  502  0.94456469609E+02  0.49492812438E+01  0.10705501041E+04  0.10884284574E+04  0.17219890025E+03 0.  0.
        -24    2    5    5    0    0  0.92434785176E+01  0.23572921907E+02  0.77578831031E+03  0.78099602746E+03  0.86406990186E+02 0.  0.
          5    1    3    3  501    0  0.28986769570E+02  0.12838118328E+02 -0.71682525960E+01  0.32840888197E+02  0.47000000000E+01 0. -1.
        -13    1    4    4    0    0  0.30026491376E+01 -0.20773493095E+02  0.19402382076E+02  0.28583322890E+02  0.00000000000E+00 0.  1.
         14    1    4    4    0    0 -0.12644588832E+03  0.29860935238E+01  0.73350671890E+02  0.14621149234E+03  0.00000000000E+00 0. -1.
         -5    1    5    5    0  502  0.85212991091E+02 -0.18623640663E+02  0.29476179384E+03  0.30743242989E+03  0.47000000000E+01 0.  1.
         11    1    6    6    0    0 -0.27993765828E+02 -0.16619360795E+02  0.38684629100E+03  0.38821373873E+03  0.00000000000E+00 0. -1.
        -12    1    6    6    0    0  0.37237244345E+02  0.40192282701E+02  0.38894201931E+03  0.39278228873E+03  0.00000000000E+00 0.  1.
</event>
<event>
12    1  0.8417180E-002  0.1796702E+03  0.7818608E-02  0.1168240E+00
         21   -1    0    0  501  502  0.00000000000E+00  0.00000000000E+00  0.34384206890E+03  0.34384206890E+03  0.00000000000E+00 0.  1.
         21   -1    0    0  502  503 -0.00000000000E+00 -0.00000000000E+00 -0.21265029061E+03  0.21265029061E+03  0.00000000000E+00 0.  1.
         -6    2    1    2    0  503  0.43347296519E+02  0.27576602562E+02 -0.14252813345E+03  0.22933742225E+03  0.17216831095E+03 0.  0.
        -24    2    3    3    0    0 -0.20158248824E+02  0.26098715291E+00 -0.13665967093E+03  0.15979875684E+03  0.80332769901E+02 0.  0.
          6    2    1    2  501    0 -0.43347296519E+02 -0.27576602562E+02  0.27371991174E+03  0.32715493726E+03  0.17166335010E+03 0.  0.
         24    2    5    5    0    0 -0.57784152784E+02 -0.71245032204E+02  0.13631134129E+03  0.18217714655E+03  0.78694777678E+02 0.  0.
          5    1    5    5  501    0  0.14436856265E+02  0.43668429641E+02  0.13740857045E+03  0.14497779071E+03  0.47000000000E+01 0. -1.
        -13    1    6    6    0    0 -0.19904151450E+02 -0.48134178642E+02  0.12639819799E+03  0.13670983451E+03  0.00000000000E+00 0.  1.
         14    1    6    6    0    0 -0.37880001334E+02 -0.23110853562E+02  0.99131433005E+01  0.45467312033E+02  0.00000000000E+00 0. -1.
         -5    1    3    3    0  503  0.63505545343E+02  0.27315615410E+02 -0.58684625230E+01  0.69538665410E+02  0.47000000000E+01 0.  1.
         11    1    4    4    0    0 -0.32127250434E+02 -0.91287202834E+01 -0.14025139503E+02  0.36224277668E+02  0.00000000000E+00 0. -1.
        -12    1    4    4    0    0  0.11969001610E+02  0.93897074363E+01 -0.12263453142E+03  0.12357447917E+03  0.00000000000E+00 0.  1.
</event>
<event>
12    1  0.8417180E-002  0.2130356E+03  0.7818608E-02  0.1139858E+00
         21   -1    0    0  501  502  0.00000000000E+00  0.00000000000E+00  0.86453491833E+02  0.86453491833E+02  0.00000000000E+00 0. -1.
         21   -1    0    0  502  503 -0.00000000000E+00 -0.00000000000E+00 -0.14978808851E+04  0.14978808851E+04  0.00000000000E+00 0. -1.
         -6    2    1    2    0  503  0.77572094723E+02 -0.91990743238E+02 -0.13488813973E+04  0.13656006628E+04  0.17579652823E+03 0.  0.
        -24    2    3    3    0    0 -0.17929870562E+02 -0.73363892239E+02 -0.53364833290E+03  0.54456800549E+03  0.77910387356E+02 0.  0.
          6    2    1    2  501    0 -0.77572094723E+02  0.91990743238E+02 -0.62545995967E+02  0.21873371421E+03  0.17161791689E+03 0.  0.
         24    2    5    5    0    0 -0.98521169532E+02  0.17075214884E+02 -0.21135176801E+02  0.13048324074E+03  0.81124574610E+02 0.  0.
          5    1    5    5  501    0  0.20949074809E+02  0.74915528353E+02 -0.41410819166E+02  0.88250473471E+02  0.47000000000E+01 0. -1.
        -11    1    6    6    0    0 -0.92622959464E+02  0.79187462731E+01 -0.45718692618E+02  0.10359497100E+03  0.00000000000E+00 0.  1.
         12    1    6    6    0    0 -0.58982100684E+01  0.91564686113E+01  0.24583515816E+02  0.26888269735E+02  0.00000000000E+00 0. -1.
         -5    1    3    3    0  503  0.95501965285E+02 -0.18626850998E+02 -0.81523306445E+03  0.82103265728E+03  0.47000000000E+01 0.  1.
         11    1    4    4    0    0  0.28452311159E+02 -0.10430554528E+02 -0.15429690881E+03  0.15724460737E+03  0.00000000000E+00 0. -1.
        -12    1    4    4    0    0 -0.46382181721E+02 -0.62933337711E+02 -0.37935142409E+03  0.38732339812E+03  0.00000000000E+00 0.  1.
</event>
<event>
12    1  0.8417180E-002  0.1913262E+03  0.7818608E-02  0.1157291E+00
         21   -1    0    0  503  502  0.00000000000E+00  0.00000000000E+00  0.58361442119E+02  0.58361442119E+02  0.00000000000E+00 0.  1.
         21   -1    0    0  501  503 -0.00000000000E+00 -0.00000000000E+00 -0.90567362080E+03  0.90567362080E+03  0.00000000000E+00 0.  1.
          6    2    1    2  501    0  0.41404351649E+02  0.70155568157E+02 -0.69113926721E+03  0.71713263429E+03  0.17311731398E+03 0.  0.
         24    2    3    3    0    0  0.80423152415E+02  0.52718983481E+02 -0.63085535763E+03  0.64308710065E+03  0.79594987886E+02 0.  0.
         -6    2    1    2    0  502 -0.41404351649E+02 -0.70155568157E+02 -0.15617291147E+03  0.24690242863E+03  0.17301649317E+03 0.  0.
        -24    2    5    5    0    0 -0.11023942477E+02 -0.93305381709E+02 -0.16630259770E+03  0.20710816181E+03  0.80061321022E+02 0.  0.
          5    1    3    3  501    0 -0.39018800767E+02  0.17436584677E+02 -0.60283909574E+02  0.74045533640E+02  0.47000000000E+01 0. -1.
        -13    1    4    4    0    0  0.62680969710E+02  0.62265226612E+02 -0.59839745324E+03  0.60488459598E+03  0.00000000000E+00 0.  1.
         14    1    4    4    0    0  0.17742182705E+02 -0.95462431314E+01 -0.32457904393E+02  0.38202504664E+02  0.00000000000E+00 0. -1.
         -5    1    5    5    0  502 -0.30380409171E+02  0.23149813552E+02  0.10129686227E+02  0.39794266823E+02  0.47000000000E+01 0.  1.
         13    1    6    6    0    0 -0.96318444641E+01 -0.71430446806E+02 -0.47547727619E+02  0.86347365683E+02  0.00000000000E+00 0. -1.
        -14    1    6    6    0    0 -0.13920980130E+01 -0.21874934903E+02 -0.11875487008E+03  0.12076079613E+03  0.00000000000E+00 0.  1.
</event>
<event>
12    1  0.8417180E-002  0.2169835E+03  0.7818608E-02  0.1136280E+00
         21   -1    0    0  501  502  0.00000000000E+00  0.00000000000E+00  0.91162837587E+02  0.91162837587E+02  0.00000000000E+00 0.  1.
         21   -1    0    0  502  503 -0.00000000000E+00 -0.00000000000E+00 -0.51621995909E+03  0.51621995909E+03  0.00000000000E+00 0.  1.
         -6    2    1    2    0  503 -0.12908388135E+03  0.24227173473E+02 -0.22781356922E+03  0.31414766526E+03  0.17187242045E+03 0.  0.
        -24    2    3    3    0    0 -0.10169509373E+03  0.66185429686E+02 -0.98277464757E+02  0.17517884390E+03  0.79415137600E+02 0.  0.
          6    2    1    2  501    0  0.12908388135E+03 -0.24227173473E+02 -0.19724355228E+03  0.29323513141E+03  0.17272005969E+03 0.  0.
         24    2    5    5    0    0  0.10027776315E+03 -0.77519345465E+02 -0.17019838982E+03  0.22672664433E+03  0.79828570383E+02 0.  0.
          5    1    5    5  501    0  0.28806118196E+02  0.53292171992E+02 -0.27045162461E+02  0.66508487080E+02  0.47000000000E+01 0. -1.
        -11    1    6    6    0    0  0.12307019047E+02 -0.12044871213E+02  0.67963809067E+01  0.18513034160E+02  0.00000000000E+00 0.  1.
         12    1    6    6    0    0  0.87970744102E+02 -0.65474474252E+02 -0.17699477073E+03  0.20821361017E+03  0.00000000000E+00 0. -1.
         -5    1    3    3    0  503 -0.27388787620E+02 -0.41958256213E+02 -0.12953610447E+03  0.13896882137E+03  0.47000000000E+01 0.  1.
         13    1    4    4    0    0 -0.85020049337E+01  0.39128277827E+02 -0.46093604874E+01  0.40305736784E+02  0.00000000000E+00 0. -1.
        -14    1    4    4    0    0 -0.93193088792E+02  0.27057151859E+02 -0.93668104270E+02  0.13487310711E+03  0.00000000000E+00 0.  1.
</event>
<event>
12    1  0.8417180E-002  0.1895786E+03  0.7818608E-02  0.1162961E+00
         21   -1    0    0  503  502  0.00000000000E+00  0.00000000000E+00  0.65478641488E+03  0.65478641488E+03  0.00000000000E+00 0. -1.
         21   -1    0    0  501  503 -0.00000000000E+00 -0.00000000000E+00 -0.10705624385E+03  0.10705624385E+03  0.00000000000E+00 0.  1.
          6    2    1    2  501    0  0.79130367343E+02  0.16580231207E+02  0.20235475327E+01  0.18958939055E+03  0.17147455543E+03 0.  0.
         24    2    3    3    0    0  0.51897062866E+02  0.76845385682E+02 -0.76142566030E+01  0.12259298031E+03  0.79828212320E+02 0.  0.
         -6    2    1    2    0  502 -0.79130367343E+02 -0.16580231207E+02  0.54570662350E+03  0.57225326818E+03  0.15212351861E+03 0.  0.
        -24    2    5    5    0    0 -0.64549817996E+02 -0.16624069262E+02  0.19069944722E+03  0.21691571099E+03  0.79013339527E+02 0.  0.
          5    1    3    3  501    0  0.27233304478E+02 -0.60265154475E+02  0.96378041357E+01  0.66996410241E+02  0.47000000000E+01 0. -1.
        -13    1    4    4    0    0 -0.17310813859E+02  0.11198388400E+02 -0.17027578486E+02  0.26739607483E+02  0.00000000000E+00 0.  1.
         14    1    4    4    0    0  0.69207876725E+02  0.65646997282E+02  0.94133218834E+01  0.95853372824E+02  0.00000000000E+00 0. -1.
         -5    1    5    5    0  502 -0.14580549348E+02  0.43838054600E-01  0.35500717628E+03  0.35533755719E+03  0.47000000000E+01 0.  1.
         11    1    6    6    0    0 -0.49031904040E+01  0.23862955675E+02  0.88888484921E+02  0.92166396703E+02  0.00000000000E+00 0. -1.
        -12    1    6    6    0    0 -0.59646627592E+02 -0.40487024937E+02  0.10181096229E+03  0.12474931428E+03  0.00000000000E+00 0.  1.
</event>
<event>
12    1  0.8417180E-002  0.1973122E+03  0.7818608E-02  0.1152162E+00
         21   -1    0    0  503  502  0.00000000000E+00  0.00000000000E+00  0.29467406708E+03  0.29467406708E+03  0.00000000000E+00 0.  1.
         21   -1    0    0  501  503 -0.00000000000E+00 -0.00000000000E+00 -0.14725760670E+03  0.14725760670E+03  0.00000000000E+00 0.  1.
          6    2    1    2  501    0 -0.10420746847E+02 -0.94675168714E+02  0.17745356582E+01  0.19668962940E+03  0.17208045153E+03 0.  0.
         24    2    3    3    0    0 -0.36064963352E+02 -0.68768982983E+02 -0.58470499808E+02  0.12611831371E+03  0.80356549850E+02 0.  0.
         -6    2    1    2    0  502  0.10420746847E+02  0.94675168714E+02  0.14564192472E+03  0.24524204438E+03  0.17280078287E+03 0.  0.
        -24    2    5    5    0    0  0.27822771035E+02 -0.89374527860E+01  0.35241413388E+02  0.92766575266E+02  0.80682684752E+02 0.  0.
          5    1    3    3  501    0  0.25644216505E+02 -0.25906185731E+02  0.60245035466E+02  0.70571315686E+02  0.47000000000E+01 0. -1.
        -13    1    4    4    0    0 -0.93784524545E+01 -0.75428688406E+02 -0.19591488771E+02  0.78493750308E+02  0.00000000000E+00 0.  1.
         14    1    4    4    0    0 -0.26686510898E+02  0.66597054234E+01 -0.38879011037E+02  0.47624563404E+02  0.00000000000E+00 0. -1.
         -5    1    5    5    0  502 -0.17402024188E+02  0.10361262150E+03  0.11040051133E+03  0.15247546912E+03  0.47000000000E+01 0.  1.
         11    1    6    6    0    0  0.12358563798E+02 -0.33047237305E+02  0.49486835659E+02  0.60776647622E+02  0.00000000000E+00 0. -1.
        -12    1    6    6    0    0  0.15464207237E+02  0.24109784519E+02 -0.14245422271E+02  0.31989927644E+02  0.00000000000E+00 0.  1.
</event>
<event>
12    1  0.8417180E-002  0.1957979E+03  0.7818608E-02  0.1153937E+00
         21   -1    0    0  503  502  0.00000000000E+00  0.00000000000E+00  0.59565373752E+02  0.59565373752E+02  0.00000000000E+00 0.  1.
         21   -1    0    0  501  503 -0.00000000000E+00 -0.00000000000E+00 -0.66389095273E+03  0.66389095273E+03  0.00000000000E+00 0.  1.
          6    2    1    2  501    0 -0.74499383711E+02  0.44965753415E+02 -0.22408906002E+03  0.29576877487E+03  0.17231130031E+03 0.  0.
         24    2    3    3    0    0 -0.10516504702E+03  0.56641421458E+02 -0.21914314912E+03  0.26225376084E+03  0.80531841722E+02 0.  0.
         -6    2    1    2    0  502  0.74499383711E+02 -0.44965753415E+02 -0.38023651896E+03  0.42768755161E+03  0.17539884349E+03 0.  0.
        -24    2    5    5    0    0  0.82556000890E+02  0.95815819887E+01 -0.14015432001E+03  0.18131005034E+03  0.79516042033E+02 0.  0.
          5    1    3    3  501    0  0.30665663311E+02 -0.11675668043E+02 -0.49459108983E+01  0.33515014026E+02  0.47000000000E+01 0. -1.
        -13    1    4    4    0    0 -0.71522716221E+02  0.10859698508E+02 -0.62415557335E+02  0.95546500641E+02  0.00000000000E+00 0.  1.
         14    1    4    4    0    0 -0.33642330801E+02  0.45781722949E+02 -0.15672759178E+03  0.16670726020E+03  0.00000000000E+00 0. -1.
         -5    1    5    5    0  502 -0.80566171785E+01 -0.54547335403E+02 -0.24008219895E+03  0.24637750127E+03  0.47000000000E+01 0.  1.
         11    1    6    6    0    0  0.74392484738E+01  0.19333689581E+02  0.14005353528E+01  0.20762838677E+02  0.00000000000E+00 0. -1.
        -12    1    6    6    0    0  0.75116752416E+02 -0.97521075920E+01 -0.14155485536E+03  0.16054721166E+03  0.00000000000E+00 0.  1.
</event>
<event>
12    1  0.8417180E-002  0.2395804E+03  0.7818608E-02  0.1120237E+00
         21   -1    0    0  503  502  0.00000000000E+00  0.00000000000E+00  0.63936361183E+03  0.63936361183E+03  0.00000000000E+00 0. -1.
         21   -1    0    0  501  503 -0.00000000000E+00 -0.00000000000E+00 -0.10792290336E+03  0.10792290336E+03  0.00000000000E+00 0.  1.
          6    2    1    2  501    0 -0.15736147138E+03  0.54389153006E+02  0.11140606150E+03  0.26421597088E+03  0.17227291166E+03 0.  0.
         24    2    3    3    0    0 -0.66473773836E+01  0.13857049988E+02  0.57160793331E+02  0.98921601277E+02  0.79258573319E+02 0.  0.
         -6    2    1    2    0  502  0.15736147138E+03 -0.54389153006E+02  0.42003464697E+03  0.48307054431E+03  0.17090123896E+03 0.  0.
        -24    2    5    5    0    0  0.15303196933E+02  0.10467764557E+02  0.15727500994E+03  0.17737185287E+03  0.79884813990E+02 0.  0.
          5    1    3    3  501    0 -0.15071409400E+03  0.40532103018E+02  0.54245268167E+02  0.16529436960E+03  0.47000000000E+01 0. -1.
        -11    1    4    4    0    0  0.27408427938E+01  0.37522172978E+02  0.14281690942E+01  0.37649241044E+02  0.00000000000E+00 0.  1.
         12    1    4    4    0    0 -0.93882201774E+01 -0.23665122990E+02  0.55732624237E+02  0.61272360234E+02  0.00000000000E+00 0. -1.
         -5    1    5    5    0  502  0.14205827445E+03 -0.64856917563E+02  0.26275963703E+03  0.30569869144E+03  0.47000000000E+01 0.  1.
         11    1    6    6    0    0  0.24610499015E+02  0.34125353178E+02  0.14110115618E+03  0.14724045866E+03  0.00000000000E+00 0. -1.
        -12    1    6    6    0    0 -0.93073020822E+01 -0.23657588621E+02  0.16173853766E+02  0.30131394210E+02  0.00000000000E+00 0.  1.
</event>
<event>
12    1  0.8417180E-002  0.1974986E+03  0.7818608E-02  0.1152158E+00
         21   -1    0    0  501  502  0.00000000000E+00  0.00000000000E+00  0.76609282699E+03  0.76609282699E+03  0.00000000000E+00 0. -1.
         21   -1    0    0  502  503 -0.00000000000E+00 -0.00000000000E+00 -0.60725503050E+02  0.60725503050E+02  0.00000000000E+00 0. -1.
         -6    2    1    2    0  503  0.37188906146E+01  0.97509471162E+02  0.52277765461E+03  0.55884001899E+03  0.17170836775E+03 0.  0.
        -24    2    3    3    0    0  0.54373036255E+02  0.17289334471E+02  0.32515372016E+03  0.33957209551E+03  0.79554498034E+02 0.  0.
          6    2    1    2  501    0 -0.37188906146E+01 -0.97509471162E+02  0.18258966933E+03  0.26797831105E+03  0.17015128777E+03 0.  0.
         24    2    5    5    0    0 -0.14823552811E+02 -0.12123073305E+03  0.19227841202E+03  0.23965917400E+03  0.74490963190E+02 0.  0.
          5    1    5    5  501    0  0.11104662196E+02  0.23721261892E+02 -0.96887426910E+01  0.28319137049E+02  0.47000000000E+01 0. -1.
        -11    1    6    6    0    0  0.22143070781E+02 -0.85738065653E+02  0.14519123044E+03  0.17006417872E+03  0.00000000000E+00 0.  1.
         12    1    6    6    0    0 -0.36966623592E+02 -0.35492667401E+02  0.47087181582E+02  0.69594995282E+02  0.00000000000E+00 0. -1.
         -5    1    3    3    0  503 -0.50654145640E+02  0.80220136691E+02  0.19762393445E+03  0.21926792349E+03  0.47000000000E+01 0.  1.
         13    1    4    4    0    0  0.14781523730E+02 -0.19292229638E+02  0.22065496247E+03  0.22198940522E+03  0.00000000000E+00 0. -1.
        -14    1    4    4    0    0  0.39591512525E+02  0.36581564109E+02  0.10449875768E+03  0.11758269028E+03  0.00000000000E+00 0.  1.
</event>
<event>
12    1  0.8417180E-002  0.1773620E+03  0.7818608E-02  0.1170456E+00
         21   -1    0    0  503  502  0.00000000000E+00  0.00000000000E+00  0.29542756426E+03  0.29542756426E+03  0.00000000000E+00 0.  1.
         21   -1    0    0  501  503 -0.00000000000E+00 -0.00000000000E+00 -0.11732685393E+03  0.11732685393E+03  0.00000000000E+00 0.  1.
          6    2    1    2  501    0  0.19409736580E+02  0.35050134405E+02  0.15225370155E+03  0.23351894991E+03  0.17246640407E+03 0.  0.
         24    2    3    3    0    0  0.23850051929E+01  0.83102435891E+02  0.14007879260E+03  0.18089591726E+03  0.78673767204E+02 0.  0.
         -6    2    1    2    0  502 -0.19409736580E+02 -0.35050134405E+02  0.25847008776E+02  0.17923546829E+03  0.17277741587E+03 0.  0.
        -24    2    5    5    0    0  0.23609130305E+02  0.95495014649E+01  0.64995778313E+02  0.10578843578E+03  0.79486841268E+02 0.  0.
          5    1    3    3  501    0  0.17024731387E+02 -0.48052301487E+02  0.12174908959E+02  0.52623032648E+02  0.47000000000E+01 0. -1.
        -11    1    4    4    0    0  0.37224702772E+01 -0.80116549713E+01  0.56694605342E+02  0.57378756306E+02  0.00000000000E+00 0.  1.
         12    1    4    4    0    0 -0.13374650842E+01  0.91114090863E+02  0.83384187253E+02  0.12351716096E+03  0.00000000000E+00 0. -1.
         -5    1    5    5    0  502 -0.43018866885E+02 -0.44599635870E+02 -0.39148769537E+02  0.73447032507E+02  0.47000000000E+01 0.  1.
         13    1    6    6    0    0  0.36898854213E+02 -0.18238343861E+02  0.62565240892E+02  0.74890399898E+02  0.00000000000E+00 0. -1.
        -14    1    6    6    0    0 -0.13289723907E+02  0.27787845326E+02  0.24305374209E+01  0.30898035885E+02  0.00000000000E+00 0.  1.
</event>
<event>
12    1  0.8417180E-002  0.2455002E+03  0.7818608E-02  0.1116187E+00
         21   -1    0    0  503  502  0.00000000000E+00  0.00000000000E+00  0.15318836871E+03  0.15318836871E+03  0.00000000000E+00 0.  1.
         21   -1    0    0  501  503 -0.00000000000E+00 -0.00000000000E+00 -0.41363614607E+03  0.41363614607E+03  0.00000000000E+00 0.  1.
          6    2    1    2  501    0  0.65481209196E+02 -0.16230626318E+03 -0.19292516114E+03  0.31223466820E+03  0.17216055995E+03 0.  0.
         24    2    3    3    0    0  0.51452868567E+02 -0.18350197031E+03 -0.13029166330E+03  0.24447703105E+03  0.80453280827E+02 0.  0.
         -6    2    1    2    0  502 -0.65481209196E+02  0.16230626318E+03 -0.67522616225E+02  0.25458984657E+03  0.17212081353E+03 0.  0.
        -24    2    5    5    0    0  0.48976803316E+01  0.37898591361E+02  0.13141831129E+02  0.90396972285E+02  0.80861699049E+02 0.  0.
          5    1    3    3  501    0  0.14028340629E+02  0.21195707126E+02 -0.62633497831E+02  0.67757637149E+02  0.47000000000E+01 0. -1.
        -13    1    4    4    0    0  0.62932753947E+02 -0.86658238033E+02 -0.50191478785E+02  0.11827665146E+03  0.00000000000E+00 0.  1.
         14    1    4    4    0    0 -0.11479885380E+02 -0.96843732276E+02 -0.80100184519E+02  0.12620037959E+03  0.00000000000E+00 0. -1.
         -5    1    5    5    0  502 -0.70378889528E+02  0.12440767182E+03 -0.80664447354E+02  0.16419287429E+03  0.47000000000E+01 0.  1.
         13    1    6    6    0    0 -0.24140628514E+01  0.16004191925E+02 -0.34139509054E+02  0.37781846660E+02  0.00000000000E+00 0. -1.
        -14    1    6    6    0    0  0.73117431831E+01  0.21894399436E+02  0.47281340183E+02  0.52615125624E+02  0.00000000000E+00 0.  1.
</event>
<event>
12    1  0.8417180E-002  0.1931253E+03  0.7818608E-02  0.1158142E+00
         21   -1    0    0  501  502  0.00000000000E+00  0.00000000000E+00  0.22900248117E+03  0.22900248117E+03  0.00000000000E+00 0. -1.
         21   -1    0    0  502  503 -0.00000000000E+00 -0.00000000000E+00 -0.16158597523E+03  0.16158597523E+03  0.00000000000E+00 0. -1.
         -6    2    1    2    0  503 -0.50454198137E+02 -0.37320371500E+02 -0.99311536536E+01  0.18254989620E+03  0.17113562035E+03 0.  0.
        -24    2    3    3    0    0 -0.19293634342E+02  0.35044723486E+02  0.29918960314E+02  0.94131519765E+02  0.79782340506E+02 0.  0.
          6    2    1    2  501    0  0.50454198137E+02  0.37320371500E+02  0.77347659599E+02  0.20803856020E+03  0.18264431512E+03 0.  0.
         24    2    5    5    0    0  0.70634069079E+02  0.76017155691E+02  0.93464903247E+02  0.16127827961E+03  0.80667314698E+02 0.  0.
          5    1    5    5  501    0 -0.20179870942E+02 -0.38696784191E+02 -0.16117243648E+02  0.46760280589E+02  0.47000000000E+01 0. -1.
        -13    1    6    6    0    0  0.23202861260E+02 -0.86864888049E+01 -0.23395390588E+01  0.24885765036E+02  0.00000000000E+00 0.  1.
         14    1    6    6    0    0  0.47431207820E+02  0.84703644496E+02  0.95804442306E+02  0.13639251457E+03  0.00000000000E+00 0. -1.
         -5    1    3    3    0  503 -0.31160563795E+02 -0.72365094986E+02 -0.39850113968E+02  0.88418376436E+02  0.47000000000E+01 0.  1.
         11    1    4    4    0    0 -0.83041010953E+01 -0.25963373460E+02  0.89143138066E+01  0.28679606815E+02  0.00000000000E+00 0. -1.
        -12    1    4    4    0    0 -0.10989533246E+02  0.61008096946E+02  0.21004646508E+02  0.65451912950E+02  0.00000000000E+00 0.  1.
</event>
<event>
12    1  0.8417180E-002  0.2184924E+03  0.7818608E-02  0.1135130E+00
         21   -1    0    0  501  502  0.00000000000E+00  0.00000000000E+00  0.16677177920E+03  0.16677177920E+03  0.00000000000E+00 0.  1.
         21   -1    0    0  502  503 -0.00000000000E+00 -0.00000000000E+00 -0.28730988743E+03  0.28730988743E+03  0.00000000000E+00 0. -1.
         -6    2    1    2    0  503  0.11462177487E+03 -0.69417109010E+02 -0.41842686809E+02  0.22184925046E+03  0.17178298285E+03 0.  0.
        -24    2    3    3    0    0  0.51391953099E+02 -0.10464882961E+03 -0.47275130466E+02  0.14911077412E+03  0.80041080794E+02 0.  0.
          6    2    1    2  501    0 -0.11462177487E+03  0.69417109010E+02 -0.78695421418E+02  0.23223241616E+03  0.17257473589E+03 0.  0.
         24    2    5    5    0    0 -0.10546407918E+03 -0.69793090402E+01 -0.16547935637E+02  0.13321385189E+03  0.79377033263E+02 0.  0.
          5    1    5    5  501    0 -0.91576956845E+01  0.76396418051E+02 -0.62147485781E+02  0.99018564270E+02  0.47000000000E+01 0. -1.
        -11    1    6    6    0    0 -0.20819137690E+02 -0.31932364998E+02  0.12806304652E+02  0.40213354341E+02  0.00000000000E+00 0.  1.
         12    1    6    6    0    0 -0.84644941491E+02  0.24953055958E+02 -0.29354240289E+02  0.93000497550E+02  0.00000000000E+00 0. -1.
         -5    1    3    3    0  503  0.63229821766E+02  0.35231720603E+02  0.54324436569E+01  0.72738476347E+02  0.47000000000E+01 0.  1.
         13    1    4    4    0    0  0.56850973065E+02 -0.85447879745E+02 -0.65770151462E+02  0.12189785115E+03  0.00000000000E+00 0. -1.
        -14    1    4    4    0    0 -0.54590199665E+01 -0.19200949868E+02  0.18495020996E+02  0.27212922968E+02  0.00000000000E+00 0.  1.
</event>
<event>
12    1  0.8417180E-002  0.1938327E+03  0.7818608E-02  0.1155323E+00
         21   -1    0    0  503  502  0.00000000000E+00  0.00000000000E+00  0.75794400247E+02  0.75794400247E+02  0.00000000000E+00 0.  1.
         21   -1    0    0  501  503 -0.00000000000E+00 -0.00000000000E+00 -0.50442288689E+03  0.50442288689E+03  0.00000000000E+00 0.  1.
          6    2    1    2  501    0  0.75353423672E+02 -0.45128210112E+02 -0.25955007645E+03  0.32394035243E+03  0.17279009213E+03 0.  0.
         24    2    3    3    0    0  0.95400121816E+02 -0.53021257068E+02 -0.26916173273E+03  0.29988532732E+03  0.74637351437E+02 0.  0.
         -6    2    1    2    0  502 -0.75353423672E+02  0.45128210112E+02 -0.16907841019E+03  0.25627693470E+03  0.17139330402E+03 0.  0.
        -24    2    5    5    0    0 -0.83304067419E+01 -0.10346773872E+02 -0.14301965295E+03  0.16533350462E+03  0.81878539397E+02 0.  0.
          5    1    3    3  501    0 -0.20046698144E+02  0.78930469559E+01  0.96116562795E+01  0.24055025113E+02  0.47000000000E+01 0. -1.
        -13    1    4    4    0    0  0.10131020164E+03 -0.63943981206E+02 -0.24441544571E+03  0.27219753818E+03  0.00000000000E+00 0.  1.
         14    1    4    4    0    0 -0.59100798217E+01  0.10922724138E+02 -0.24746287019E+02  0.27687789137E+02  0.00000000000E+00 0. -1.
         -5    1    5    5    0  502 -0.67023016930E+02  0.55474983984E+02 -0.26058757236E+02  0.90943430082E+02  0.47000000000E+01 0.  1.
         11    1    6    6    0    0 -0.14132035819E+02 -0.41184773022E+02 -0.45884648164E+02  0.63255836904E+02  0.00000000000E+00 0. -1.
        -12    1    6    6    0    0  0.58016290767E+01  0.30837999150E+02 -0.97135004788E+02  0.10207766772E+03  0.00000000000E+00 0.  1.
</event>
<event>
12    1  0.8417180E-002  0.2068829E+03  0.7818608E-02  0.1144130E+00
         21   -1    0    0  503  502  0.00000000000E+00  0.00000000000E+00  0.12622102131E+04  0.12622102131E+04  0.00000000000E+00 0.  1.
         21   -1    0    0  501  503 -0.00000000000E+00 -0.00000000000E+00 -0.44494401896E+02  0.44494401896E+02  0.00000000000E+00 0.  1.
          6    2    1    2  501    0  0.10886957362E+02  0.11617918163E+03  0.28971242857E+03  0.35599697326E+03  0.17083449775E+03 0.  0.
         24    2    3    3    0    0  0.20615449018E+02  0.10040024213E+03  0.95695359804E+02  0.16103971781E+03  0.79189541397E+02 0.  0.
         -6    2    1    2    0  502 -0.10886957362E+02 -0.11617918163E+03  0.92800338262E+03  0.95070764171E+03  0.17040719989E+03 0.  0.
        -24    2    5    5    0    0 -0.13357291554E+02 -0.20623725831E+02  0.22502541500E+03  0.24124512640E+03  0.83420730689E+02 0.  0.
          5    1    3    3  501    0 -0.97284916560E+01  0.15778939494E+02  0.19401706876E+03  0.19495725545E+03  0.47000000000E+01 0. -1.
        -13    1    4    4    0    0 -0.53474498860E+01 -0.11984889161E+02  0.40971446691E+01  0.13748432017E+02  0.00000000000E+00 0.  1.
         14    1    4    4    0    0  0.25962898905E+02  0.11238513130E+03  0.91598215135E+02  0.14729128580E+03  0.00000000000E+00 0. -1.
         -5    1    5    5    0  502  0.24703341919E+01 -0.95555455797E+02  0.70297796762E+03  0.70946251532E+03  0.47000000000E+01 0.  1.
         11    1    6    6    0    0 -0.28721721565E+02 -0.46302775951E+02  0.11553218408E+03  0.12773632964E+03  0.00000000000E+00 0. -1.
        -12    1    6    6    0    0  0.15364430010E+02  0.25679050120E+02  0.10949323092E+03  0.11350879676E+03  0.00000000000E+00 0.  1.
</event>
<event>
12    1  0.8417180E-002  0.3033235E+03  0.7818608E-02  0.1083597E+00
         21   -1    0    0  503  502  0.00000000000E+00  0.00000000000E+00  0.14290494969E+03  0.14290494969E+03  0.00000000000E+00 0.  1.
         21   -1    0    0  501  503 -0.00000000000E+00 -0.00000000000E+00 -0.67486987112E+03  0.67486987112E+03  0.00000000000E+00 0. -1.
          6    2    1    2  501    0 -0.13790085501E+03 -0.20853944519E+03 -0.17809850075E+03  0.35169906689E+03  0.17166191095E+03 0.  0.
         24    2    3    3    0    0 -0.15050381516E+03 -0.20347975557E+03 -0.11872481575E+03  0.29061093765E+03  0.79396006813E+02 0.  0.
         -6    2    1    2    0  502  0.13790085501E+03  0.20853944519E+03 -0.35386642068E+03  0.46607575391E+03  0.17175511256E+03 0.  0.
        -24    2    5    5    0    0  0.36859021666E+01  0.10532097337E+03 -0.18361151129E+03  0.22591636796E+03  0.78860160581E+02 0.  0.
          5    1    3    3  501    0  0.12602960157E+02 -0.50596896153E+01 -0.59373685003E+02  0.61088129244E+02  0.47000000000E+01 0. -1.
        -11    1    4    4    0    0 -0.10926535100E+03 -0.85443921557E+02 -0.46923718330E+02  0.14642887694E+03  0.00000000000E+00 0.  1.
         12    1    4    4    0    0 -0.41238464163E+02 -0.11803583402E+03 -0.71801097418E+02  0.14418206070E+03  0.00000000000E+00 0. -1.
         -5    1    5    5    0  502  0.13421495284E+03  0.10321847182E+03 -0.17025490939E+03  0.24015938595E+03  0.47000000000E+01 0.  1.
         13    1    6    6    0    0  0.25561506252E+02  0.80642845465E+02 -0.17067738482E+03  0.19049259517E+03  0.00000000000E+00 0. -1.
        -14    1    6    6    0    0 -0.21875604085E+02  0.24678127906E+02 -0.12934126475E+02  0.35423772790E+02  0.00000000000E+00 0.  1.
</event>
<event>
12    1  0.8417180E-002  0.1766378E+03  0.7818608E-02  0.1171253E+00
         21   -1    0    0  503  502  0.00000000000E+00  0.00000000000E+00  0.17561491176E+03  0.17561491176E+03  0.00000000000E+00 0.  1.
         21   -1    0    0  501  503 -0.00000000000E+00 -0.00000000000E+00 -0.38124082365E+03  0.38124082365E+03  0.00000000000E+00 0.  1.
          6    2    1    2  501    0  0.31133981644E+02 -0.26104913208E+02 -0.30667018444E+03  0.35390326204E+03  0.17190149956E+03 0.  0.
         24    2    3    3    0    0 -0.36766846794E+01  0.47614683896E+02 -0.20647887295E+03  0.22464866682E+03  0.74517262406E+02 0.  0.
         -6    2    1    2    0  502 -0.31133981644E+02  0.26104913208E+02  0.10104427255E+03  0.20295247337E+03  0.17125702942E+03 0.  0.
        -24    2    5    5    0    0  0.20806191102E+02  0.65246454977E+02  0.36283212261E+02  0.11105074996E+03  0.79534898621E+02 0.  0.
          5    1    3    3  501    0  0.34810666324E+02 -0.73719597103E+02 -0.10019131149E+03  0.12925459522E+03  0.47000000000E+01 0. -1.
        -11    1    4    4    0    0 -0.31147715852E+02  0.39332796399E+02 -0.76105382898E+02  0.91155243302E+02  0.00000000000E+00 0.  1.
         12    1    4    4    0    0  0.27471031172E+02  0.82818874962E+01 -0.13037349005E+03  0.13349342352E+03  0.00000000000E+00 0. -1.
         -5    1    5    5    0  502 -0.51940172746E+02 -0.39141541770E+02  0.64761060291E+02  0.91901723417E+02  0.47000000000E+01 0.  1.
         13    1    6    6    0    0  0.43703609477E+02  0.21307204222E+02 -0.16512561916E+01  0.48649039868E+02  0.00000000000E+00 0. -1.
        -14    1    6    6    0    0 -0.22897418375E+02  0.43939250755E+02  0.37934468453E+02  0.62401710088E+02  0.00000000000E+00 0.  1.
</event>
<event>
12    1  0.8417180E-002  0.2314425E+03  0.7818608E-02  0.1125659E+00
         21   -1    0    0  503  502  0.00000000000E+00  0.00000000000E+00  0.10348215164E+04  0.10348215164E+04  0.00000000000E+00 0. -1.
         21   -1    0    0  501  503 -0.00000000000E+00 -0.00000000000E+00 -0.55953751213E+02  0.55953751213E+02  0.00000000000E+00 0. -1.
          6    2    1    2  501    0 -0.11423103656E+03  0.10479205552E+03  0.63954796027E+03  0.68013764541E+03  0.17185900793E+03 0.  0.
         24    2    3    3    0    0 -0.83922538743E+02 -0.17163051067E+01  0.24313874374E+03  0.26852497205E+03  0.77092630603E+02 0.  0.
         -6    2    1    2    0  502  0.11423103656E+03 -0.10479205552E+03  0.33931980494E+03  0.41063762222E+03  0.17162523750E+03 0.  0.
        -24    2    5    5    0    0  0.27539936789E+02 -0.33581148019E+02  0.59948052115E+02  0.10954460271E+03  0.80747194433E+02 0.  0.
          5    1    3    3  501    0 -0.30308497813E+02  0.10650836063E+03  0.39640921653E+03  0.41161267336E+03  0.47000000000E+01 0. -1.
        -11    1    4    4    0    0  0.53606515637E+01  0.12116567866E+02  0.56000180705E+01  0.14384297147E+02  0.00000000000E+00 0.  1.
         12    1    4    4    0    0 -0.89283190307E+02 -0.13832872972E+02  0.23753872567E+03  0.25414067490E+03  0.00000000000E+00 0. -1.
         -5    1    5    5    0  502  0.86691099767E+02 -0.71210907504E+02  0.27937175282E+03  0.30109301952E+03  0.47000000000E+01 0.  1.
         13    1    6    6    0    0  0.98141130383E+01 -0.59476281739E+02  0.38227023218E+02  0.71379620399E+02  0.00000000000E+00 0. -1.
        -14    1    6    6    0    0  0.17725823751E+02  0.25895133721E+02  0.21721028897E+02  0.38164982306E+02  0.00000000000E+00 0.  1.
</event>
<event>
12    1  0.8417180E-002  0.2213195E+03  0.7818608E-02  0.1134564E+00
         21   -1    0    0  503  502  0.00000000000E+00  0.00000000000E+00  0.25024095430E+03  0.25024095430E+03  0.00000000000E+00 0.  1.
         21   -1    0    0  501  503 -0.00000000000E+00 -0.00000000000E+00 -0.75031106367E+03  0.75031106367E+03  0.00000000000E+00 0.  1.
          6    2    1    2  501    0  0.29210024571E+01  0.12555152590E+03 -0.68435247450E+03  0.71925005360E+03  0.18223779066E+03 0.  0.
         24    2    3    3    0    0 -0.59586053077E+02  0.48530353701E+02 -0.25124800398E+03  0.27490675688E+03  0.80885552003E+02 0.  0.
         -6    2    1    2    0  502 -0.29210024571E+01 -0.12555152590E+03  0.18428236513E+03  0.28130196436E+03  0.17146162004E+03 0.  0.
        -24    2    5    5    0    0 -0.10297111254E+02 -0.15053691640E+03  0.11204815961E+03  0.20436986984E+03  0.80279884969E+02 0.  0.
          5    1    3    3  501    0  0.62507055534E+02  0.77021172195E+02 -0.43310447052E+03  0.44434329672E+03  0.47000000000E+01 0. -1.
        -11    1    4    4    0    0 -0.75670325905E+02  0.46034373942E+02 -0.23791088538E+03  0.25386364684E+03  0.00000000000E+00 0.  1.
         12    1    4    4    0    0  0.16084272828E+02  0.24959797585E+01 -0.13337118595E+02  0.21043110031E+02  0.00000000000E+00 0. -1.
         -5    1    5    5    0  502  0.73761087967E+01  0.24985390501E+02  0.72234205524E+02  0.76932094519E+02  0.47000000000E+01 0.  1.
         13    1    6    6    0    0  0.31250749360E+02 -0.29684779422E+02  0.26937152415E+02  0.50827213628E+02  0.00000000000E+00 0. -1.
        -14    1    6    6    0    0 -0.41547860614E+02 -0.12085213697E+03  0.85111007191E+02  0.15354265622E+03  0.00000000000E+00 0.  1.
</event>
<event>
12    1  0.8417180E-002  0.2456938E+03  0.7818608E-02  0.1116237E+00
         21   -1    0    0  501  502  0.00000000000E+00  0.00000000000E+00  0.38158616869E+02  0.38158616869E+02  0.00000000000E+00 0. -1.
         21   -1    0    0  502  503 -0.00000000000E+00 -0.00000000000E+00 -0.16577501425E+04  0.16577501425E+04  0.00000000000E+00 0.  1.
         -6    2    1    2    0  503 -0.13741539401E+03  0.10687218929E+03 -0.61837975344E+03  0.66499147852E+03  0.17180073250E+03 0.  0.
        -24    2    3    3    0    0 -0.16864535462E+03  0.85866745700E+02 -0.49490045537E+03  0.53581808284E+03  0.79750884151E+02 0.  0.
          6    2    1    2  501    0  0.13741539401E+03 -0.10687218929E+03 -0.10012117722E+04  0.10309172809E+04  0.17338042513E+03 0.  0.
         24    2    5    5    0    0  0.19930021551E+02 -0.48178081326E+02 -0.24420333922E+03  0.26258683849E+03  0.81229573345E+02 0.  0.
          5    1    5    5  501    0  0.11748537246E+03 -0.58694107966E+02 -0.75700843302E+03  0.76833044240E+03  0.47000000000E+01 0. -1.
        -11    1    6    6    0    0  0.22410888210E+02 -0.59965016775E+02 -0.24202271896E+03  0.25034585604E+03  0.00000000000E+00 0.  1.
         12    1    6    6    0    0 -0.24808666593E+01  0.11786935449E+02 -0.21806202634E+01  0.12240982452E+02  0.00000000000E+00 0. -1.
         -5    1    3    3    0  503  0.31229960607E+02  0.21005443592E+02 -0.12347929807E+03  0.12917339568E+03  0.47000000000E+01 0.  1.
         11    1    4    4    0    0 -0.10775149505E+03  0.92196878649E+02 -0.30643618366E+03  0.33765927171E+03  0.00000000000E+00 0. -1.
        -12    1    4    4    0    0 -0.60893859566E+02 -0.63301329488E+01 -0.18846427171E+03  0.19815881113E+03  0.00000000000E+00 0.  1.
</event>
<event>
12    1  0.8417180E-002  0.1937286E+03  0.7818608E-02  0.1155223E+00
         21   -1    0    0  501  502  0.00000000000E+00  0.00000000000E+00  0.20863158915E+03  0.20863158915E+03  0.00000000000E+00 0. -1.
         21   -1    0    0  502  503 -0.00000000000E+00 -0.00000000000E+00 -0.34509744158E+03  0.34509744158E+03  0.00000000000E+00 0. -1.
         -6    2    1    2    0  503 -0.51254700942E+02  0.73879975331E+02 -0.25996317908E+03  0.32398489769E+03  0.17117261560E+03 0.  0.
        -24    2    3    3    0    0 -0.32086187057E+02  0.98835155899E+02 -0.26192046951E+03  0.29210835542E+03  0.76987320491E+02 0.  0.
          6    2    1    2  501    0  0.51254700942E+02 -0.73879975331E+02  0.12349732665E+03  0.22974413304E+03  0.17159685851E+03 0.  0.
         24    2    5    5    0    0  0.68551349858E+02 -0.10643944178E+03  0.87568172334E+02  0.17804996461E+03  0.89470457461E+02 0.  0.
          5    1    5    5  501    0 -0.17296648916E+02  0.32559466447E+02  0.35929154320E+02  0.51694168426E+02  0.47000000000E+01 0. -1.
        -11    1    6    6    0    0 -0.14813361300E+02  0.43597386112E+01  0.32906125196E+01  0.15788322410E+02  0.00000000000E+00 0.  1.
         12    1    6    6    0    0  0.83364711158E+02 -0.11079918039E+03  0.84277559814E+02  0.16226164220E+03  0.00000000000E+00 0. -1.
         -5    1    3    3    0  503 -0.19168513885E+02 -0.24955180568E+02  0.19572904252E+01  0.31876542277E+02  0.47000000000E+01 0.  1.
         13    1    4    4    0    0 -0.10681993660E+02  0.41310317755E+02 -0.29888725893E+02  0.52095904609E+02  0.00000000000E+00 0. -1.
        -14    1    4    4    0    0 -0.21404193398E+02  0.57524838145E+02 -0.23203174361E+03  0.24001245081E+03  0.00000000000E+00 0.  1.
</event>
<event>
12    1  0.8417180E-002  0.2021059E+03  0.7818608E-02  0.1148417E+00
         21   -1    0    0  503  502  0.00000000000E+00  0.00000000000E+00  0.15440985443E+03  0.15440985443E+03  0.00000000000E+00 0.  1.
         21   -1    0    0  501  503 -0.00000000000E+00 -0.00000000000E+00 -0.43322788512E+03  0.43322788512E+03  0.00000000000E+00 0.  1.
          6    2    1    2  501    0  0.23419326387E+02  0.10125161451E+03 -0.32380423710E+03  0.38058571523E+03  0.17086821935E+03 0.  0.
         24    2    3    3    0    0 -0.34288063750E+02  0.97460901519E+02 -0.27176261380E+03  0.30264385909E+03  0.84048132342E+02 0.  0.
         -6    2    1    2    0  502 -0.23419326387E+02 -0.10125161451E+03  0.44986206405E+02  0.20705202433E+03  0.17333905423E+03 0.  0.
        -24    2    5    5    0    0  0.13389005360E+02 -0.84141082886E+02  0.88101196753E+02  0.14764986973E+03  0.82338787135E+02 0.  0.
          5    1    3    3  501    0  0.57707390137E+02  0.37907129953E+01 -0.52041623301E+02  0.77941856132E+02  0.47000000000E+01 0. -1.
        -11    1    4    4    0    0  0.27942323050E+02  0.36316217250E+02 -0.87532147017E+02  0.98800393795E+02  0.00000000000E+00 0.  1.
         12    1    4    4    0    0 -0.62230386800E+02  0.61144684269E+02 -0.18423046678E+03  0.20384346530E+03  0.00000000000E+00 0. -1.
         -5    1    5    5    0  502 -0.36808331748E+02 -0.17110531628E+02 -0.43114990348E+02  0.59402154602E+02  0.47000000000E+01 0.  1.
         11    1    6    6    0    0  0.16933296287E+02 -0.17402422921E+02 -0.12159554902E+02  0.27155765909E+02  0.00000000000E+00 0. -1.
        -12    1    6    6    0    0 -0.35442909262E+01 -0.66738659965E+02  0.10026075166E+03  0.12049410382E+03  0.00000000000E+00 0.  1.
</event>
<event>
12    1  0.8417180E-002  0.2927580E+03  0.7818608E-02  0.1088966E+00
         21   -1    0    0  503  502  0.00000000000E+00  0.00000000000E+00  0.29403397087E+03  0.29403397087E+03  0.00000000000E+00 0. -1.
         21   -1    0    0  501  503 -0.00000000000E+00 -0.00000000000E+00 -0.10921910148E+04  0.10921910148E+04  0.00000000000E+00 0. -1.
          6    2    1    2  501    0  0.19019905623E+03 -0.14067065984E+03 -0.99260644915E+03  0.10347739784E+04  0.17183046256E+03 0.  0.
         24    2    3    3    0    0  0.99664855230E+02 -0.12671767837E+03 -0.45286659609E+03  0.48729582699E+03  0.79866236734E+02 0.  0.
         -6    2    1    2    0  502 -0.19019905623E+03  0.14067065984E+03  0.19444940525E+03  0.35145100728E+03  0.17246252863E+03 0.  0.
        -24    2    5    5    0    0 -0.14398962440E+03  0.16091323816E+03  0.11532394204E+03  0.25749355682E+03  0.79857611077E+02 0.  0.
          5    1    3    3  501    0  0.90534200999E+02 -0.13952981470E+02 -0.53973985305E+03  0.54747815136E+03  0.47000000000E+01 0. -1.
        -13    1    4    4    0    0  0.14976125093E+02  0.60122118163E+00 -0.12064683508E+03  0.12157427608E+03  0.00000000000E+00 0.  1.
         14    1    4    4    0    0  0.84688730138E+02 -0.12731889955E+03 -0.33221976101E+03  0.36572155092E+03  0.00000000000E+00 0. -1.
         -5    1    5    5    0  502 -0.46209431831E+02 -0.20242578319E+02  0.79125463213E+02  0.93957450454E+02  0.47000000000E+01 0.  1.
         13    1    6    6    0    0 -0.72797332748E+02  0.94078708699E+02  0.10612334766E+03  0.15941273476E+03  0.00000000000E+00 0. -1.
        -14    1    6    6    0    0 -0.71192291649E+02  0.66834529462E+02  0.92005943795E+01  0.98080822058E+02  0.00000000000E+00 0.  1.
</event>
<event>
12    1  0.8417180E-002  0.2280921E+03  0.7818608E-02  0.1128633E+00
         21   -1    0    0  503  502  0.00000000000E+00  0.00000000000E+00  0.11360491587E+04  0.11360491587E+04  0.00000000000E+00 0. -1.
         21   -1    0    0  501  503 -0.00000000000E+00 -0.00000000000E+00 -0.48117167386E+02  0.48117167386E+02  0.00000000000E+00 0. -1.
          6    2    1    2  501    0  0.13832975848E+03  0.56129512361E+02  0.39921443855E+03  0.45978057738E+03  0.17245395660E+03 0.  0.
         24    2    3    3    0    0  0.11144383170E+03 -0.26486873394E+02  0.26684475562E+03  0.30137557994E+03  0.80621551075E+02 0.  0.
         -6    2    1    2    0  502 -0.13832975848E+03 -0.56129512361E+02  0.68871755279E+03  0.72438574873E+03  0.16768184519E+03 0.  0.
        -24    2    5    5    0    0 -0.16174456275E+03 -0.45565394492E+02  0.65875213696E+03  0.68463817282E+03  0.80855061541E+02 0.  0.
          5    1    3    3  501    0  0.26885926788E+02  0.82616385755E+02  0.13236968294E+03  0.15840499744E+03  0.47000000000E+01 0. -1.
        -13    1    4    4    0    0  0.29105390500E+02 -0.40945583859E+02  0.59862293350E+02  0.78148312579E+02  0.00000000000E+00 0.  1.
         14    1    4    4    0    0  0.82338441196E+02  0.14458710465E+02  0.20698246227E+03  0.22322726736E+03  0.00000000000E+00 0. -1.
         -5    1    5    5    0  502  0.23414804266E+02 -0.10564117870E+02  0.29965415829E+02  0.39747575913E+02  0.47000000000E+01 0.  1.
         13    1    6    6    0    0 -0.41475271375E+02 -0.45484186246E+02  0.15610620892E+03  0.16780392664E+03  0.00000000000E+00 0. -1.
        -14    1    6    6    0    0 -0.12026929137E+03 -0.81208245758E-01  0.50264592804E+03  0.51683424618E+03  0.00000000000E+00 0.  1.
</event>
<event>
12    1  0.8417180E-002  0.1947270E+03  0.7818608E-02  0.1154366E+00
         21   -1    0    0  501  502  0.00000000000E+00  0.00000000000E+00  0.25766965221E+03  0.25766965221E+03  0.00000000000E+00 0.  1.
         21   -1    0    0  502  503 -0.00000000000E+00 -0.00000000000E+00 -0.17833641248E+03  0.17833641248E+03  0.00000000000E+00 0.  1.
         -6    2    1    2    0  503  0.49082771130E+01 -0.91358113160E+02 -0.52026018161E+02  0.20111488874E+03  0.17137705763E+03 0.  0.
        -24    2    3    3    0    0  0.24489059453E+02 -0.47188140202E+02 -0.96324589077E+02  0.13539695410E+03  0.78914346667E+02 0.  0.
          6    2    1    2  501    0 -0.49082771130E+01  0.91358113160E+02  0.13135925789E+03  0.23489117595E+03  0.17189593911E+03 0.  0.
         24    2    5    5    0    0  0.34932396475E+02  0.95264204672E+02  0.14326844312E+03  0.19286195379E+03  0.79839497797E+02 0.  0.
          5    1    5    5  501    0 -0.39840673588E+02 -0.39060915124E+01 -0.11909185233E+02  0.42029222165E+02  0.47000000000E+01 0. -1.
        -13    1    6    6    0    0  0.48231618673E+02  0.10134352249E+03  0.11310525822E+03  0.15934113727E+03  0.00000000000E+00 0.  1.
         14    1    6    6    0    0 -0.13299222198E+02 -0.60793178199E+01  0.30163184902E+02  0.33520816512E+02  0.00000000000E+00 0. -1.
         -5    1    3    3    0  503 -0.19580782340E+02 -0.44169972958E+02  0.44298570916E+02  0.65717934640E+02  0.47000000000E+01 0.  1.
         13    1    4    4    0    0  0.37524898899E+02  0.78729152005E+01 -0.34364670647E+02  0.51488167765E+02  0.00000000000E+00 0. -1.
        -14    1    4    4    0    0 -0.13035839447E+02 -0.55061055403E+02 -0.61959918431E+02  0.83908786334E+02  0.00000000000E+00 0.  1.
</event>
<event>
12    1  0.8417180E-002  0.1857543E+03  0.7818608E-02  0.1162464E+00
         21   -1    0    0  503  502  0.00000000000E+00  0.00000000000E+00  0.14417743300E+03  0.14417743300E+03  0.00000000000E+00 0. -1.
         21   -1    0    0  501  503 -0.00000000000E+00 -0.00000000000E+00 -0.30829578119E+03  0.30829578119E+03  0.00000000000E+00 0. -1.
          6    2    1    2  501    0  0.32254580234E+02 -0.58903427516E+02 -0.18948441984E+03  0.26499491747E+03  0.17264990358E+03 0.  0.
         24    2    3    3    0    0  0.71651747890E+02 -0.40991287510E+02 -0.35381703061E+02  0.10486147657E+03  0.54127679878E+02 0.  0.
         -6    2    1    2    0  502 -0.32254580234E+02  0.58903427516E+02  0.25366071651E+02  0.18747829672E+03  0.17318978731E+03 0.  0.
        -24    2    5    5    0    0 -0.29130292939E+02  0.37793301849E+02  0.84366709609E+02  0.12456117777E+03  0.78235782649E+02 0.  0.
          5    1    3    3  501    0 -0.39397167656E+02 -0.17912140007E+02 -0.15410271678E+03  0.16013344091E+03  0.47000000000E+01 0. -1.
        -13    1    4    4    0    0  0.28388208651E+02  0.85522350505E+01 -0.23922503399E+02  0.38096158384E+02  0.00000000000E+00 0.  1.
         14    1    4    4    0    0  0.43263539240E+02 -0.49543522560E+02 -0.11459199662E+02  0.66765318183E+02  0.00000000000E+00 0. -1.
         -5    1    5    5    0  502 -0.31242872953E+01  0.21110125667E+02 -0.59000637958E+02  0.62917118944E+02  0.47000000000E+01 0.  1.
         11    1    6    6    0    0  0.12615296190E+02 -0.93658424211E+01  0.50838762541E+02  0.53211319086E+02  0.00000000000E+00 0. -1.
        -12    1    6    6    0    0 -0.41745589129E+02  0.47159144270E+02  0.33527947068E+02  0.71349858687E+02  0.00000000000E+00 0.  1.
</event>
<event>
12    1  0.8417180E-002  0.3896865E+03  0.7818608E-02  0.1047527E+00
         21   -1    0    0  501  502  0.00000000000E+00  0.00000000000E+00  0.13095169906E+03  0.13095169906E+03  0.00000000000E+00 0. -1.
         21   -1    0    0  502  503 -0.00000000000E+00 -0.00000000000E+00 -0.12047122701E+04  0.12047122701E+04  0.00000000000E+00 0. -1.
         -6    2    1    2    0  503 -0.16132145231E+03 -0.30987744142E+03 -0.67234007135E+03  0.77710794993E+03  0.17264690738E+03 0.  0.
        -24    2    3    3    0    0 -0.17305479766E+03 -0.20248181387E+03 -0.43484376752E+03  0.51615186830E+03  0.79854874948E+02 0.  0.
          6    2    1    2  501    0  0.16132145231E+03  0.30987744142E+03 -0.40142049972E+03  0.55855601926E+03  0.16969905535E+03 0.  0.
         24    2    5    5    0    0  0.71565196517E+02  0.26363171170E+03 -0.32017141985E+03  0.42887041501E+03  0.82442937949E+02 0.  0.
          5    1    5    5  501    0  0.89756255790E+02  0.46245729722E+02 -0.81249079866E+02  0.12968560425E+03  0.47000000000E+01 0. -1.
        -13    1    6    6    0    0  0.12306683198E+02  0.75647879592E+02 -0.40395019587E+02  0.86636099552E+02  0.00000000000E+00 0.  1.
         14    1    6    6    0    0  0.59258513319E+02  0.18798383211E+03 -0.27977640026E+03  0.34223431546E+03  0.00000000000E+00 0. -1.
         -5    1    3    3    0  503  0.11733345352E+02 -0.10739562755E+03 -0.23749630383E+03  0.26095608163E+03  0.47000000000E+01 0.  1.
         13    1    4    4    0    0 -0.16643882625E+03 -0.15878643631E+03 -0.39253462646E+03  0.45497082128E+03  0.00000000000E+00 0. -1.
        -14    1    4    4    0    0 -0.66159714102E+01 -0.43695377555E+02 -0.42309141059E+02  0.61181047020E+02  0.00000000000E+00 0.  1.
</event>
<event>
12    1  0.8417180E-002  0.2018302E+03  0.7818608E-02  0.1148677E+00
         21   -1    0    0  501  502  0.00000000000E+00  0.00000000000E+00  0.11157570089E+04  0.11157570089E+04  0.00000000000E+00 0. -1.
         21   -1    0    0  502  503 -0.00000000000E+00 -0.00000000000E+00 -0.36103750247E+02  0.36103750247E+02  0.00000000000E+00 0.  1.
         -6    2    1    2    0  503 -0.93194534849E+02 -0.50348787627E+02  0.53958718213E+03  0.57609872432E+03  0.17179985829E+03 0.  0.
        -24    2    3    3    0    0 -0.10781108479E+03  0.14531145747E+02  0.37129360775E+03  0.39507975718E+03  0.79966787978E+02 0.  0.
          6    2    1    2  501    0  0.93194534849E+02  0.50348787627E+02  0.54006607656E+03  0.57576203486E+03  0.16914588968E+03 0.  0.
         24    2    5    5    0    0  0.10713868719E+03  0.70505047689E+01  0.48980997620E+03  0.50781392005E+03  0.80204468075E+02 0.  0.
          5    1    5    5  501    0 -0.13944152342E+02  0.43298282858E+02  0.50256100355E+02  0.67948114808E+02  0.47000000000E+01 0. -1.
        -13    1    6    6    0    0  0.14653624381E+02  0.93341696142E+01  0.11964065579E+02  0.21094887889E+02  0.00000000000E+00 0.  1.
         14    1    6    6    0    0  0.92485062809E+02 -0.22836648453E+01  0.47784591063E+03  0.48671903216E+03  0.00000000000E+00 0. -1.
         -5    1    3    3    0  503  0.14616549942E+02 -0.64879933374E+02  0.16829357438E+03  0.18101896714E+03  0.47000000000E+01 0.  1.
         11    1    4    4    0    0 -0.10414559206E+03  0.46098852401E+01  0.22034548538E+03  0.24376153986E+03  0.00000000000E+00 0. -1.
        -12    1    4    4    0    0 -0.36654927322E+01  0.99212605069E+01  0.15094812237E+03  0.15131821733E+03  0.00000000000E+00 0.  1.
</event>
<event>
12    1  0.8417180E-002  0.1956279E+03  0.7818608E-02  0.1154599E+00
         21   -1    0    0  503  502  0.00000000000E+00  0.00000000000E+00  0.22188904071E+03  0.22188904071E+03  0.00000000000E+00 0.  1.
         21   -1    0    0  501  503 -0.00000000000E+00 -0.00000000000E+00 -0.40683072775E+03  0.40683072775E+03  0.00000000000E+00 0. -1.
          6    2    1    2  501    0  0.62095278259E+01  0.77289563725E+02 -0.33381018874E+03  0.38691019535E+03  0.17960518440E+03 0.  0.
         24    2    3    3    0    0 -0.41184474316E+02  0.66190837139E+02 -0.31585291217E+03  0.33481483133E+03  0.79123456083E+02 0.  0.
         -6    2    1    2    0  502 -0.62095278259E+01 -0.77289563725E+02  0.14886850170E+03  0.24180957310E+03  0.17406264375E+03 0.  0.
        -24    2    5    5    0    0 -0.16118915713E+02 -0.12073116638E+03  0.12019814981E+03  0.18861701830E+03  0.79328118550E+02 0.  0.
          5    1    3    3  501    0  0.47394002142E+02  0.11098726586E+02 -0.17957276563E+02  0.52095364021E+02  0.47000000000E+01 0. -1.
        -11    1    4    4    0    0 -0.51725885595E+02  0.42452528437E+02 -0.12127848856E+03  0.13851446206E+03  0.00000000000E+00 0.  1.
         12    1    4    4    0    0  0.10541411278E+02  0.23738308702E+02 -0.19457442361E+03  0.19630036927E+03  0.00000000000E+00 0. -1.
         -5    1    5    5    0  502  0.99093878869E+01  0.43441602657E+02  0.28670351881E+02  0.53192554805E+02  0.47000000000E+01 0.  1.
         13    1    6    6    0    0 -0.48475597341E+02 -0.72372277439E+02  0.74816628538E+02  0.11482664319E+03  0.00000000000E+00 0. -1.
        -14    1    6    6    0    0  0.32356681629E+02 -0.48358888942E+02  0.45381521277E+02  0.73790375112E+02  0.00000000000E+00 0.  1.
</event>
<event>
12    1  0.8417180E-002  0.2035530E+03  0.7818608E-02  0.1146989E+00
         21   -1    0    0  503  502  0.00000000000E+00  0.00000000000E+00  0.69927052097E+02  0.69927052097E+02  0.00000000000E+00 0.  1.
         21   -1    0    0  501  503 -0.00000000000E+00 -0.00000000000E+00 -0.59067697396E+03  0.59067697396E+03  0.00000000000E+00 0.  1.
          6    2    1    2  501    0 -0.81404941829E+02 -0.72924676661E+02 -0.27564478203E+03  0.34265704532E+03  0.17172370781E+03 0.  0.
         24    2    3    3    0    0 -0.68178414849E+02  0.10675886357E+02 -0.92062665198E+02  0.14044804756E+03  0.80547184554E+02 0.  0.
         -6    2    1    2    0  502  0.81404941829E+02  0.72924676661E+02 -0.24510513984E+03  0.31794698074E+03  0.17049627553E+03 0.  0.
        -24    2    5    5    0    0  0.10696795316E+03  0.54202688852E+02 -0.11934869892E+03  0.18817505462E+03  0.82375146541E+02 0.  0.
          5    1    3    3  501    0 -0.13226526980E+02 -0.83600563018E+02 -0.18358211683E+03  0.20220899775E+03  0.47000000000E+01 0. -1.
        -11    1    4    4    0    0 -0.60574090471E+02 -0.22769561284E+02 -0.82478758335E+02  0.10483519893E+03  0.00000000000E+00 0.  1.
         12    1    4    4    0    0 -0.76043243776E+01  0.33445447641E+02 -0.95839068632E+01  0.35612848635E+02  0.00000000000E+00 0. -1.
         -5    1    5    5    0  502 -0.25563011332E+02  0.18721987808E+02 -0.12575644092E+03  0.12977192612E+03  0.47000000000E+01 0.  1.
         13    1    6    6    0    0  0.22429869902E+02 -0.22093798005E+02 -0.22704389499E+02  0.38816546428E+02  0.00000000000E+00 0. -1.
        -14    1    6    6    0    0  0.84538083258E+02  0.76296486857E+02 -0.96644309418E+02  0.14935850820E+03  0.00000000000E+00 0.  1.
</event>
<event>
12    1  0.8417180E-002  0.5154802E+03  0.7818608E-02  0.1009853E+00
         21   -1    0    0  501  502  0.00000000000E+00  0.00000000000E+00  0.24481379994E+04  0.24481379994E+04  0.00000000000E+00 0. -1.
         21   -1    0    0  502  503 -0.00000000000E+00 -0.00000000000E+00 -0.10848063982E+03  0.10848063982E+03  0.00000000000E+00 0.  1.
         -6    2    1    2    0  503  0.19931515347E+03 -0.44379798172E+03  0.12024253307E+04  0.13082608553E+04  0.17040132258E+03 0.  0.
        -24    2    3    3    0    0  0.86115354353E+02 -0.12816942514E+03  0.31215332338E+03  0.35692394485E+03  0.78177677861E+02 0.  0.
          6    2    1    2  501    0 -0.19931515347E+03  0.44379798172E+03  0.11372320289E+04  0.12483577839E+04  0.16857428652E+03 0.  0.
         24    2    5    5    0    0 -0.94695174419E+02  0.27047826861E+03  0.52513367977E+03  0.60363184059E+03  0.80500605541E+02 0.  0.
          5    1    5    5  501    0 -0.10461997905E+03  0.17331971311E+03  0.61209834910E+03  0.64472594328E+03  0.47000000000E+01 0. -1.
        -11    1    6    6    0    0  0.12052955944E+02  0.12909942047E+02  0.20179449243E+02  0.26816981977E+02  0.00000000000E+00 0.  1.
         12    1    6    6    0    0 -0.10674813036E+03  0.25756832657E+03  0.50495423053E+03  0.57681485861E+03  0.00000000000E+00 0. -1.
         -5    1    3    3    0  503  0.11319979912E+03 -0.31562855659E+03  0.89027200727E+03  0.95133691045E+03  0.47000000000E+01 0.  1.
         11    1    4    4    0    0  0.88314909363E+02 -0.10478450558E+03  0.30140049275E+03  0.33109148713E+03  0.00000000000E+00 0. -1.
        -12    1    4    4    0    0 -0.21995550096E+01 -0.23384919559E+02  0.10752830632E+02  0.25832457715E+02  0.00000000000E+00 0.  1.
</event>
<event>
12    1  0.8417180E-002  0.2069916E+03  0.7818608E-02  0.1144085E+00
         21   -1    0    0  501  502  0.00000000000E+00  0.00000000000E+00  0.10613060908E+03  0.10613060908E+03  0.00000000000E+00 0. -1.
         21   -1    0    0  502  503 -0.00000000000E+00 -0.00000000000E+00 -0.43118398997E+03  0.43118398997E+03  0.00000000000E+00 0. -1.
         -6    2    1    2    0  503 -0.75121237916E+02  0.85688941671E+02 -0.93563130100E+02  0.22715541263E+03  0.17279967321E+03 0.  0.
        -24    2    3    3    0    0 -0.16501164837E+02  0.61253645419E+02  0.14041088569E+02  0.10211879981E+03  0.78783244333E+02 0.  0.
          6    2    1    2  501    0  0.75121237916E+02 -0.85688941671E+02 -0.23149025079E+03  0.31015918643E+03  0.17211969556E+03 0.  0.
         24    2    5    5    0    0  0.83989815327E+02 -0.84643502483E+02 -0.25113394774E+03  0.28807504193E+03  0.75499393966E+02 0.  0.
          5    1    5    5  501    0 -0.88685774110E+01 -0.10454391879E+01  0.19643696941E+02  0.22084144491E+02  0.47000000000E+01 0. -1.
        -11    1    6    6    0    0  0.44305141282E+02 -0.13620417300E+02 -0.15678065002E+03  0.16348894009E+03  0.00000000000E+00 0.  1.
         12    1    6    6    0    0  0.39684674045E+02 -0.71023085183E+02 -0.94353297719E+02  0.12458610185E+03  0.00000000000E+00 0. -1.
         -5    1    3    3    0  503 -0.58620073080E+02  0.24435296252E+02 -0.10760421867E+03  0.12503661282E+03  0.47000000000E+01 0.  1.
         11    1    4    4    0    0 -0.43041863058E+02  0.47343300739E+02 -0.86029570853E+01  0.64560057086E+02  0.00000000000E+00 0. -1.
        -12    1    4    4    0    0  0.26540698221E+02  0.13910344680E+02  0.22644045654E+02  0.37558742721E+02  0.00000000000E+00 0.  1.
</event>
<event>
12    1  0.8417180E-002  0.1975021E+03  0.7818608E-02  0.1152711E+00
         21   -1    0    0  501  502  0.00000000000E+00  0.00000000000E+00  0.17630312697E+03  0.17630312697E+03  0.00000000000E+00 0.  1.
         21   -1    0    0  502  503 -0.00000000000E+00 -0.00000000000E+00 -0.22343171669E+03  0.22343171669E+03  0.00000000000E+00 0.  1.
         -6    2    1    2    0  503  0.88076973170E+02  0.38088370111E+02 -0.57521973920E+02  0.20195947010E+03  0.16813855281E+03 0.  0.
        -24    2    3    3    0    0  0.41299256004E+02  0.47586454454E+02  0.25268710890E+02  0.10627898139E+03  0.81771724579E+02 0.  0.
          6    2    1    2  501    0 -0.88076973170E+02 -0.38088370111E+02  0.10393384208E+02  0.19777537356E+03  0.17262328583E+03 0.  0.
         24    2    5    5    0    0 -0.12587939341E+03 -0.30054215184E+02  0.26563286645E+02  0.15561939692E+03  0.82236919718E+02 0.  0.
          5    1    5    5  501    0  0.37802420241E+02 -0.80341549265E+01 -0.16169902437E+02  0.42155976638E+02  0.47000000000E+01 0. -1.
        -11    1    6    6    0    0 -0.69780899137E+02 -0.57922902015E+02  0.14960534189E+02  0.91914384323E+02  0.00000000000E+00 0.  1.
         12    1    6    6    0    0 -0.56098494274E+02  0.27868686831E+02  0.11602752456E+02  0.63705012597E+02  0.00000000000E+00 0. -1.
         -5    1    3    3    0  503  0.46777717165E+02 -0.94980843429E+01 -0.82790684811E+02  0.95680488715E+02  0.47000000000E+01 0.  1.
         13    1    4    4    0    0 -0.76509123328E+01  0.10007132989E+02  0.40752134640E+02  0.42654608753E+02  0.00000000000E+00 0. -1.
        -14    1    4    4    0    0  0.48950168337E+02  0.37579321465E+02 -0.15483423750E+02  0.63624372634E+02  0.00000000000E+00 0.  1.
</event>
<event>
12    1  0.8417180E-002  0.2171539E+03  0.7818608E-02  0.1136063E+00
         21   -1    0    0  503  502  0.00000000000E+00  0.00000000000E+00  0.16672648532E+03  0.16672648532E+03  0.00000000000E+00 0. -1.
         21   -1    0    0  501  503 -0.00000000000E+00 -0.00000000000E+00 -0.28588175004E+03  0.28588175004E+03  0.00000000000E+00 0. -1.
          6    2    1    2  501    0 -0.67289348911E+02 -0.11415072823E+03 -0.35199732188E+02  0.21998823018E+03  0.17203939967E+03 0.  0.
         24    2    3    3    0    0 -0.14472033293E+02 -0.11205898119E+03  0.25066847210E+02  0.13968757746E+03  0.78215199644E+02 0.  0.
         -6    2    1    2    0  502  0.67289348911E+02  0.11415072823E+03 -0.83955532532E+02  0.23262000518E+03  0.17177103986E+03 0.  0.
        -24    2    5    5    0    0  0.15141336909E+02 -0.29948600958E+00 -0.67676331886E+02  0.10571307444E+03  0.79786079204E+02 0.  0.
          5    1    3    3  501    0 -0.52817315618E+02 -0.20917470380E+01 -0.60266579397E+02  0.80300652718E+02  0.47000000000E+01 0. -1.
        -11    1    4    4    0    0 -0.16578303007E+02 -0.12099512937E+02 -0.21210960278E+02  0.29515134758E+02  0.00000000000E+00 0.  1.
         12    1    4    4    0    0  0.21062697131E+01 -0.99959468255E+02  0.46277807487E+02  0.11017244271E+03  0.00000000000E+00 0. -1.
         -5    1    5    5    0  502  0.52148012002E+02  0.11445021424E+03 -0.16279200646E+02  0.12690693074E+03  0.47000000000E+01 0.  1.
         13    1    6    6    0    0 -0.24935692706E+02  0.18398590856E+02 -0.48399621979E+02  0.57470168992E+02  0.00000000000E+00 0. -1.
        -14    1    6    6    0    0  0.40077029615E+02 -0.18698076866E+02 -0.19276709907E+02  0.48242905448E+02  0.00000000000E+00 0.  1.
</event>
<event>
12    1  0.8417180E-002  0.1768305E+03  0.7818608E-02  0.1171789E+00
         21   -1    0    0  503  502  0.00000000000E+00  0.00000000000E+00  0.48434657096E+03  0.48434657096E+03  0.00000000000E+00 0.  1.
         21   -1    0    0  501  503 -0.00000000000E+00 -0.00000000000E+00 -0.66265394681E+02  0.66265394681E+02  0.00000000000E+00 0.  1.
          6    2    1    2  501    0  0.23188033715E+02 -0.28751323854E+02  0.14857121843E+03  0.22826953132E+03  0.16931995881E+03 0.  0.
         24    2    3    3    0    0 -0.27064179332E+02  0.14966206897E+02  0.12997474473E+03  0.15895556271E+03  0.86121887433E+02 0.  0.
         -6    2    1    2    0  502 -0.23188033715E+02  0.28751323854E+02  0.26950995785E+03  0.32234243432E+03  0.17292976624E+03 0.  0.
        -24    2    5    5    0    0 -0.16798764163E+02  0.65312860630E+02  0.88057859465E+02  0.13707364919E+03  0.80542103565E+02 0.  0.
          5    1    3    3  501    0  0.50252213047E+02 -0.43717530750E+02  0.18596473694E+02  0.69313968613E+02  0.47000000000E+01 0. -1.
        -13    1    4    4    0    0 -0.77965479270E+01  0.44736839394E+02  0.34266897626E+02  0.56889289250E+02  0.00000000000E+00 0.  1.
         14    1    4    4    0    0 -0.19267631405E+02 -0.29770632497E+02  0.95707847108E+02  0.10206627346E+03  0.00000000000E+00 0. -1.
         -5    1    5    5    0  502 -0.63892695523E+01 -0.36561536776E+02  0.18145209838E+03  0.18526878513E+03  0.47000000000E+01 0.  1.
         11    1    6    6    0    0 -0.44634158214E+02  0.14252251362E+02  0.37454873299E+02  0.59985017148E+02  0.00000000000E+00 0. -1.
        -12    1    6    6    0    0  0.27835394051E+02  0.51060609267E+02  0.50602986166E+02  0.77088632039E+02  0.00000000000E+00 0.  1.
</event>
<event>
12    1  0.8417180E-002  0.2173346E+03  0.7818608E-02  0.1135999E+00
         21   -1    0    0  501  502  0.00000000000E+00  0.00000000000E+00  0.73320832556E+03  0.73320832556E+03  0.00000000000E+00 0.  1.
         21   -1    0    0  502  503 -0.00000000000E+00 -0.00000000000E+00 -0.12355544885E+03  0.12355544885E+03  0.00000000000E+00 0. -1.
         -6    2    1    2    0  503 -0.12897344548E+03  0.33625385098E+02  0.78050539617E+01  0.21687697220E+03  0.17090899930E+03 0.  0.
        -24    2    3    3    0    0 -0.93873006814E+02 -0.36619341974E+02 -0.26753448692E+02  0.13095408479E+03  0.79247130491E+02 0.  0.
          6    2    1    2  501    0  0.12897344548E+03 -0.33625385098E+02  0.60184782275E+03  0.63988680221E+03  0.17166683355E+03 0.  0.
         24    2    5    5    0    0  0.96956448516E+02  0.44087002232E+02  0.38047223955E+03  0.40304604965E+03  0.79641549433E+02 0.  0.
          5    1    5    5  501    0  0.32016996962E+02 -0.77712387329E+02  0.22137558320E+03  0.23684075257E+03  0.47000000000E+01 0. -1.
        -13    1    6    6    0    0  0.38834407483E+02  0.81289435540E+00  0.25670074737E+03  0.25962289133E+03  0.00000000000E+00 0.  1.
         14    1    6    6    0    0  0.58122041033E+02  0.43274107876E+02  0.12377149218E+03  0.14342315832E+03  0.00000000000E+00 0. -1.
         -5    1    3    3    0  503 -0.35100438664E+02  0.70244727071E+02  0.34558502654E+02  0.85922887413E+02  0.47000000000E+01 0.  1.
         11    1    4    4    0    0 -0.13318108147E+02 -0.43334978502E+02 -0.20862770508E+02  0.49905386078E+02  0.00000000000E+00 0. -1.
        -12    1    4    4    0    0 -0.80554898667E+02  0.67156365280E+01 -0.58906781839E+01  0.81048698711E+02  0.00000000000E+00 0.  1.
</event>
<event>
12    1  0.8417180E-002  0.2164410E+03  0.7818608E-02  0.1136578E+00
         21   -1    0    0  501  502  0.00000000000E+00  0.00000000000E+00  0.25482650565E+03  0.25482650565E+03  0.00000000000E+00 0. -1.
         21   -1    0    0  502  503 -0.00000000000E+00 -0.00000000000E+00 -0.20302250893E+03  0.20302250893E+03  0.00000000000E+00 0. -1.
         -6    2    1    2    0  503 -0.51311318371E+02  0.12179200999E+03 -0.44580787513E+02  0.22091707085E+03  0.17132063649E+03 0.  0.
        -24    2    3    3    0    0 -0.80356922900E+02  0.12812735162E+03 -0.92388320035E+01  0.17449587401E+03  0.86542479404E+02 0.  0.
          6    2    1    2  501    0  0.51311318371E+02 -0.12179200999E+03  0.96384784239E+02  0.23693194374E+03  0.17140762597E+03 0.  0.
         24    2    5    5    0    0  0.73464000008E+02 -0.11811678971E+03  0.23380281713E+02  0.16040746441E+03  0.76389670483E+02 0.  0.
          5    1    5    5  501    0 -0.22152681637E+02 -0.36752202779E+01  0.73004502526E+02  0.76524479331E+02  0.47000000000E+01 0. -1.
        -11    1    6    6    0    0  0.44356120012E+02 -0.21311055291E+02 -0.16258619003E+02  0.51826336472E+02  0.00000000000E+00 0.  1.
         12    1    6    6    0    0  0.29107879996E+02 -0.96805734418E+02  0.39638900716E+02  0.10858112794E+03  0.00000000000E+00 0. -1.
         -5    1    3    3    0  503  0.29045604528E+02 -0.63353416285E+01 -0.35341955510E+02  0.46421196831E+02  0.47000000000E+01 0.  1.
         11    1    4    4    0    0 -0.14533743425E+02  0.38258542334E+02 -0.41738677107E+02  0.58455649224E+02  0.00000000000E+00 0. -1.
        -12    1    4    4    0    0 -0.65823179475E+02  0.89868809281E+02  0.32499845104E+02  0.11604022479E+03  0.00000000000E+00 0.  1.
</event>
<event>
12    1  0.8417180E-002  0.1767039E+03  0.7818608E-02  0.1171496E+00
         21   -1    0    0  501  502  0.00000000000E+00  0.00000000000E+00  0.40158960815E+03  0.40158960815E+03  0.00000000000E+00 0. -1.
         21   -1    0    0  502  503 -0.00000000000E+00 -0.00000000000E+00 -0.88337817950E+02  0.88337817950E+02  0.00000000000E+00 0. -1.
         -6    2    1    2    0  503 -0.20413921959E+02 -0.36047675504E+02  0.24391786789E+03  0.30010785736E+03  0.16986063892E+03 0.  0.
        -24    2    3    3    0    0 -0.39447391486E+02 -0.55010262492E+02  0.74549319590E+02  0.12855714235E+03  0.79919410178E+02 0.  0.
          6    2    1    2  501    0  0.20413921959E+02  0.36047675504E+02  0.69333922312E+02  0.18981956874E+03  0.17177925595E+03 0.  0.
         24    2    5    5    0    0 -0.18431830528E+02  0.79475772680E+02  0.28135163629E+02  0.11830439673E+03  0.80921023436E+02 0.  0.
          5    1    5    5  501    0  0.38845752488E+02 -0.43428097176E+02  0.41198758684E+02  0.71515172011E+02  0.47000000000E+01 0. -1.
        -11    1    6    6    0    0  0.23128358831E+02  0.28275750709E+02  0.36729077627E+02  0.51802164083E+02  0.00000000000E+00 0.  1.
         12    1    6    6    0    0 -0.41560189360E+02  0.51200021970E+02 -0.85939139980E+01  0.66502232648E+02  0.00000000000E+00 0. -1.
         -5    1    3    3    0  503  0.19033469527E+02  0.18962586988E+02  0.16936854830E+03  0.17155071501E+03  0.47000000000E+01 0.  1.
         13    1    4    4    0    0  0.86783532976E+01 -0.33471803845E+01  0.54320054786E+02  0.55110668517E+02  0.00000000000E+00 0. -1.
        -14    1    4    4    0    0 -0.48125744784E+02 -0.51663082107E+02  0.20229264804E+02  0.73446473832E+02  0.00000000000E+00 0.  1.
</event>
<event>
12    1  0.8417180E-002  0.2222361E+03  0.7818608E-02  0.1132234E+00
         21   -1    0    0  501  502  0.00000000000E+00  0.00000000000E+00  0.23011395023E+03  0.23011395023E+03  0.00000000000E+00 0.  1.
         21   -1    0    0  502  503 -0.00000000000E+00 -0.00000000000E+00 -0.24921544145E+03  0.24921544145E+03  0.00000000000E+00 0.  1.
         -6    2    1    2    0  503  0.13251917794E+03 -0.46881204146E+02 -0.98885206934E+02  0.24320582651E+03  0.17208024313E+03 0.  0.
        -24    2    3    3    0    0  0.19802817378E+02 -0.22838944027E+02  0.95816458924E+01  0.84870245002E+02  0.78723450180E+02 0.  0.
          6    2    1    2  501    0 -0.13251917794E+03  0.46881204146E+02  0.79783715714E+02  0.23612356518E+03  0.17213284670E+03 0.  0.
         24    2    5    5    0    0 -0.89651402041E+02 -0.11390150534E+01  0.10619044775E+03  0.16638840074E+03  0.91487799539E+02 0.  0.
          5    1    5    5  501    0 -0.42867775900E+02  0.48020219199E+02 -0.26406732032E+02  0.69735164438E+02  0.47000000000E+01 0. -1.
        -13    1    6    6    0    0 -0.35560668165E+02  0.22422332471E+02 -0.31376416564E+01  0.42156457500E+02  0.00000000000E+00 0.  1.
         14    1    6    6    0    0 -0.54090733876E+02 -0.23561347524E+02  0.10932808940E+03  0.12423194324E+03  0.00000000000E+00 0. -1.
         -5    1    3    3    0  503  0.11271636056E+03 -0.24042260118E+02 -0.10846685283E+03  0.15833558151E+03  0.47000000000E+01 0.  1.
         11    1    4    4    0    0 -0.12931958882E+02 -0.85149813240E+01 -0.28633997832E+02  0.32552208823E+02  0.00000000000E+00 0. -1.
        -12    1    4    4    0    0  0.32734776260E+02 -0.14323962703E+02  0.38215643724E+02  0.52318036178E+02  0.00000000000E+00 0.  1.
</event>
<event>
12    1  0.8417180E-002  0.2058400E+03  0.7818608E-02  0.1145481E+00
         21   -1    0    0  503  502  0.00000000000E+00  0.00000000000E+00  0.15706049409E+03  0.15706049409E+03  0.00000000000E+00 0. -1.
         21   -1    0    0  501  503 -0.00000000000E+00 -0.00000000000E+00 -0.88379829605E+03  0.88379829605E+03  0.00000000000E+00 0. -1.
          6    2    1    2  501    0  0.90235005673E+02 -0.56362304284E+02 -0.79770053105E+03  0.82312998893E+03  0.17290973321E+03 0.  0.
         24    2    3    3    0    0 -0.13543476631E+02 -0.52198925687E+02 -0.45696580938E+03  0.46688632560E+03  0.79100799519E+02 0.  0.
         -6    2    1    2    0  502 -0.90235005673E+02  0.56362304284E+02  0.70962729100E+02  0.21772880121E+03  0.17621309929E+03 0.  0.
        -24    2    5    5    0    0 -0.30035292637E+02 -0.33380339336E+02  0.10520621284E+02  0.93821231100E+02  0.81702962461E+02 0.  0.
          5    1    3    3  501    0  0.10377848230E+03 -0.41633785975E+01 -0.34073472167E+03  0.35624366333E+03  0.47000000000E+01 0. -1.
        -11    1    4    4    0    0  0.25683395981E+02 -0.33732648601E+02 -0.12265536699E+03  0.12977622072E+03  0.00000000000E+00 0.  1.
         12    1    4    4    0    0 -0.39226872613E+02 -0.18466277086E+02 -0.33431044239E+03  0.33711010489E+03  0.00000000000E+00 0. -1.
         -5    1    5    5    0  502 -0.60199713035E+02  0.89742643620E+02  0.60442107816E+02  0.12390757011E+03  0.47000000000E+01 0.  1.
         11    1    6    6    0    0 -0.58336977004E+02 -0.22829792477E+02  0.11050809180E+02  0.63612284144E+02  0.00000000000E+00 0. -1.
        -12    1    6    6    0    0  0.28301684366E+02 -0.10550546859E+02 -0.53018789600E+00  0.30208946956E+02  0.00000000000E+00 0.  1.
</event>
<event>
12    1  0.8417180E-002  0.1740558E+03  0.7818608E-02  0.1173901E+00
         21   -1    0    0  501  502  0.00000000000E+00  0.00000000000E+00  0.97727256747E+03  0.97727256747E+03  0.00000000000E+00 0. -1.
         21   -1    0    0  502  503 -0.00000000000E+00 -0.00000000000E+00 -0.53072683706E+03  0.53072683706E+03  0.00000000000E+00 0. -1.
         -6    2    1    2    0  503  0.18745261813E+02  0.13138428687E+02 -0.50845456850E+03  0.53742112699E+03  0.17254395486E+03 0.  0.
        -24    2    3    3    0    0 -0.54744367297E+02  0.74357933561E+01 -0.32216399027E+03  0.33702273585E+03  0.82112429489E+02 0.  0.
          6    2    1    2  501    0 -0.18745261813E+02 -0.13138428687E+02  0.95500029891E+03  0.97057827754E+03  0.17167591202E+03 0.  0.
         24    2    5    5    0    0 -0.10398858789E+02  0.43639576306E+02  0.80023168947E+03  0.80544555285E+03  0.79744798563E+02 0.  0.
          5    1    5    5  501    0 -0.83464030248E+01 -0.56778004992E+02  0.15476860945E+03  0.16513272469E+03  0.47000000000E+01 0. -1.
        -11    1    6    6    0    0  0.29684647739E+02 -0.36954179362E+00  0.18836332491E+03  0.19068837680E+03  0.00000000000E+00 0.  1.
         12    1    6    6    0    0 -0.40083506528E+02  0.44009118099E+02  0.61186836455E+03  0.61475717606E+03  0.00000000000E+00 0. -1.
         -5    1    3    3    0  503  0.73489629111E+02  0.57026353305E+01 -0.18629057823E+03  0.20039839114E+03  0.47000000000E+01 0.  1.
         11    1    4    4    0    0 -0.47037680155E+02  0.17150929783E+02 -0.78911642378E+02  0.93454507915E+02  0.00000000000E+00 0. -1.
        -12    1    4    4    0    0 -0.77066871427E+01 -0.97151364270E+01 -0.24325234789E+03  0.24356822793E+03  0.00000000000E+00 0.  1.
</event>
<event>
12    1  0.8417180E-002  0.2583620E+03  0.7818608E-02  0.1108458E+00
         21   -1    0    0  501  502  0.00000000000E+00  0.00000000000E+00  0.27862878472E+03  0.27862878472E+03  0.00000000000E+00 0. -1.
         21   -1    0    0  502  503 -0.00000000000E+00 -0.00000000000E+00 -0.59927304624E+03  0.59927304624E+03  0.00000000000E+00 0.  1.
         -6    2    1    2    0  503  0.12524837532E+03  0.14391787614E+03 -0.50159968747E+03  0.56422793787E+03  0.17421655723E+03 0.  0.
        -24    2    3    3    0    0  0.69894248315E+02  0.75788476033E+02 -0.13538826229E+03  0.18761329070E+03  0.78991557986E+02 0.  0.
          6    2    1    2  501    0 -0.12524837532E+03 -0.14391787614E+03  0.18095542596E+03  0.31367389308E+03  0.17101735124E+03 0.  0.
         24    2    5    5    0    0 -0.10538300713E+03 -0.13157016413E+03  0.68718516718E+02  0.19892933922E+03  0.80214469904E+02 0.  0.
          5    1    5    5  501    0 -0.19865368189E+02 -0.12347712010E+02  0.11223690924E+03  0.11474455386E+03  0.47000000000E+01 0. -1.
        -13    1    6    6    0    0 -0.22941129053E+02 -0.47168392906E+02 -0.14654364191E+02  0.54460105411E+02  0.00000000000E+00 0.  1.
         14    1    6    6    0    0 -0.82441878075E+02 -0.84401771227E+02  0.83372880909E+02  0.14446923381E+03  0.00000000000E+00 0. -1.
         -5    1    3    3    0  503  0.55354127002E+02  0.68129400110E+02 -0.36621142518E+03  0.37661464718E+03  0.47000000000E+01 0.  1.
         13    1    4    4    0    0 -0.99388353819E+01  0.25490594759E+02 -0.63011108506E+02  0.68694618895E+02  0.00000000000E+00 0. -1.
        -14    1    4    4    0    0  0.79833083697E+02  0.50297881274E+02 -0.72377153782E+02  0.11891867180E+03  0.00000000000E+00 0.  1.
</event>
<event>
12    1  0.8417180E-002  0.1833674E+03  0.7818608E-02  0.1165083E+00
         21   -1    0    0  503  502  0.00000000000E+00  0.00000000000E+00  0.35982769914E+02  0.35982769914E+02  0.00000000000E+00 0. -1.
         21   -1    0    0  501  503 -0.00000000000E+00 -0.00000000000E+00 -0.11338655523E+04  0.11338655523E+04  0.00000000000E+00 0.  1.
          6    2    1    2  501    0  0.61641471994E+02 -0.12690185289E+02 -0.80331917084E+03  0.82398136739E+03  0.17222918363E+03 0.  0.
         24    2    3    3    0    0  0.63960435337E+02 -0.74920062951E+02 -0.54149943598E+03  0.55481673594E+03  0.69971552669E+02 0.  0.
         -6    2    1    2    0  502 -0.61641471994E+02  0.12690185289E+02 -0.29456361156E+03  0.34586695484E+03  0.16998681514E+03 0.  0.
        -24    2    5    5    0    0 -0.43827436225E+02  0.69965126340E+02 -0.15045736871E+03  0.18970531431E+03  0.80837636101E+02 0.  0.
          5    1    3    3  501    0 -0.23189633431E+01  0.62229877662E+02 -0.26181973486E+03  0.26916463146E+03  0.47000000000E+01 0. -1.
        -13    1    4    4    0    0  0.67924953498E+02 -0.31270257331E+02 -0.39002779091E+03  0.39713134601E+03  0.00000000000E+00 0.  1.
         14    1    4    4    0    0 -0.39645181612E+01 -0.43649805620E+02 -0.15147164507E+03  0.15768538992E+03  0.00000000000E+00 0. -1.
         -5    1    5    5    0  502 -0.17814035769E+02 -0.57274941051E+02 -0.14410624286E+03  0.15616164053E+03  0.47000000000E+01 0.  1.
         11    1    6    6    0    0  0.19215517156E+02  0.38809878167E+02 -0.41199608500E+02  0.59773325852E+02  0.00000000000E+00 0. -1.
        -12    1    6    6    0    0 -0.63042953382E+02  0.31155248173E+02 -0.10925776021E+03  0.12993198846E+03  0.00000000000E+00 0.  1.
</event>
<event>
12    1  0.8417180E-002  0.1860042E+03  0.7818608E-02  0.1162137E+00
         21   -1    0    0  503  502  0.00000000000E+00  0.00000000000E+00  0.43607101718E+03  0.43607101718E+03  0.00000000000E+00 0. -1.
         21   -1    0    0  501  503 -0.00000000000E+00 -0.00000000000E+00 -0.16394968540E+03  0.16394968540E+03  0.00000000000E+00 0. -1.
          6    2    1    2  501    0 -0.49902141524E+02  0.48556933969E+02 -0.79495275450E+02  0.20227964409E+03  0.17248059609E+03 0.  0.
         24    2    3    3    0    0 -0.47710591078E+02 -0.36455787958E+01  0.13196378241E+02  0.95772658889E+02  0.81906453020E+02 0.  0.
         -6    2    1    2    0  502  0.49902141524E+02 -0.48556933969E+02  0.35161660724E+03  0.39774105849E+03  0.17238245723E+03 0.  0.
        -24    2    5    5    0    0  0.52049007086E+02  0.13712394108E+02  0.30830851786E+03  0.32171633320E+03  0.74499181000E+02 0.  0.
          5    1    3    3  501    0 -0.21915504465E+01  0.52202512764E+02 -0.92691653691E+02  0.10650698520E+03  0.47000000000E+01 0. -1.
        -13    1    4    4    0    0  0.21349785000E+02  0.11151855945E+02  0.10644841482E+01  0.24110378203E+02  0.00000000000E+00 0.  1.
         14    1    4    4    0    0 -0.69060376078E+02 -0.14797434741E+02  0.12131894092E+02  0.71662280686E+02  0.00000000000E+00 0. -1.
         -5    1    5    5    0  502 -0.21468655617E+01 -0.62269328076E+02  0.43308089379E+02  0.76024725297E+02  0.47000000000E+01 0.  1.
         11    1    6    6    0    0  0.15580832755E+02 -0.30127959878E+02  0.13830816699E+03  0.14240647939E+03  0.00000000000E+00 0. -1.
        -12    1    6    6    0    0  0.36468174331E+02  0.43840353986E+02  0.17000035086E+03  0.17930985380E+03  0.00000000000E+00 0.  1.
</event>
<event>
12    1  0.8417180E-002  0.2054387E+03  0.7818608E-02  0.1145242E+00
         21   -1    0    0  503  502  0.00000000000E+00  0.00000000000E+00  0.32560624505E+02  0.32560624505E+02  0.00000000000E+00 0. -1.
         21   -1    0    0  501  503 -0.00000000000E+00 -0.00000000000E+00 -0.23808143672E+04  0.23808143672E+04  0.00000000000E+00 0. -1.
          6    2    1    2  501    0 -0.96677190146E+01  0.10973855158E+03 -0.35943395990E+03  0.41397278325E+03  0.17333401065E+03 0.  0.
         24    2    3    3    0    0  0.54620429496E+02  0.72859670641E+02 -0.16731693446E+03  0.20800176741E+03  0.83533560724E+02 0.  0.
         -6    2    1    2    0  502  0.96677190146E+01 -0.10973855158E+03 -0.19888197827E+04  0.19994022084E+04  0.17340429133E+03 0.  0.
        -24    2    5    5    0    0 -0.14777214508E+01 -0.14151194735E+03 -0.18250881431E+04  0.18321780793E+04  0.76824276232E+02 0.  0.
          5    1    3    3  501    0 -0.64288148511E+02  0.36878880940E+02 -0.19211702545E+03  0.20597101584E+03  0.47000000000E+01 0. -1.
        -13    1    4    4    0    0  0.28794101418E+02  0.46748502819E+02 -0.23766523553E+02  0.59827839958E+02  0.00000000000E+00 0.  1.
         14    1    4    4    0    0  0.25826328079E+02  0.26111167822E+02 -0.14355041090E+03  0.14817392746E+03  0.00000000000E+00 0. -1.
         -5    1    5    5    0  502  0.11145440465E+02  0.31773395772E+02 -0.16373163966E+03  0.16722412909E+03  0.47000000000E+01 0.  1.
         11    1    6    6    0    0  0.29676046851E+02 -0.66634585673E+02 -0.60181641703E+03  0.60622094617E+03  0.00000000000E+00 0. -1.
        -12    1    6    6    0    0 -0.31153768302E+02 -0.74877361681E+02 -0.12232717261E+04  0.12259571332E+04  0.00000000000E+00 0.  1.
</event>
<event>
12    1  0.8417180E-002  0.2888936E+03  0.7818608E-02  0.1090946E+00
         21   -1    0    0  503  502  0.00000000000E+00  0.00000000000E+00  0.93876449741E+02  0.93876449741E+02  0.00000000000E+00 0.  1.
         21   -1    0    0  501  503 -0.00000000000E+00 -0.00000000000E+00 -0.10828941061E+04  0.10828941061E+04  0.00000000000E+00 0.  1.
          6    2    1    2  501    0 -0.69623857032E+02  0.22182774282E+03 -0.74383020136E+03  0.79796170433E+03  0.17147735761E+03 0.  0.
         24    2    3    3    0    0  0.26502275572E+02  0.12031439956E+03 -0.35711108359E+03  0.38672094969E+03  0.82745643727E+02 0.  0.
         -6    2    1    2    0  502  0.69623857032E+02 -0.22182774282E+03 -0.24518745505E+03  0.37880885156E+03  0.17124318659E+03 0.  0.
        -24    2    5    5    0    0  0.27319289602E+02 -0.30041522294E+02 -0.96857038616E+02  0.13264704857E+03  0.81025409101E+02 0.  0.
          5    1    3    3  501    0 -0.96126132605E+02  0.10151334326E+03 -0.38671911776E+03  0.41124075464E+03  0.47000000000E+01 0. -1.
        -11    1    4    4    0    0 -0.34830998566E+01  0.11061796247E+03 -0.31665949989E+03  0.33544255019E+03  0.00000000000E+00 0.  1.
         12    1    4    4    0    0  0.29985375429E+02  0.96964370879E+01 -0.40451583699E+02  0.51278399503E+02  0.00000000000E+00 0. -1.
         -5    1    5    5    0  502  0.42304567430E+02 -0.19178622053E+03 -0.14833041643E+03  0.24616180298E+03  0.47000000000E+01 0.  1.
         13    1    6    6    0    0  0.32964397711E+02 -0.18658667405E+02 -0.30696230612E+01  0.38002894252E+02  0.00000000000E+00 0. -1.
        -14    1    6    6    0    0 -0.56451081085E+01 -0.11382854888E+02 -0.93787415555E+02  0.94644154322E+02  0.00000000000E+00 0.  1.
</event>
<event>
12    1  0.8417180E-002  0.2965370E+03  0.7818608E-02  0.1087036E+00
         21   -1    0    0  503  502  0.00000000000E+00  0.00000000000E+00  0.22606822604E+03  0.22606822604E+03  0.00000000000E+00 0. -1.
         21   -1    0    0  501  503 -0.00000000000E+00 -0.00000000000E+00 -0.46199825609E+03  0.46199825609E+03  0.00000000000E+00 0.  1.
          6    2    1    2  501    0 -0.58633630754E+02 -0.23317302133E+03 -0.25530328574E+03  0.39129781596E+03  0.17357031005E+03 0.  0.
         24    2    3    3    0    0 -0.76863720032E+02 -0.88948549156E+02 -0.17427552374E+03  0.22480270269E+03  0.79651874470E+02 0.  0.
         -6    2    1    2    0  502  0.58633630754E+02  0.23317302133E+03  0.19373255693E+02  0.29676866616E+03  0.17288365351E+03 0.  0.
        -24    2    5    5    0    0 -0.26615869345E+02  0.13855262303E+03  0.43263809119E+02  0.16710238071E+03  0.78397797219E+02 0.  0.
          5    1    3    3  501    0  0.18230089279E+02 -0.14422447217E+03 -0.81027762006E+02  0.16649511327E+03  0.47000000000E+01 0. -1.
        -13    1    4    4    0    0 -0.29637288771E+02 -0.77562084313E+02 -0.14767478076E+03  0.16941690199E+03  0.00000000000E+00 0.  1.
         14    1    4    4    0    0 -0.47226431262E+02 -0.11386464844E+02 -0.26600742977E+02  0.55385800692E+02  0.00000000000E+00 0. -1.
         -5    1    5    5    0  502  0.85249500099E+02  0.94620398298E+02 -0.23890553426E+02  0.12966628546E+03  0.47000000000E+01 0.  1.
         11    1    6    6    0    0 -0.87192515486E+01  0.12628446909E+02  0.36658947010E+02  0.39741431967E+02  0.00000000000E+00 0. -1.
        -12    1    6    6    0    0 -0.17896617797E+02  0.12592417612E+03  0.66048621089E+01  0.12736094874E+03  0.00000000000E+00 0.  1.
</event>
<event>
12    1  0.8417180E-002  0.2549508E+03  0.7818608E-02  0.1110333E+00
         21   -1    0    0  501  502  0.00000000000E+00  0.00000000000E+00  0.22548579935E+03  0.22548579935E+03  0.00000000000E+00 0.  1.
         21   -1    0    0  502  503 -0.00000000000E+00 -0.00000000000E+00 -0.12303434595E+04  0.12303434595E+04  0.00000000000E+00 0.  1.
         -6    2    1    2    0  503  0.17776209200E+03 -0.58685919100E+02 -0.11398536270E+04  0.11680180563E+04  0.17307943425E+03 0.  0.
        -24    2    3    3    0    0  0.13176261833E+03  0.27322433163E+02 -0.72006437020E+03  0.73702095851E+03  0.81236033299E+02 0.  0.
          6    2    1    2  501    0 -0.17776209200E+03  0.58685919100E+02  0.13499596684E+03  0.28781120250E+03  0.17195342036E+03 0.  0.
         24    2    5    5    0    0 -0.50629142853E+02  0.47092240962E+02  0.12025024872E+03  0.15921599912E+03  0.78157679051E+02 0.  0.
          5    1    5    5  501    0 -0.12713294914E+03  0.11593678137E+02  0.14745718120E+02  0.12859520338E+03  0.47000000000E+01 0. -1.
        -11    1    6    6    0    0 -0.15714281667E+01 -0.13427191832E+02  0.57827943202E+02  0.59387118822E+02  0.00000000000E+00 0.  1.
         12    1    6    6    0    0 -0.49057714686E+02  0.60519432794E+02  0.62422305513E+02  0.99828880298E+02  0.00000000000E+00 0. -1.
         -5    1    3    3    0  503  0.45999473668E+02 -0.86008352263E+02 -0.41978925675E+03  0.43099709781E+03  0.47000000000E+01 0.  1.
         13    1    4    4    0    0  0.94090955031E+02  0.24279300124E+02 -0.30192669136E+03  0.31717868653E+03  0.00000000000E+00 0. -1.
        -14    1    4    4    0    0  0.37671663297E+02  0.30431330388E+01 -0.41813767884E+03  0.41984227198E+03  0.00000000000E+00 0.  1.
</event>
<event>
12    1  0.8417180E-002  0.1886853E+03  0.7818608E-02  0.1159711E+00
         21   -1    0    0  503  502  0.00000000000E+00  0.00000000000E+00  0.40896883314E+03  0.40896883314E+03  0.00000000000E+00 0.  1.
         21   -1    0    0  501  503 -0.00000000000E+00 -0.00000000000E+00 -0.92448575824E+02  0.92448575824E+02  0.00000000000E+00 0.  1.
          6    2    1    2  501    0  0.73515864582E+02 -0.13110379617E+02  0.96931126769E+02  0.21189792791E+03  0.17299891363E+03 0.  0.
         24    2    3    3    0    0  0.15496490336E+02  0.43162820014E+02  0.60823921496E+01  0.90207733700E+02  0.77442039492E+02 0.  0.
         -6    2    1    2    0  502 -0.73515864582E+02  0.13110379617E+02  0.21958913055E+03  0.28951948105E+03  0.17327919453E+03 0.  0.
        -24    2    5    5    0    0  0.89704804486E+01  0.10689799526E+02  0.38039024008E+02  0.90039187519E+02  0.80407379066E+02 0.  0.
          5    1    3    3  501    0  0.58019374246E+02 -0.56273199631E+02  0.90848734619E+02  0.12169019421E+03  0.47000000000E+01 0. -1.
        -13    1    4    4    0    0 -0.10814634846E+02  0.56974441702E+02  0.13579973263E+02  0.59560549090E+02  0.00000000000E+00 0.  1.
         14    1    4    4    0    0  0.26311125182E+02 -0.13811621687E+02 -0.74975811136E+01  0.30647184610E+02  0.00000000000E+00 0. -1.
         -5    1    5    5    0  502 -0.82486345031E+02  0.24205800911E+01  0.18155010654E+03  0.19948029353E+03  0.47000000000E+01 0.  1.
         13    1    6    6    0    0 -0.66437897281E+01  0.43353411109E+02  0.12086981082E+02  0.45494541524E+02  0.00000000000E+00 0. -1.
        -14    1    6    6    0    0  0.15614270177E+02 -0.32663611584E+02  0.25952042926E+02  0.44544645995E+02  0.00000000000E+00 0.  1.
</event>
<event>
12    1  0.8417180E-002  0.2512971E+03  0.7818608E-02  0.1112648E+00
         21   -1    0    0  501  502  0.00000000000E+00  0.00000000000E+00  0.36280593295E+03  0.36280593295E+03  0.00000000000E+00 0. -1.
         21   -1    0    0  502  503 -0.00000000000E+00 -0.00000000000E+00 -0.17430713594E+03  0.17430713594E+03  0.00000000000E+00 0. -1.
         -6    2    1    2    0  503 -0.16156006252E+03  0.87559608484E+02  0.74597207434E+02  0.26213540429E+03  0.17141145814E+03 0.  0.
        -24    2    3    3    0    0 -0.18525849376E+03  0.96681018959E+02  0.75146103814E+02  0.23630505277E+03  0.80778785008E+02 0.  0.
          6    2    1    2  501    0  0.16156006252E+03 -0.87559608484E+02  0.11390158957E+03  0.27497766461E+03  0.16991411091E+03 0.  0.
         24    2    5    5    0    0  0.50273953501E+02 -0.36226262625E+02  0.11313710706E+03  0.15233026394E+03  0.81022785757E+02 0.  0.
          5    1    5    5  501    0  0.11128610902E+03 -0.51333345859E+02  0.76448250750E+00  0.12264740067E+03  0.47000000000E+01 0. -1.
        -13    1    6    6    0    0  0.14596285093E+02 -0.17007988201E+02 -0.86148472000E+01  0.24011222240E+02  0.00000000000E+00 0.  1.
         14    1    6    6    0    0  0.35677668407E+02 -0.19218274424E+02  0.12175195426E+03  0.12831904170E+03  0.00000000000E+00 0. -1.
         -5    1    3    3    0  503  0.23698431240E+02 -0.91214104750E+01 -0.54889638055E+00  0.25830351517E+02  0.47000000000E+01 0.  1.
         13    1    4    4    0    0 -0.42295144134E+02  0.30953925903E+01 -0.12574119144E+02  0.44233122712E+02  0.00000000000E+00 0. -1.
        -14    1    4    4    0    0 -0.14296334963E+03  0.93585626369E+02  0.87720222958E+02  0.19207193006E+03  0.00000000000E+00 0.  1.
</event>
<event>
12    1  0.8417180E-002  0.3616306E+03  0.7818608E-02  0.1058008E+00
         21   -1    0    0  501  502  0.00000000000E+00  0.00000000000E+00  0.20603999439E+04  0.20603999439E+04  0.00000000000E+00 0. -1.
         21   -1    0    0  502  503 -0.00000000000E+00 -0.00000000000E+00 -0.63637404165E+02  0.63637404165E+02  0.00000000000E+00 0.  1.
         -6    2    1    2    0  503  0.13790014730E+03  0.28587108446E+03  0.92812906858E+03  0.99609250413E+03  0.17331468859E+03 0.  0.
        -24    2    3    3    0    0  0.56655237754E+02  0.24756058208E+03  0.61192836997E+03  0.66734731143E+03  0.80000289605E+02 0.  0.
          6    2    1    2  501    0 -0.13790014730E+03 -0.28587108446E+03  0.10686334711E+04  0.11279448439E+04  0.17188178416E+03 0.  0.
         24    2    5    5    0    0 -0.30826210049E+02 -0.21581768417E+03  0.72408348141E+03  0.76037295659E+03  0.79640548953E+02 0.  0.
          5    1    5    5  501    0 -0.10707393725E+03 -0.70053400291E+02  0.34454998973E+03  0.36757188733E+03  0.47000000000E+01 0. -1.
        -13    1    6    6    0    0 -0.17657797921E+02 -0.11609105633E+03  0.25664389816E+03  0.28223221229E+03  0.00000000000E+00 0.  1.
         14    1    6    6    0    0 -0.13168412128E+02 -0.99726627839E+02  0.46743958325E+03  0.47814074430E+03  0.00000000000E+00 0. -1.
         -5    1    3    3    0  503  0.81244909549E+02  0.38310502383E+02  0.31620069861E+03  0.32874519270E+03  0.47000000000E+01 0.  1.
         13    1    4    4    0    0 -0.21365143568E+01  0.13631198106E+02  0.10564596413E+03  0.10654315554E+03  0.00000000000E+00 0. -1.
        -14    1    4    4    0    0  0.58791752111E+02  0.23392938397E+03  0.50628240583E+03  0.56080415589E+03  0.00000000000E+00 0.  1.
</event>
<event>
12    1  0.8417180E-002  0.1912125E+03  0.7818608E-02  0.1158268E+00
         21   -1    0    0  501  502  0.00000000000E+00  0.00000000000E+00  0.11775455967E+03  0.11775455967E+03  0.00000000000E+00 0. -1.
         21   -1    0    0  502  503 -0.00000000000E+00 -0.00000000000E+00 -0.48432172831E+03  0.48432172831E+03  0.00000000000E+00 0. -1.
         -6    2    1    2    0  503  0.35730799030E+02 -0.76337416462E+02 -0.36571149802E+03  0.41086185886E+03  0.16720788298E+03 0.  0.
        -24    2    3    3    0    0 -0.39763012265E+02 -0.51529421003E+02 -0.26302934577E+03  0.28093700914E+03  0.74194258528E+02 0.  0.
          6    2    1    2  501    0 -0.35730799030E+02  0.76337416462E+02 -0.85567062121E+00  0.19121442913E+03  0.17163372216E+03 0.  0.
         24    2    5    5    0    0 -0.35227853654E+02  0.47504457398E+02  0.65357807195E+02  0.11884104226E+03  0.79711198825E+02 0.  0.
          5    1    5    5  501    0 -0.50294537573E+00  0.28832959063E+02 -0.66213477816E+02  0.72373386869E+02  0.47000000000E+01 0. -1.
        -13    1    6    6    0    0 -0.59893879680E+02  0.22565082056E+02  0.38816649654E+02  0.74854472423E+02  0.00000000000E+00 0.  1.
         14    1    6    6    0    0  0.24666026026E+02  0.24939375342E+02  0.26541157540E+02  0.43986569836E+02  0.00000000000E+00 0. -1.
         -5    1    3    3    0  503  0.75493811295E+02 -0.24807995459E+02 -0.10268215225E+03  0.12992484972E+03  0.47000000000E+01 0.  1.
         11    1    4    4    0    0 -0.23596667780E+01 -0.22492548948E+02 -0.20405985172E+03  0.20530929319E+03  0.00000000000E+00 0. -1.
        -12    1    4    4    0    0 -0.37403345487E+02 -0.29036872055E+02 -0.58969494045E+02  0.75627715954E+02  0.00000000000E+00 0.  1.
</event>
<event>
12    1  0.8417180E-002  0.2523293E+03  0.7818608E-02  0.1111858E+00
         21   -1    0    0  503  502  0.00000000000E+00  0.00000000000E+00  0.71043176637E+03  0.71043176637E+03  0.00000000000E+00 0.  1.
         21   -1    0    0  501  503 -0.00000000000E+00 -0.00000000000E+00 -0.25237013990E+03  0.25237013990E+03  0.00000000000E+00 0. -1.
          6    2    1    2  501    0 -0.17540099580E+03 -0.51917340558E+02 -0.15761585273E+03  0.29742318121E+03  0.17365734109E+03 0.  0.
         24    2    3    3    0    0 -0.13223411628E+03  0.23731518372E+02 -0.49087563064E+02  0.15818737762E+03  0.67561905812E+02 0.  0.
         -6    2    1    2    0  502  0.17540099580E+03  0.51917340558E+02  0.61567747920E+03  0.66537872506E+03  0.17380785308E+03 0.  0.
        -24    2    5    5    0    0  0.33785555624E+02  0.55986998000E+02  0.34005471556E+03  0.35544083960E+03  0.80155930331E+02 0.  0.
          5    1    3    3  501    0 -0.43166879515E+02 -0.75648858930E+02 -0.10852828967E+03  0.13923580360E+03  0.47000000000E+01 0. -1.
        -13    1    4    4    0    0 -0.53675945029E+02 -0.12242459984E+02  0.65162424228E+01  0.55438671670E+02  0.00000000000E+00 0.  1.
         14    1    4    4    0    0 -0.78558171253E+02  0.35973978356E+02 -0.55603805487E+02  0.10274870595E+03  0.00000000000E+00 0. -1.
         -5    1    5    5    0  502  0.14161544017E+03 -0.40696574421E+01  0.27562276364E+03  0.30993788546E+03  0.47000000000E+01 0.  1.
         11    1    6    6    0    0 -0.15910944114E+02  0.48424934308E+02  0.20765728508E+03  0.21382160895E+03  0.00000000000E+00 0. -1.
        -12    1    6    6    0    0  0.49696499738E+02  0.75620636926E+01  0.13239743048E+03  0.14161923065E+03  0.00000000000E+00 0.  1.
</event>
<event>
12    1  0.8417180E-002  0.2143577E+03  0.7818608E-02  0.1138361E+00
         21   -1    0    0  501  502  0.00000000000E+00  0.00000000000E+00  0.15527841681E+03  0.15527841681E+03  0.00000000000E+00 0.  1.
         21   -1    0    0  502  503 -0.00000000000E+00 -0.00000000000E+00 -0.20128850144E+04  0.20128850144E+04  0.00000000000E+00 0. -1.
         -6    2    1    2    0  503 -0.12835077734E+03  0.22328453640E+01 -0.19301203470E+04  0.19418727935E+04  0.17037160762E+03 0.  0.
        -24    2    3    3    0    0 -0.15409967270E+03 -0.15087589092E+02 -0.13676420872E+04  0.13785195422E+04  0.76791308065E+02 0.  0.
          6    2    1    2  501    0  0.12835077734E+03 -0.22328453640E+01  0.72513749350E+02  0.22629063775E+03  0.17166916219E+03 0.  0.
         24    2    5    5    0    0  0.12192644696E+03  0.33903348292E+01 -0.94508507601E+01  0.14374866148E+03  0.75477190303E+02 0.  0.
          5    1    5    5  501    0  0.64243303716E+01 -0.56231801932E+01  0.81964600110E+02  0.82541976275E+02  0.47000000000E+01 0. -1.
        -13    1    6    6    0    0  0.27276971880E+02  0.33704420930E+02  0.36074363783E+01  0.43509019552E+02  0.00000000000E+00 0.  1.
         14    1    6    6    0    0  0.94649475085E+02 -0.30314086100E+02 -0.13058287138E+02  0.10023964192E+03  0.00000000000E+00 0. -1.
         -5    1    3    3    0  503  0.25748895368E+02  0.17320434456E+02 -0.56247825978E+03  0.56335325133E+03  0.47000000000E+01 0.  1.
         13    1    4    4    0    0 -0.57872696346E+02  0.45895721867E+01 -0.82649188501E+03  0.82852830316E+03  0.00000000000E+00 0. -1.
        -14    1    4    4    0    0 -0.96226976359E+02 -0.19677161279E+02 -0.54115020220E+03  0.54999123902E+03  0.00000000000E+00 0.  1.
</event>
<event>
12    1  0.8417180E-002  0.2071106E+03  0.7818608E-02  0.1144585E+00
         21   -1    0    0  501  502  0.00000000000E+00  0.00000000000E+00  0.14329412380E+03  0.14329412380E+03  0.00000000000E+00 0.  1.
         21   -1    0    0  502  503 -0.00000000000E+00 -0.00000000000E+00 -0.33034539376E+03  0.33034539376E+03  0.00000000000E+00 0. -1.
         -6    2    1    2    0  503 -0.73749142286E+02  0.78709344628E+02 -0.16034898503E+02  0.20773038378E+03  0.17680694969E+03 0.  0.
        -24    2    3    3    0    0  0.19565858365E+02  0.48173599281E+02  0.27836587181E+02  0.10008783482E+03  0.80865200256E+02 0.  0.
          6    2    1    2  501    0  0.73749142286E+02 -0.78709344628E+02 -0.17101637146E+03  0.26590913377E+03  0.17270486732E+03 0.  0.
         24    2    5    5    0    0  0.22461974194E+02  0.11036472782E+02 -0.36261619326E+02  0.96010285700E+02  0.85303727397E+02 0.  0.
          5    1    5    5  501    0  0.51287168092E+02 -0.89745817410E+02 -0.13475475213E+03  0.16989884807E+03  0.47000000000E+01 0. -1.
        -13    1    6    6    0    0  0.47955294626E+02  0.11183517413E+02 -0.47254142022E+02  0.68247602761E+02  0.00000000000E+00 0.  1.
         14    1    6    6    0    0 -0.25493320432E+02 -0.14704463084E+00  0.10992522696E+02  0.27762682939E+02  0.00000000000E+00 0. -1.
         -5    1    3    3    0  503 -0.93315000651E+02  0.30535745347E+02 -0.43871485684E+02  0.10764254896E+03  0.47000000000E+01 0.  1.
         13    1    4    4    0    0 -0.23539214785E+02 -0.81734941852E+01  0.39404898083E+01  0.25227526629E+02  0.00000000000E+00 0. -1.
        -14    1    4    4    0    0  0.43105073150E+02  0.56347093467E+02  0.23896097373E+02  0.74860308195E+02  0.00000000000E+00 0.  1.
</event>
<event>
12    1  0.8417180E-002  0.2141656E+03  0.7818608E-02  0.1138376E+00
         21   -1    0    0  501  502  0.00000000000E+00  0.00000000000E+00  0.24395667371E+03  0.24395667371E+03  0.00000000000E+00 0. -1.
         21   -1    0    0  502  503 -0.00000000000E+00 -0.00000000000E+00 -0.67640374979E+03  0.67640374979E+03  0.00000000000E+00 0. -1.
         -6    2    1    2    0  503 -0.11951307689E+03 -0.46021395344E+02 -0.60732601649E+03  0.64386528848E+03  0.17121996095E+03 0.  0.
        -24    2    3    3    0    0 -0.91545037055E+02 -0.30405326123E+02 -0.59682078069E+03  0.60982820798E+03  0.79940110789E+02 0.  0.
          6    2    1    2  501    0  0.11951307689E+03  0.46021395344E+02  0.17487894040E+03  0.27649513502E+03  0.17165538593E+03 0.  0.
         24    2    5    5    0    0  0.11099014456E+03  0.67802901836E+02  0.68681755531E+02  0.16765118032E+03  0.80459238326E+02 0.  0.
          5    1    5    5  501    0  0.85229323213E+01 -0.21781506491E+02  0.10619718487E+03  0.10884395470E+03  0.47000000000E+01 0. -1.
        -11    1    6    6    0    0  0.95910376114E+02  0.19634175458E+02  0.25349377649E+02  0.10112809718E+03  0.00000000000E+00 0.  1.
         12    1    6    6    0    0  0.15079768450E+02  0.48168726378E+02  0.43332377882E+02  0.66523083139E+02  0.00000000000E+00 0. -1.
         -5    1    3    3    0  503 -0.27968039830E+02 -0.15616069222E+02 -0.10505235795E+02  0.34037080501E+02  0.47000000000E+01 0.  1.
         13    1    4    4    0    0 -0.90770674137E+02 -0.31696256737E+02 -0.34895771089E+03  0.36196056686E+03  0.00000000000E+00 0. -1.
        -14    1    4    4    0    0 -0.77436291886E+00  0.12909306145E+01 -0.24786306981E+03  0.24786764112E+03  0.00000000000E+00 0.  1.
</event>
<event>
12    1  0.8417180E-002  0.1897079E+03  0.7818608E-02  0.1158923E+00
         21   -1    0    0  503  502  0.00000000000E+00  0.00000000000E+00  0.90070803597E+02  0.90070803597E+02  0.00000000000E+00 0. -1.
         21   -1    0    0  501  503 -0.00000000000E+00 -0.00000000000E+00 -0.79748341258E+03  0.79748341258E+03  0.00000000000E+00 0. -1.
          6    2    1    2  501    0  0.15929920640E+02  0.75829033005E+02 -0.66831203308E+03  0.69471581316E+03  0.17316259085E+03 0.  0.
         24    2    3    3    0    0  0.36695955350E+02  0.10559750339E+03 -0.38210352315E+03  0.40617674962E+03  0.80492382681E+02 0.  0.
         -6    2    1    2    0  502 -0.15929920640E+02 -0.75829033005E+02 -0.39100575899E+02  0.19283840302E+03  0.17220333918E+03 0.  0.
        -24    2    5    5    0    0  0.16775863258E+02 -0.91116139049E+02  0.20611490507E+02  0.12290282705E+03  0.78081310009E+02 0.  0.
          5    1    3    3  501    0 -0.20766034710E+02 -0.29768470385E+02 -0.28620850994E+03  0.28853906354E+03  0.47000000000E+01 0. -1.
        -11    1    4    4    0    0 -0.18546703967E+02  0.69059382787E+02 -0.19529848579E+03  0.20797758805E+03  0.00000000000E+00 0.  1.
         12    1    4    4    0    0  0.55242659316E+02  0.36538120603E+02 -0.18680503735E+03  0.19819916157E+03  0.00000000000E+00 0. -1.
         -5    1    5    5    0  502 -0.32705783898E+02  0.15287106044E+02 -0.59712066406E+02  0.69935575969E+02  0.47000000000E+01 0.  1.
         11    1    6    6    0    0  0.32401091851E+02 -0.87979899424E+02 -0.37043873157E+01  0.93829717793E+02  0.00000000000E+00 0. -1.
        -12    1    6    6    0    0 -0.15625228593E+02 -0.31362396259E+01  0.24315877823E+02  0.29073109257E+02  0.00000000000E+00 0.  1.
</event>
<event>
12    1  0.8417180E-002  0.1786523E+03  0.7818608E-02  0.1169484E+00
         21   -1    0    0  503  502  0.00000000000E+00  0.00000000000E+00  0.13500923718E+03  0.13500923718E+03  0.00000000000E+00 0.  1.
         21   -1    0    0  501  503 -0.00000000000E+00 -0.00000000000E+00 -0.66048044711E+03  0.66048044711E+03  0.00000000000E+00 0.  1.
          6    2    1    2  501    0  0.43584043563E+02  0.87373526330E+01 -0.58179751008E+03  0.60816833170E+03  0.17147730684E+03 0.  0.
         24    2    3    3    0    0  0.72245994591E+02  0.15089450483E+02 -0.56182830297E+03  0.57235330948E+03  0.80561117218E+02 0.  0.
         -6    2    1    2    0  502 -0.43584043563E+02 -0.87373526330E+01  0.56326300143E+02  0.18732135259E+03  0.17303388935E+03 0.  0.
        -24    2    5    5    0    0 -0.69212144954E+01  0.41406078293E+01  0.10078383176E+03  0.12808819449E+03  0.78639411111E+02 0.  0.
          5    1    3    3  501    0 -0.28661951029E+02 -0.63520978497E+01 -0.19969207112E+02  0.35815022219E+02  0.47000000000E+01 0. -1.
        -11    1    4    4    0    0  0.18743005948E+02  0.21527722876E+02 -0.49046958865E+02  0.56748103916E+02  0.00000000000E+00 0.  1.
         12    1    4    4    0    0  0.53502988643E+02 -0.64382723931E+01 -0.51278134410E+03  0.51560520556E+03  0.00000000000E+00 0. -1.
         -5    1    5    5    0  502 -0.36662829067E+02 -0.12877960462E+02 -0.44457531620E+02  0.59233158101E+02  0.47000000000E+01 0.  1.
         13    1    6    6    0    0 -0.53697052546E+01  0.36285983937E+02  0.84288695465E+02  0.91924374069E+02  0.00000000000E+00 0. -1.
        -14    1    6    6    0    0 -0.15515092408E+01 -0.32145376108E+02  0.16495136298E+02  0.36163820422E+02  0.00000000000E+00 0.  1.
</event>
<event>
12    1  0.8417180E-002  0.1740891E+03  0.7818608E-02  0.1173713E+00
         21   -1    0    0  503  502  0.00000000000E+00  0.00000000000E+00  0.57078754783E+02  0.57078754783E+02  0.00000000000E+00 0.  1.
         21   -1    0    0  501  503 -0.00000000000E+00 -0.00000000000E+00 -0.54568819192E+03  0.54568819192E+03  0.00000000000E+00 0.  1.
          6    2    1    2  501    0  0.50271368073E+01  0.26758912696E+02 -0.29524473137E+03  0.34274839419E+03  0.17194679062E+03 0.  0.
         24    2    3    3    0    0  0.55295362960E+02  0.28300616333E+02 -0.10822343467E+03  0.14902610113E+03  0.81473707145E+02 0.  0.
         -6    2    1    2    0  502 -0.50271368073E+01 -0.26758912696E+02 -0.19336470576E+03  0.26001855251E+03  0.17169282658E+03 0.  0.
        -24    2    5    5    0    0 -0.35300296521E+02 -0.62389220085E+01 -0.29083559456E+02  0.91650149151E+02  0.79176141145E+02 0.  0.
          5    1    3    3  501    0 -0.50268226153E+02 -0.15417036371E+01 -0.18702129670E+03  0.19372229306E+03  0.47000000000E+01 0. -1.
        -13    1    4    4    0    0  0.12259897575E+02  0.28527249701E+02 -0.10064764207E+03  0.10532832914E+03  0.00000000000E+00 0.  1.
         14    1    4    4    0    0  0.43035465385E+02 -0.22663336797E+00 -0.75757925997E+01  0.43697771992E+02  0.00000000000E+00 0. -1.
         -5    1    5    5    0  502  0.30273159713E+02 -0.20519990687E+02 -0.16428114631E+03  0.16836840336E+03  0.47000000000E+01 0.  1.
         11    1    6    6    0    0  0.11020683613E+02  0.61576818497E+01 -0.40446675445E+02  0.42371052237E+02  0.00000000000E+00 0. -1.
        -12    1    6    6    0    0 -0.46320980134E+02 -0.12396603858E+02  0.11363115989E+02  0.49279096915E+02  0.00000000000E+00 0.  1.
</event>
<event>
12    1  0.8417180E-002  0.3068247E+03  0.7818608E-02  0.1081891E+00
         21   -1    0    0  501  502  0.00000000000E+00  0.00000000000E+00  0.85381974404E+03  0.85381974404E+03  0.00000000000E+00 0. -1.
         21   -1    0    0  502  503 -0.00000000000E+00 -0.00000000000E+00 -0.11626511949E+03  0.11626511949E+03  0.00000000000E+00 0. -1.
         -6    2    1    2    0  503 -0.11742915025E+03 -0.22552195552E+03  0.25824371171E+03  0.40103769519E+03  0.17173136167E+03 0.  0.
        -24    2    3    3    0    0 -0.13126651709E+03 -0.10480711577E+03  0.14416199189E+03  0.23430355336E+03  0.76811751616E+02 0.  0.
          6    2    1    2  501    0  0.11742915025E+03  0.22552195552E+03  0.47931091285E+03  0.56904716834E+03  0.17153999786E+03 0.  0.
         24    2    5    5    0    0  0.45946004594E+02  0.48042013679E+02  0.11076912486E+03  0.15377122470E+03  0.83406954789E+02 0.  0.
          5    1    5    5  501    0  0.71483145658E+02  0.17747994184E+03  0.36854178799E+03  0.41527594364E+03  0.47000000000E+01 0. -1.
        -13    1    6    6    0    0 -0.10682837392E+01 -0.21934499278E+02  0.17777093097E+02  0.28254000208E+02  0.00000000000E+00 0.  1.
         14    1    6    6    0    0  0.47014288333E+02  0.69976512958E+02  0.92992031760E+02  0.12551722449E+03  0.00000000000E+00 0. -1.
         -5    1    3    3    0  503  0.13837366841E+02 -0.12071483975E+03  0.11408171982E+03  0.16673414183E+03  0.47000000000E+01 0.  1.
         13    1    4    4    0    0 -0.66775176527E+02 -0.82029607781E+02  0.12402970633E+03  0.16300659130E+03  0.00000000000E+00 0. -1.
        -14    1    4    4    0    0 -0.64491340566E+02 -0.22777507989E+02  0.20132285560E+02  0.71296962067E+02  0.00000000000E+00 0.  1.
</event>
<event>
12    1  0.8417180E-002  0.1733491E+03  0.7818608E-02  0.1174553E+00
         21   -1    0    0  501  502  0.00000000000E+00  0.00000000000E+00  0.17216341935E+03  0.17216341935E+03  0.00000000000E+00 0. -1.
         21   -1    0    0  502  503 -0.00000000000E+00 -0.00000000000E+00 -0.21985347605E+03  0.21985347605E+03  0.00000000000E+00 0. -1.
         -6    2    1    2    0  503 -0.51131713674E+01 -0.22515753497E+02 -0.11338833498E+03  0.20663577300E+03  0.17119674208E+03 0.  0.
        -24    2    3    3    0    0 -0.28430656419E+02 -0.72413375794E+02 -0.56567357735E+02  0.12736288183E+03  0.83483162902E+02 0.  0.
          6    2    1    2  501    0  0.51131713674E+01  0.22515753497E+02  0.65698278284E+02  0.18538112240E+03  0.17180452001E+03 0.  0.
         24    2    5    5    0    0  0.54113159433E+02  0.87778486696E+01 -0.73414428610E+01  0.96237307557E+02  0.78755558098E+02 0.  0.
          5    1    5    5  501    0 -0.48999988066E+02  0.13737904828E+02  0.73039721145E+02  0.89143814841E+02  0.47000000000E+01 0. -1.
        -11    1    6    6    0    0  0.19252793907E+02 -0.34790867864E+02  0.12436665770E+01  0.39782172723E+02  0.00000000000E+00 0.  1.
         12    1    6    6    0    0  0.34860365526E+02  0.43568716534E+02 -0.85851094380E+01  0.56455134834E+02  0.00000000000E+00 0. -1.
         -5    1    3    3    0  503  0.23317485052E+02  0.49897622297E+02 -0.56820977244E+02  0.79272891173E+02  0.47000000000E+01 0.  1.
         11    1    4    4    0    0 -0.38957185280E+02 -0.85258588450E+01 -0.47438020309E+02  0.61973529227E+02  0.00000000000E+00 0. -1.
        -12    1    4    4    0    0  0.10526528861E+02 -0.63887516949E+02 -0.91293374269E+01  0.65389352601E+02  0.00000000000E+00 0.  1.
</event>
<event>
12    1  0.8417180E-002  0.2213677E+03  0.7818608E-02  0.1133103E+00
         21   -1    0    0  503  502  0.00000000000E+00  0.00000000000E+00  0.22874230217E+03  0.22874230217E+03  0.00000000000E+00 0. -1.
         21   -1    0    0  501  503 -0.00000000000E+00 -0.00000000000E+00 -0.35992165788E+03  0.35992165788E+03  0.00000000000E+00 0. -1.
          6    2    1    2  501    0 -0.13034865890E+02  0.13825679325E+03 -0.25352556017E+03  0.33573661693E+03  0.17076011734E+03 0.  0.
         24    2    3    3    0    0 -0.40990851078E+02  0.13520095128E+02 -0.12012835728E+03  0.15091863970E+03  0.80514413252E+02 0.  0.
         -6    2    1    2    0  502  0.13034865890E+02 -0.13825679325E+03  0.12234620447E+03  0.25292734312E+03  0.17239141087E+03 0.  0.
        -24    2    5    5    0    0  0.66390385080E+02 -0.13354555795E+03  0.10264761671E+03  0.19566364148E+03  0.74199919827E+02 0.  0.
          5    1    3    3  501    0  0.27955985188E+02  0.12473669813E+03 -0.13339720290E+03  0.18481797723E+03  0.47000000000E+01 0. -1.
        -11    1    4    4    0    0  0.14300648156E+02  0.30354362726E+02 -0.43583490679E+02  0.55003786542E+02  0.00000000000E+00 0.  1.
         12    1    4    4    0    0 -0.55291499235E+02 -0.16834267598E+02 -0.76544866597E+02  0.95914853154E+02  0.00000000000E+00 0. -1.
         -5    1    5    5    0  502 -0.53355519189E+02 -0.47112353019E+01  0.19698587761E+02  0.57263701642E+02  0.47000000000E+01 0.  1.
         11    1    6    6    0    0  0.47633563706E+02 -0.13630810579E+03  0.76614201622E+02  0.16345822704E+03  0.00000000000E+00 0. -1.
        -12    1    6    6    0    0  0.18756821373E+02  0.27625478381E+01  0.26033415087E+02  0.32205414446E+02  0.00000000000E+00 0.  1.
</event>
<event>
12    1  0.8417180E-002  0.3226031E+03  0.7818608E-02  0.1074514E+00
         21   -1    0    0  503  502  0.00000000000E+00  0.00000000000E+00  0.19251347633E+04  0.19251347633E+04  0.00000000000E+00 0. -1.
         21   -1    0    0  501  503 -0.00000000000E+00 -0.00000000000E+00 -0.37838138341E+03  0.37838138341E+03  0.00000000000E+00 0.  1.
          6    2    1    2  501    0  0.23081455319E+03  0.14784568520E+03 -0.29315555141E+03  0.43553926601E+03  0.16917615173E+03 0.  0.
         24    2    3    3    0    0  0.47101337842E+02  0.12530632315E+01 -0.11356026824E+03  0.13970739138E+03  0.66348432449E+02 0.  0.
         -6    2    1    2    0  502 -0.23081455319E+03 -0.14784568520E+03  0.18399089313E+04  0.18679768807E+04  0.17011480461E+03 0.  0.
        -24    2    5    5    0    0 -0.16328465493E+03 -0.16914662965E+03  0.15340603959E+04  0.15540032607E+04  0.79450458866E+02 0.  0.
          5    1    3    3  501    0  0.18371321535E+03  0.14659262197E+03 -0.17959528317E+03  0.29583187463E+03  0.47000000000E+01 0. -1.
        -13    1    4    4    0    0  0.35557618487E+02 -0.29268348580E+02 -0.48263343864E+02  0.66710799890E+02  0.00000000000E+00 0.  1.
         14    1    4    4    0    0  0.11543719355E+02  0.30521411811E+02 -0.65296924381E+02  0.72996591490E+02  0.00000000000E+00 0. -1.
         -5    1    5    5    0  502 -0.67529898268E+02  0.21300944443E+02  0.30584853547E+03  0.31397361998E+03  0.47000000000E+01 0.  1.
         13    1    6    6    0    0 -0.13328149785E+03 -0.87400661453E+02  0.90207040934E+03  0.91604249721E+03  0.00000000000E+00 0. -1.
        -14    1    6    6    0    0 -0.30003157081E+02 -0.81745968193E+02  0.63198998653E+03  0.63796076354E+03  0.00000000000E+00 0.  1.
</event>
<event>
12    1  0.8417180E-002  0.2725911E+03  0.7818608E-02  0.1099906E+00
         21   -1    0    0  501  502  0.00000000000E+00  0.00000000000E+00  0.23461318143E+04  0.23461318143E+04  0.00000000000E+00 0.  1.
         21   -1    0    0  502  503 -0.00000000000E+00 -0.00000000000E+00 -0.32527861697E+02  0.32527861697E+02  0.00000000000E+00 0. -1.
         -6    2    1    2    0  503 -0.18278023336E+03  0.10561384897E+03  0.95337095838E+03  0.99138186826E+03  0.17134446485E+03 0.  0.
        -24    2    3    3    0    0 -0.18488062407E+03  0.99319360926E+02  0.65001059514E+03  0.68791254163E+03  0.81637678351E+02 0.  0.
          6    2    1    2  501    0  0.18278023336E+03 -0.10561384897E+03  0.13602329942E+04  0.13872778077E+04  0.17246164346E+03 0.  0.
         24    2    5    5    0    0  0.22514641889E+02 -0.21837277302E+02  0.57732395556E+03  0.58374048652E+03  0.80412873090E+02 0.  0.
          5    1    5    5  501    0  0.16026559147E+03 -0.83776571669E+02  0.78290903868E+03  0.80353732123E+03  0.47000000000E+01 0. -1.
        -11    1    6    6    0    0  0.22634625382E+02  0.23109657312E+02  0.12242800707E+03  0.12662937828E+03  0.00000000000E+00 0.  1.
         12    1    6    6    0    0 -0.11998349350E+00 -0.44946934614E+02  0.45489594849E+03  0.45711110824E+03  0.00000000000E+00 0. -1.
         -5    1    3    3    0  503  0.21003907108E+01  0.62944880454E+01  0.30336036324E+03  0.30346932663E+03  0.47000000000E+01 0.  1.
         11    1    4    4    0    0 -0.13442660615E+02  0.86921432489E+01  0.93316014111E+01  0.18529362201E+02  0.00000000000E+00 0. -1.
        -12    1    4    4    0    0 -0.17143796345E+03  0.90627217677E+02  0.64067899373E+03  0.66938317943E+03  0.00000000000E+00 0.  1.
</event>
<event>
12    1  0.8417180E-002  0.2271050E+03  0.7818608E-02  0.1130418E+00
         21   -1    0    0  501  502  0.00000000000E+00  0.00000000000E+00  0.82627522123E+03  0.82627522123E+03  0.00000000000E+00 0.  1.
         21   -1    0    0  502  503 -0.00000000000E+00 -0.00000000000E+00 -0.60493671482E+02  0.60493671482E+02  0.00000000000E+00 0. -1.
         -6    2    1    2    0  503  0.78850996933E+02  0.12518749280E+03  0.34548095263E+03  0.41344136368E+03  0.17229998404E+03 0.  0.
        -24    2    3    3    0    0  0.89614685814E+02  0.21868681696E+02  0.16132732571E+03  0.20195783705E+03  0.79065989993E+02 0.  0.
          6    2    1    2  501    0 -0.78850996933E+02 -0.12518749280E+03  0.42030059712E+03  0.47332752903E+03  0.15967770581E+03 0.  0.
         24    2    5    5    0    0 -0.17506332492E+02 -0.44568529083E+01  0.16071056974E+03  0.18049971687E+03  0.80161869660E+02 0.  0.
          5    1    5    5  501    0 -0.61344664441E+02 -0.12073063989E+03  0.25959002737E+03  0.29282781216E+03  0.47000000000E+01 0. -1.
        -13    1    6    6    0    0  0.24528807260E+02 -0.11340288812E+02  0.11452920291E+03  0.11767413843E+03  0.00000000000E+00 0.  1.
         14    1    6    6    0    0 -0.42035139751E+02  0.68834359035E+01  0.46181366837E+02  0.62825578443E+02  0.00000000000E+00 0. -1.
         -5    1    3    3    0  503 -0.10763688882E+02  0.10331881111E+03  0.18415362692E+03  0.21148352663E+03  0.47000000000E+01 0.  1.
         11    1    4    4    0    0  0.94458988728E+02  0.24861653936E+02  0.97961799769E+02  0.13833696759E+03  0.00000000000E+00 0. -1.
        -12    1    4    4    0    0 -0.48443029135E+01 -0.29929722401E+01  0.63365525937E+02  0.63620869460E+02  0.00000000000E+00 0.  1.
</event>
<event>
12    1  0.8417180E-002  0.2726397E+03  0.7818608E-02  0.1099782E+00
         21   -1    0    0  501  502  0.00000000000E+00  0.00000000000E+00  0.12525851886E+04  0.12525851886E+04  0.00000000000E+00 0. -1.
         21   -1    0    0  502  503 -0.00000000000E+00 -0.00000000000E+00 -0.62506936128E+02  0.62506936128E+02  0.00000000000E+00 0.  1.
         -6    2    1    2    0  503  0.16965995917E+03  0.12555656310E+03  0.44693936593E+03  0.52351912525E+03  0.17253557721E+03 0.  0.
        -24    2    3    3    0    0  0.92833930358E+02  0.73005729624E+02  0.38652574061E+03  0.41245281656E+03  0.82263008397E+02 0.  0.
          6    2    1    2  501    0 -0.16965995917E+03 -0.12555656310E+03  0.74313888656E+03  0.79157299949E+03  0.17257884150E+03 0.  0.
         24    2    5    5    0    0 -0.32675427303E+02  0.56292483199E+00  0.22868484015E+03  0.24443869873E+03  0.79909454317E+02 0.  0.
          5    1    5    5  501    0 -0.13698453187E+03 -0.12611948793E+03  0.51445404641E+03  0.54713430076E+03  0.47000000000E+01 0. -1.
        -13    1    6    6    0    0 -0.39774673217E+02 -0.18873415138E+02  0.59625220848E+02  0.74117456714E+02  0.00000000000E+00 0.  1.
         14    1    6    6    0    0  0.70992459141E+01  0.19436339970E+02  0.16905961930E+03  0.17032124201E+03  0.00000000000E+00 0. -1.
         -5    1    3    3    0  503  0.76826028811E+02  0.52550833473E+02  0.60413625319E+02  0.11106630869E+03  0.47000000000E+01 0.  1.
         13    1    4    4    0    0  0.10160518496E+03  0.44444420245E+02  0.33513880904E+03  0.35301124830E+03  0.00000000000E+00 0. -1.
        -14    1    4    4    0    0 -0.87712546061E+01  0.28561309380E+02  0.51386931566E+02  0.59441568255E+02  0.00000000000E+00 0.  1.
</event>
<event>
12    1  0.8417180E-002  0.1896406E+03  0.7818608E-02  0.1162475E+00
         21   -1    0    0  503  502  0.00000000000E+00  0.00000000000E+00  0.23902483841E+02  0.23902483841E+02  0.00000000000E+00 0.  1.
         21   -1    0    0  501  503 -0.00000000000E+00 -0.00000000000E+00 -0.18156027686E+04  0.18156027686E+04  0.00000000000E+00 0.  1.
          6    2    1    2  501    0  0.22836213103E+02  0.14013202085E+02 -0.13150033726E+04  0.13264716106E+04  0.17197442087E+03 0.  0.
         24    2    3    3    0    0  0.63446653554E+02 -0.17244540580E+02 -0.11356045453E+04  0.11398375205E+04  0.72863145073E+02 0.  0.
         -6    2    1    2    0  502 -0.22836213103E+02 -0.14013202085E+02 -0.47669691217E+03  0.51303364181E+03  0.18773840601E+03 0.  0.
        -24    2    5    5    0    0 -0.32366273729E+02 -0.82335376229E+02 -0.32027643134E+03  0.34201259527E+03  0.81048954334E+02 0.  0.
          5    1    3    3  501    0 -0.40610440451E+02  0.31257742666E+02 -0.17939882728E+03  0.18663409008E+03  0.47000000000E+01 0. -1.
        -11    1    4    4    0    0  0.73118878114E+02  0.54419923448E+01 -0.82072325462E+03  0.82399189698E+03  0.00000000000E+00 0.  1.
         12    1    4    4    0    0 -0.96722245597E+01 -0.22686532925E+02 -0.31488129068E+03  0.31584562356E+03  0.00000000000E+00 0. -1.
         -5    1    5    5    0  502  0.95300606256E+01  0.68322174144E+02 -0.15642048083E+03  0.17102104654E+03  0.47000000000E+01 0.  1.
         13    1    6    6    0    0 -0.21199059198E+01 -0.23834243439E+02 -0.22454086235E+03  0.22581223179E+03  0.00000000000E+00 0. -1.
        -14    1    6    6    0    0 -0.30246367809E+02 -0.58501132790E+02 -0.95735568991E+02  0.11620036348E+03  0.00000000000E+00 0.  1.
</event>
<event>
12    1  0.8417180E-002  0.1979280E+03  0.7818608E-02  0.1151748E+00
         21   -1    0    0  503  502  0.00000000000E+00  0.00000000000E+00  0.38060363014E+03  0.38060363014E+03  0.00000000000E+00 0. -1.
         21   -1    0    0  501  503 -0.00000000000E+00 -0.00000000000E+00 -0.30585058427E+03  0.30585058427E+03  0.00000000000E+00 0.  1.
          6    2    1    2  501    0 -0.45611123973E+02 -0.86035554166E+02 -0.24257114639E+03  0.31307545605E+03  0.17231653696E+03 0.  0.
         24    2    3    3    0    0 -0.56797975281E+02 -0.25210445594E+02 -0.22670049366E+03  0.24905352939E+03  0.82298056572E+02 0.  0.
         -6    2    1    2    0  502  0.45611123973E+02  0.86035554166E+02  0.31732419226E+03  0.37337875835E+03  0.17098117727E+03 0.  0.
        -24    2    5    5    0    0 -0.24436638267E+02  0.67605985671E+01  0.19101217419E+03  0.20855150487E+03  0.79782357151E+02 0.  0.
          5    1    3    3  501    0  0.11186851308E+02 -0.60825108571E+02 -0.15870652736E+02  0.64021926659E+02  0.47000000000E+01 0. -1.
        -13    1    4    4    0    0 -0.55488148984E+02 -0.46814734352E+02 -0.12058008932E+03  0.14074839953E+03  0.00000000000E+00 0.  1.
         14    1    4    4    0    0 -0.13098262971E+01  0.21604288758E+02 -0.10612040434E+03  0.10830512986E+03  0.00000000000E+00 0. -1.
         -5    1    5    5    0  502  0.70047762240E+02  0.79274955599E+02  0.12631201808E+03  0.16482725348E+03  0.47000000000E+01 0.  1.
         13    1    6    6    0    0 -0.18675840925E+02  0.42286612032E+02  0.12646139223E+03  0.13464556552E+03  0.00000000000E+00 0. -1.
        -14    1    6    6    0    0 -0.57607973422E+01 -0.35526013465E+02  0.64550781958E+02  0.73905939343E+02  0.00000000000E+00 0.  1.
</event>
<event>
12    1  0.8417180E-002  0.1848847E+03  0.7818608E-02  0.1163855E+00
         21   -1    0    0  503  502  0.00000000000E+00  0.00000000000E+00  0.52943255759E+03  0.52943255759E+03  0.00000000000E+00 0.  1.
         21   -1    0    0  501  503 -0.00000000000E+00 -0.00000000000E+00 -0.74966767195E+02  0.74966767195E+02  0.00000000000E+00 0.  1.
          6    2    1    2  501    0  0.25282744187E+02  0.63326282042E+02  0.10766928211E+03  0.21139782784E+03  0.16866218354E+03 0.  0.
         24    2    3    3    0    0  0.51383160386E+02  0.62870000790E+02  0.14599090425E+02  0.11462184684E+03  0.79574921688E+02 0.  0.
         -6    2    1    2    0  502 -0.25282744187E+02 -0.63326282042E+02  0.34679650829E+03  0.39300149694E+03  0.17185145705E+03 0.  0.
        -24    2    5    5    0    0 -0.46248064518E+02 -0.36752108974E+02  0.92172556731E+02  0.13609455263E+03  0.80847671925E+02 0.  0.
          5    1    3    3  501    0 -0.26100416199E+02  0.45628125279E+00  0.93070191683E+02  0.96775980998E+02  0.47000000000E+01 0. -1.
        -11    1    4    4    0    0 -0.49529018187E+01  0.43569485448E+02  0.29977623293E+02  0.53117691939E+02  0.00000000000E+00 0.  1.
         12    1    4    4    0    0  0.56336062204E+02  0.19300515342E+02 -0.15378532868E+02  0.61504154903E+02  0.00000000000E+00 0. -1.
         -5    1    5    5    0  502  0.20965320331E+02 -0.26574173069E+02  0.25462395156E+03  0.25690694431E+03  0.47000000000E+01 0.  1.
         13    1    6    6    0    0 -0.22212753833E+02  0.24355637257E+02  0.42356355653E+02  0.53671820942E+02  0.00000000000E+00 0. -1.
        -14    1    6    6    0    0 -0.24035310684E+02 -0.61107746230E+02  0.49816201079E+02  0.82422731688E+02  0.00000000000E+00 0.  1.
</event>
<event>
12    1  0.8417180E-002  0.2123814E+03  0.7818608E-02  0.1139739E+00
         21   -1    0    0  503  502  0.00000000000E+00  0.00000000000E+00  0.41932984972E+03  0.41932984972E+03  0.00000000000E+00 0.  1.
         21   -1    0    0  501  503 -0.00000000000E+00 -0.00000000000E+00 -0.13710130950E+03  0.13710130950E+03  0.00000000000E+00 0. -1.
          6    2    1    2  501    0  0.20570285349E+02 -0.12292004952E+03  0.11670278690E+02  0.21247238055E+03  0.17168529896E+03 0.  0.
         24    2    3    3    0    0 -0.49076336682E+01 -0.64391811167E+02  0.71101558243E+02  0.12512911503E+03  0.80196468940E+02 0.  0.
         -6    2    1    2    0  502 -0.20570285349E+02  0.12292004952E+03  0.27055826153E+03  0.34395877866E+03  0.17196916388E+03 0.  0.
        -24    2    5    5    0    0  0.28885172009E+02  0.13589636890E+03  0.19037678893E+03  0.24874645974E+03  0.79556918157E+02 0.  0.
          5    1    3    3  501    0  0.25477919017E+02 -0.58528238354E+02 -0.59431279553E+02  0.87343265520E+02  0.47000000000E+01 0. -1.
        -11    1    4    4    0    0  0.27578701775E+02 -0.47042993013E+02  0.12547426993E+02  0.55955928259E+02  0.00000000000E+00 0.  1.
         12    1    4    4    0    0 -0.32486335443E+02 -0.17348818154E+02  0.58554131250E+02  0.69173186773E+02  0.00000000000E+00 0. -1.
         -5    1    5    5    0  502 -0.49455457358E+02 -0.12976319381E+02  0.80181472600E+02  0.95212318927E+02  0.47000000000E+01 0.  1.
         13    1    6    6    0    0  0.12677505871E+02  0.49750397674E+02  0.16334885998E+02  0.53876244527E+02  0.00000000000E+00 0. -1.
        -14    1    6    6    0    0  0.16207666137E+02  0.86145971229E+02  0.17404190293E+03  0.19487021521E+03  0.00000000000E+00 0.  1.
</event>
<event>
12    1  0.8417180E-002  0.1826458E+03  0.7818608E-02  0.1165596E+00
         21   -1    0    0  503  502  0.00000000000E+00  0.00000000000E+00  0.13116467414E+03  0.13116467414E+03  0.00000000000E+00 0. -1.
         21   -1    0    0  501  503 -0.00000000000E+00 -0.00000000000E+00 -0.28130026960E+03  0.28130026960E+03  0.00000000000E+00 0. -1.
          6    2    1    2  501    0 -0.35024861203E+02 -0.47152352172E+02 -0.14089776096E+03  0.22958570848E+03  0.17148566494E+03 0.  0.
         24    2    3    3    0    0  0.43385986376E+02 -0.26781398826E+01 -0.75721877573E+02  0.11824747448E+03  0.79744255151E+02 0.  0.
         -6    2    1    2    0  502  0.35024861203E+02  0.47152352172E+02 -0.92378344967E+01  0.18287923526E+03  0.17294331986E+03 0.  0.
        -24    2    5    5    0    0  0.73019458997E+02 -0.17093141035E+02 -0.14110816287E+01  0.10768335160E+03  0.77263809108E+02 0.  0.
          5    1    3    3  501    0 -0.78410847579E+02 -0.44474212289E+02 -0.65175883387E+02  0.11133823401E+03  0.47000000000E+01 0. -1.
        -13    1    4    4    0    0 -0.13780955323E+02 -0.25399353010E+02 -0.19097735788E+02  0.34637629468E+02  0.00000000000E+00 0.  1.
         14    1    4    4    0    0  0.57166941699E+02  0.22721213127E+02 -0.56624141785E+02  0.83609845007E+02  0.00000000000E+00 0. -1.
         -5    1    5    5    0  502 -0.37994597794E+02  0.64245493206E+02 -0.78267528680E+01  0.75195883659E+02  0.47000000000E+01 0.  1.
         13    1    6    6    0    0 -0.83346408784E+01 -0.21084933671E+02 -0.11820657869E+02  0.25568899447E+02  0.00000000000E+00 0. -1.
        -14    1    6    6    0    0  0.81354099875E+02  0.39917926362E+01  0.10409576240E+02  0.82114452153E+02  0.00000000000E+00 0.  1.
</event>
<event>
12    1  0.8417180E-002  0.1734664E+03  0.7818608E-02  0.1174343E+00
         21   -1    0    0  503  502  0.00000000000E+00  0.00000000000E+00  0.30165778319E+03  0.30165778319E+03  0.00000000000E+00 0. -1.
         21   -1    0    0  501  503 -0.00000000000E+00 -0.00000000000E+00 -0.11771644689E+03  0.11771644689E+03  0.00000000000E+00 0. -1.
          6    2    1    2  501    0 -0.12932036609E+02  0.97692237399E+01  0.97867762488E+01  0.17374230760E+03  0.17270765228E+03 0.  0.
         24    2    3    3    0    0  0.29478313432E+02 -0.43330171372E+02 -0.17490378622E+02  0.10036440404E+03  0.83789173172E+02 0.  0.
         -6    2    1    2    0  502  0.12932036609E+02 -0.97692237399E+01  0.17415456006E+03  0.24563192248E+03  0.17246030051E+03 0.  0.
        -24    2    5    5    0    0 -0.68558503188E+01 -0.62175653973E+02  0.58320339893E+02  0.11687769552E+03  0.79663787477E+02 0.  0.
          5    1    3    3  501    0 -0.42410350041E+02  0.53099395112E+02  0.27277154871E+02  0.73377903552E+02  0.47000000000E+01 0. -1.
        -11    1    4    4    0    0 -0.22227216286E+02 -0.41215957112E+02 -0.47302547534E+01  0.47065694243E+02  0.00000000000E+00 0.  1.
         12    1    4    4    0    0  0.51705529718E+02 -0.21142142596E+01 -0.12760123869E+02  0.53298709801E+02  0.00000000000E+00 0. -1.
         -5    1    5    5    0  502  0.19787886928E+02  0.52406430233E+02  0.11583422017E+03  0.12875422696E+03  0.47000000000E+01 0.  1.
         13    1    6    6    0    0  0.29505628762E+02 -0.56985172291E+01  0.34154613184E+02  0.45492777768E+02  0.00000000000E+00 0. -1.
        -14    1    6    6    0    0 -0.36361479081E+02 -0.56477136744E+02  0.24165726709E+02  0.71384917756E+02  0.00000000000E+00 0.  1.
</event>
<event>
12    1  0.8417180E-002  0.3666507E+03  0.7818608E-02  0.1056053E+00
         21   -1    0    0  501  502  0.00000000000E+00  0.00000000000E+00  0.23658745874E+03  0.23658745874E+03  0.00000000000E+00 0. -1.
         21   -1    0    0  502  503 -0.00000000000E+00 -0.00000000000E+00 -0.76902952162E+03  0.76902952162E+03  0.00000000000E+00 0.  1.
         -6    2    1    2    0  503  0.32128308742E+03  0.42853921753E+02 -0.52369350371E+03  0.63886187975E+03  0.16979497844E+03 0.  0.
        -24    2    3    3    0    0  0.16069515163E+03 -0.96662003947E+01 -0.36479245872E+03  0.40687377563E+03  0.80971378748E+02 0.  0.
          6    2    1    2  501    0 -0.32128308742E+03 -0.42853921753E+02 -0.87485591756E+01  0.36675510061E+03  0.17138694718E+03 0.  0.
         24    2    5    5    0    0 -0.29744016418E+03 -0.62043078984E+02  0.31165065924E+02  0.31623880410E+03  0.81949526969E+02 0.  0.
          5    1    5    5  501    0 -0.23842923237E+02  0.19189157232E+02 -0.39913625099E+02  0.50516296502E+02  0.47000000000E+01 0. -1.
        -13    1    6    6    0    0 -0.19832469083E+03 -0.61265810038E+02 -0.12457589799E+02  0.20794560350E+03  0.00000000000E+00 0.  1.
         14    1    6    6    0    0 -0.99115473348E+02 -0.77726894591E+00  0.43622655723E+02  0.10829320060E+03  0.00000000000E+00 0. -1.
         -5    1    3    3    0  503  0.16058793579E+03  0.52520122147E+02 -0.15890104499E+03  0.23198810412E+03  0.47000000000E+01 0.  1.
         11    1    4    4    0    0  0.54576052820E+02 -0.15040248543E+02 -0.53286610982E+02  0.77744565904E+02  0.00000000000E+00 0. -1.
        -12    1    4    4    0    0  0.10611909881E+03  0.53740481478E+01 -0.31150584773E+03  0.32912920973E+03  0.00000000000E+00 0.  1.
</event>
<event>
12    1  0.8417180E-002  0.1781533E+03  0.7818608E-02  0.1169851E+00
         21   -1    0    0  503  502  0.00000000000E+00  0.00000000000E+00  0.24635287536E+03  0.24635287536E+03  0.00000000000E+00 0. -1.
         21   -1    0    0  501  503 -0.00000000000E+00 -0.00000000000E+00 -0.34526387233E+03  0.34526387233E+03  0.00000000000E+00 0. -1.
          6    2    1    2  501    0 -0.45234155044E+01 -0.41475775715E+02 -0.28410593839E+03  0.33534280846E+03  0.17319905803E+03 0.  0.
         24    2    3    3    0    0 -0.19390188025E+02 -0.88644697554E+02 -0.15847560684E+03  0.20024655271E+03  0.82160222213E+02 0.  0.
         -6    2    1    2    0  502  0.45234155044E+01  0.41475775715E+02  0.18519494142E+03  0.25627393922E+03  0.17215825376E+03 0.  0.
        -24    2    5    5    0    0  0.59823122967E+02  0.81868084740E+01  0.64102629262E+02  0.11897262441E+03  0.79996927476E+02 0.  0.
          5    1    3    3  501    0  0.14866772521E+02  0.47168921839E+02 -0.12563033155E+03  0.13509625575E+03  0.47000000000E+01 0. -1.
        -11    1    4    4    0    0 -0.31473921936E+02 -0.16653834491E+02 -0.13783020697E+02  0.38182844640E+02  0.00000000000E+00 0.  1.
         12    1    4    4    0    0  0.12083733910E+02 -0.71990863064E+02 -0.14469258614E+03  0.16206370807E+03  0.00000000000E+00 0. -1.
         -5    1    5    5    0  502 -0.55299707463E+02  0.33288967241E+02  0.12109231216E+03  0.13730131481E+03  0.47000000000E+01 0.  1.
         11    1    6    6    0    0  0.50597544549E+01  0.24854633559E+02  0.55585033115E+02  0.61098689273E+02  0.00000000000E+00 0. -1.
        -12    1    6    6    0    0  0.54763368512E+02 -0.16667825085E+02  0.85175961470E+01  0.57873935135E+02  0.00000000000E+00 0.  1.
</event>
<event>
12    1  0.8417180E-002  0.1811274E+03  0.7818608E-02  0.1167618E+00
         21   -1    0    0  503  502  0.00000000000E+00  0.00000000000E+00  0.38895557837E+02  0.38895557837E+02  0.00000000000E+00 0. -1.
         21   -1    0    0  501  503 -0.00000000000E+00 -0.00000000000E+00 -0.13436258582E+04  0.13436258582E+04  0.00000000000E+00 0. -1.
          6    2    1    2  501    0  0.22569028560E+02 -0.28411505776E+02 -0.10771408557E+04  0.10916535760E+04  0.17366212058E+03 0.  0.
         24    2    3    3    0    0  0.80573242869E+02 -0.15648448370E+02 -0.80142639130E+03  0.80957567820E+03  0.79947461856E+02 0.  0.
         -6    2    1    2    0  502 -0.22569028560E+02  0.28411505776E+02 -0.22758944459E+03  0.29086784003E+03  0.17745582652E+03 0.  0.
        -24    2    5    5    0    0  0.50897150314E+02 -0.55692053162E+00 -0.98869674882E+02  0.13978071856E+03  0.84691242752E+02 0.  0.
          5    1    3    3  501    0 -0.58004214308E+02 -0.12763057406E+02 -0.27571446445E+03  0.28207789779E+03  0.47000000000E+01 0. -1.
        -13    1    4    4    0    0 -0.12454833930E+02  0.81277799792E+01 -0.54128724551E+02  0.56134681946E+02  0.00000000000E+00 0.  1.
         14    1    4    4    0    0  0.93028076799E+02 -0.23776228349E+02 -0.74729766675E+03  0.75344099625E+03  0.00000000000E+00 0. -1.
         -5    1    5    5    0  502 -0.73466178874E+02  0.28968426307E+02 -0.12871976971E+03  0.15108712147E+03  0.47000000000E+01 0.  1.
         11    1    6    6    0    0 -0.91666491888E+01  0.10226888484E+02 -0.71661720664E+02  0.72965874996E+02  0.00000000000E+00 0. -1.
        -12    1    6    6    0    0  0.60063799502E+02 -0.10783809016E+02 -0.27207954218E+02  0.66814843563E+02  0.00000000000E+00 0.  1.
</event>
<event>
12    1  0.8417180E-002  0.1861464E+03  0.7818608E-02  0.1162172E+00
         21   -1    0    0  501  502  0.00000000000E+00  0.00000000000E+00  0.69281488846E+02  0.69281488846E+02  0.00000000000E+00 0. -1.
         21   -1    0    0  502  503 -0.00000000000E+00 -0.00000000000E+00 -0.52833685410E+03  0.52833685410E+03  0.00000000000E+00 0. -1.
         -6    2    1    2    0  503  0.57700152145E+02 -0.40852993395E+02 -0.15741321827E+03  0.24316317750E+03  0.17132172945E+03 0.  0.
        -24    2    3    3    0    0 -0.14887037949E+02 -0.61231014879E+02 -0.54741269124E+02  0.11569638549E+03  0.80113581796E+02 0.  0.
          6    2    1    2  501    0 -0.57700152145E+02  0.40852993395E+02 -0.30164214699E+03  0.35445516544E+03  0.17219815575E+03 0.  0.
         24    2    5    5    0    0  0.14272292987E+02 -0.11339888537E+02 -0.75665673590E+02  0.11157332933E+03  0.79943869305E+02 0.  0.
          5    1    5    5  501    0 -0.71972445132E+02  0.52192881931E+02 -0.22597647340E+03  0.24288183611E+03  0.47000000000E+01 0. -1.
        -11    1    6    6    0    0  0.26939314227E+02  0.26269677240E+02 -0.55514796641E+02  0.67065007563E+02  0.00000000000E+00 0.  1.
         12    1    6    6    0    0 -0.12667021240E+02 -0.37609565777E+02 -0.20150876949E+02  0.44508321770E+02  0.00000000000E+00 0. -1.
         -5    1    3    3    0  503  0.72587190095E+02  0.20378021484E+02 -0.10267194914E+03  0.12746679201E+03  0.47000000000E+01 0.  1.
         11    1    4    4    0    0  0.10874219110E+02 -0.47997672628E+02 -0.67921364963E+02  0.83876915999E+02  0.00000000000E+00 0. -1.
        -12    1    4    4    0    0 -0.25761257059E+02 -0.13233342250E+02  0.13180095839E+02  0.31819469491E+02  0.00000000000E+00 0.  1.
</event>
<event>
12    1  0.8417180E-002  0.2578454E+03  0.7818608E-02  0.1108625E+00
         21   -1    0    0  503  502  0.00000000000E+00  0.00000000000E+00  0.65686124544E+02  0.65686124544E+02  0.00000000000E+00 0. -1.
         21   -1    0    0  501  503 -0.00000000000E+00 -0.00000000000E+00 -0.10767155255E+04  0.10767155255E+04  0.00000000000E+00 0. -1.
          6    2    1    2  501    0  0.16551864994E+03  0.94700360088E+02 -0.65142067910E+03  0.70059483855E+03  0.17355012233E+03 0.  0.
         24    2    3    3    0    0  0.41123106192E+02  0.61216367547E+02 -0.43685023919E+03  0.45027905250E+03  0.80464527104E+02 0.  0.
         -6    2    1    2    0  502 -0.16551864994E+03 -0.94700360088E+02 -0.35960872189E+03  0.44180681153E+03  0.17178545973E+03 0.  0.
        -24    2    5    5    0    0 -0.22680039936E+02 -0.75375587519E+02 -0.17142330193E+03  0.20471577916E+03  0.79540797006E+02 0.  0.
          5    1    3    3  501    0  0.12439554375E+03  0.33483992541E+02 -0.21457043991E+03  0.25031578604E+03  0.47000000000E+01 0. -1.
        -13    1    4    4    0    0  0.55022268560E+02  0.72587864978E+02 -0.37192313325E+03  0.38291417475E+03  0.00000000000E+00 0.  1.
         14    1    4    4    0    0 -0.13899162368E+02 -0.11371497431E+02 -0.64927105941E+02  0.67364877750E+02  0.00000000000E+00 0. -1.
         -5    1    5    5    0  502 -0.14283861001E+03 -0.19324772568E+02 -0.18818541996E+03  0.23709103237E+03  0.47000000000E+01 0.  1.
         11    1    6    6    0    0 -0.14704412222E+02  0.14464421252E+02 -0.44081397367E+02  0.48668355374E+02  0.00000000000E+00 0. -1.
        -12    1    6    6    0    0 -0.79756277138E+01 -0.89840008772E+02 -0.12734190456E+03  0.15604742379E+03  0.00000000000E+00 0.  1.
</event>
<event>
12    1  0.8417180E-002  0.2034857E+03  0.7818608E-02  0.1149948E+00
         21   -1    0    0  503  502  0.00000000000E+00  0.00000000000E+00  0.70186452837E+03  0.70186452837E+03  0.00000000000E+00 0.  1.
         21   -1    0    0  501  503 -0.00000000000E+00 -0.00000000000E+00 -0.90206205803E+02  0.90206205803E+02  0.00000000000E+00 0.  1.
          6    2    1    2  501    0  0.88821878322E+02 -0.88120227023E+01  0.51134967520E+02  0.19575466556E+03  0.16654766997E+03 0.  0.
         24    2    3    3    0    0  0.69045776991E+02 -0.70656184696E+02  0.31301327461E+02  0.12770132006E+03  0.74620629098E+02 0.  0.
         -6    2    1    2    0  502 -0.88821878322E+02  0.88120227023E+01  0.56052335505E+03  0.59631606862E+03  0.18286455184E+03 0.  0.
        -24    2    5    5    0    0 -0.81398708026E+02  0.32283935985E+02  0.55885918720E+03  0.57119847269E+03  0.79221852367E+02 0.  0.
          5    1    3    3  501    0  0.19776101331E+02  0.61844161993E+02  0.19833640059E+02  0.68053345505E+02  0.47000000000E+01 0. -1.
        -11    1    4    4    0    0  0.64272728024E+02 -0.32470699100E+02 -0.82951368788E+01  0.72485441045E+02  0.00000000000E+00 0.  1.
         12    1    4    4    0    0  0.47730489669E+01 -0.38185485596E+02  0.39596464340E+02  0.55215879010E+02  0.00000000000E+00 0. -1.
         -5    1    5    5    0  502 -0.74231702954E+01 -0.23471913283E+02  0.16641678475E+01  0.25117595925E+02  0.47000000000E+01 0.  1.
         11    1    6    6    0    0 -0.15556994653E+02 -0.25898312921E+02  0.14595839186E+03  0.14905232253E+03  0.00000000000E+00 0. -1.
        -12    1    6    6    0    0 -0.65841713373E+02  0.58182248907E+02  0.41290079534E+03  0.42214615017E+03  0.00000000000E+00 0.  1.
</event>
<event>
12    1  0.8417180E-002  0.2315342E+03  0.7818608E-02  0.1125665E+00
         21   -1    0    0  503  502  0.00000000000E+00  0.00000000000E+00  0.10633077607E+04  0.10633077607E+04  0.00000000000E+00 0. -1.
         21   -1    0    0  501  503 -0.00000000000E+00 -0.00000000000E+00 -0.80402238671E+02  0.80402238671E+02  0.00000000000E+00 0. -1.
          6    2    1    2  501    0 -0.92576596498E+02 -0.12356549947E+03  0.14187958815E+03  0.27154724641E+03  0.17253762089E+03 0.  0.
         24    2    3    3    0    0 -0.32301234549E+02  0.11775683190E+00  0.84980390775E+02  0.12258323797E+03  0.82228947432E+02 0.  0.
         -6    2    1    2    0  502  0.92576596498E+02  0.12356549947E+03  0.84102593388E+03  0.87216275296E+03  0.17176841185E+03 0.  0.
        -24    2    5    5    0    0  0.15097652829E+02  0.11385521205E+02  0.18454187558E+03  0.20165492822E+03  0.79066029481E+02 0.  0.
          5    1    3    3  501    0 -0.60275361949E+02 -0.12368325630E+03  0.56899197370E+02  0.14896400844E+03  0.47000000000E+01 0. -1.
        -13    1    4    4    0    0 -0.46749086025E+02 -0.26229908844E+02  0.34222686918E+02  0.63597778751E+02  0.00000000000E+00 0.  1.
         14    1    4    4    0    0  0.14447851476E+02  0.26347665676E+02  0.50757703857E+02  0.58985459222E+02  0.00000000000E+00 0. -1.
         -5    1    5    5    0  502  0.77478943669E+02  0.11217997827E+03  0.65648405830E+03  0.67050782474E+03  0.47000000000E+01 0.  1.
         11    1    6    6    0    0  0.36535300392E+02 -0.81313469314E+01  0.15791988329E+03  0.16229490600E+03  0.00000000000E+00 0. -1.
        -12    1    6    6    0    0 -0.21437647564E+02  0.19516868137E+02  0.26621992291E+02  0.39360022211E+02  0.00000000000E+00 0.  1.
</event>
<event>
12    1  0.8417180E-002  0.2041219E+03  0.7818608E-02  0.1146633E+00
         21   -1    0    0  501  502  0.00000000000E+00  0.00000000000E+00  0.10674398007E+03  0.10674398007E+03  0.00000000000E+00 0. -1.
         21   -1    0    0  502  503 -0.00000000000E+00 -0.00000000000E+00 -0.78495577985E+03  0.78495577985E+03  0.00000000000E+00 0.  1.
         -6    2    1    2    0  503  0.62301795968E+00 -0.10957697328E+03 -0.65708073123E+03  0.68805583738E+03  0.17221569841E+03 0.  0.
        -24    2    3    3    0    0  0.65867727871E+02 -0.81338345440E+02 -0.38402661067E+03  0.40585921261E+03  0.79314429647E+02 0.  0.
          6    2    1    2  501    0 -0.62301795968E+00  0.10957697328E+03 -0.21131068558E+02  0.20364392254E+03  0.17034325318E+03 0.  0.
         24    2    5    5    0    0  0.55308783323E+02  0.55547147539E+02  0.22719852974E+02  0.11424268215E+03  0.79941551103E+02 0.  0.
          5    1    5    5  501    0 -0.55931801283E+02  0.54029825738E+02 -0.43850921532E+02  0.89401240390E+02  0.47000000000E+01 0. -1.
        -11    1    6    6    0    0  0.27010789470E+02  0.67858287150E+02 -0.43869410631E+01  0.73168129227E+02  0.00000000000E+00 0.  1.
         12    1    6    6    0    0  0.28297993854E+02 -0.12311139611E+02  0.27106794037E+02  0.41074552921E+02  0.00000000000E+00 0. -1.
         -5    1    3    3    0  503 -0.65244709912E+02 -0.28238627838E+02 -0.27305412056E+03  0.28219662477E+03  0.47000000000E+01 0.  1.
         11    1    4    4    0    0 -0.84032414665E+01  0.61379814592E+01 -0.93019893635E+01  0.13957660608E+02  0.00000000000E+00 0. -1.
        -12    1    4    4    0    0  0.74270969338E+02 -0.87476326899E+02 -0.37472462130E+03  0.39190155201E+03  0.00000000000E+00 0.  1.
</event>
<event>
12    1  0.8417180E-002  0.2018154E+03  0.7818608E-02  0.1148623E+00
         21   -1    0    0  501  502  0.00000000000E+00  0.00000000000E+00  0.28954366884E+03  0.28954366884E+03  0.00000000000E+00 0. -1.
         21   -1    0    0  502  503 -0.00000000000E+00 -0.00000000000E+00 -0.95911845067E+03  0.95911845067E+03  0.00000000000E+00 0. -1.
         -6    2    1    2    0  503 -0.39797214701E+02 -0.10270784071E+03 -0.91222981466E+03  0.93428726782E+03  0.16910572200E+03 0.  0.
        -24    2    3    3    0    0  0.22571451416E+02 -0.55742393310E+02 -0.71559118324E+03  0.72266391105E+03  0.80967289539E+02 0.  0.
          6    2    1    2  501    0  0.39797214701E+02  0.10270784071E+03  0.24265503283E+03  0.31437485169E+03  0.16678538179E+03 0.  0.
         24    2    5    5    0    0 -0.39890197449E+02  0.62425720507E+02  0.10612881883E+03  0.15117488241E+03  0.78117350527E+02 0.  0.
          5    1    5    5  501    0  0.79687412150E+02  0.40282120199E+02  0.13652621400E+03  0.16319996928E+03  0.47000000000E+01 0. -1.
        -13    1    6    6    0    0 -0.37461460283E+02  0.77850839138E+02  0.67913778463E+02  0.10989265429E+03  0.00000000000E+00 0.  1.
         14    1    6    6    0    0 -0.24287371656E+01 -0.15425118631E+02  0.38215040364E+02  0.41282228125E+02  0.00000000000E+00 0. -1.
         -5    1    3    3    0  503 -0.62368666117E+02 -0.46965447397E+02 -0.19663863142E+03  0.21162335676E+03  0.47000000000E+01 0.  1.
         11    1    4    4    0    0  0.39601031501E+02 -0.61229162326E+02 -0.40180797076E+03  0.40837102906E+03  0.00000000000E+00 0. -1.
        -12    1    4    4    0    0 -0.17029580084E+02  0.54867690168E+01 -0.31378321248E+03  0.31429288199E+03  0.00000000000E+00 0.  1.
</event>
<event>
12    1  0.8417180E-002  0.2289856E+03  0.7818608E-02  0.1128961E+00
         21   -1    0    0  501  502  0.00000000000E+00  0.00000000000E+00  0.44125353442E+02  0.44125353442E+02  0.00000000000E+00 0.  1.
         21   -1    0    0  502  503 -0.00000000000E+00 -0.00000000000E+00 -0.11546756309E+04  0.11546756309E+04  0.00000000000E+00 0. -1.
         -6    2    1    2    0  503 -0.89313378461E+02 -0.11873958684E+03 -0.62726176929E+03  0.66775125571E+03  0.17423674475E+03 0.  0.
        -24    2    3    3    0    0  0.15018478649E+02 -0.87774639291E+02 -0.34013360783E+03  0.36065414485E+03  0.80315621297E+02 0.  0.
          6    2    1    2  501    0  0.89313378461E+02  0.11873958684E+03 -0.48328850812E+03  0.53104972859E+03  0.16238861753E+03 0.  0.
         24    2    5    5    0    0  0.45272751257E+02  0.34279255983E+00 -0.24867699033E+03  0.26455013756E+03  0.78081945736E+02 0.  0.
          5    1    5    5  501    0  0.44040627205E+02  0.11839679428E+03 -0.23461151779E+03  0.26649959103E+03  0.47000000000E+01 0. -1.
        -13    1    6    6    0    0  0.58987423884E+02  0.19378388891E+02 -0.21288058308E+03  0.22175026671E+03  0.00000000000E+00 0.  1.
         14    1    6    6    0    0 -0.13714672627E+02 -0.19035596331E+02 -0.35796407256E+02  0.42799870857E+02  0.00000000000E+00 0. -1.
         -5    1    3    3    0  503 -0.10433185711E+03 -0.30964947553E+02 -0.28712816147E+03  0.30709711085E+03  0.47000000000E+01 0.  1.
         13    1    4    4    0    0  0.39321355954E+01 -0.99203174125E+02 -0.24764063833E+03  0.26680070690E+03  0.00000000000E+00 0. -1.
        -14    1    4    4    0    0  0.11086343054E+02  0.11428534834E+02 -0.92492969494E+02  0.93853437958E+02  0.00000000000E+00 0.  1.
</event>
<event>
12    1  0.8417180E-002  0.2033973E+03  0.7818608E-02  0.1147002E+00
         21   -1    0    0  503  502  0.00000000000E+00  0.00000000000E+00  0.96169063896E+03  0.96169063896E+03  0.00000000000E+00 0.  1.
         21   -1    0    0  501  503 -0.00000000000E+00 -0.00000000000E+00 -0.63572906341E+02  0.63572906341E+02  0.00000000000E+00 0. -1.
          6    2    1    2  501    0  0.47629645978E+02 -0.98373863412E+02  0.15650034574E+03  0.25625976993E+03  0.17096991341E+03 0.  0.
         24    2    3    3    0    0  0.64437671969E+02  0.46819405571E-01  0.72522793805E+02  0.12570916759E+03  0.79943876769E+02 0.  0.
         -6    2    1    2    0  502 -0.47629645978E+02  0.98373863412E+02  0.74161738687E+03  0.76900377537E+03  0.17153558766E+03 0.  0.
        -24    2    5    5    0    0  0.23372194608E+02  0.29960968338E+02  0.50374086743E+03  0.51145977120E+03  0.79951966407E+02 0.  0.
          5    1    3    3  501    0 -0.16808025990E+02 -0.98420682818E+02  0.83977551938E+02  0.13055060235E+03  0.47000000000E+01 0. -1.
        -11    1    4    4    0    0  0.25434495908E+02  0.27361647864E+01 -0.15138433180E+02  0.29724944726E+02  0.00000000000E+00 0.  1.
         12    1    4    4    0    0  0.39003176060E+02 -0.26893453809E+01  0.87661226984E+02  0.95984222859E+02  0.00000000000E+00 0. -1.
         -5    1    5    5    0  502 -0.71001840586E+02  0.68412895074E+02  0.23787651944E+03  0.25754400416E+03  0.47000000000E+01 0.  1.
         11    1    6    6    0    0  0.46590210197E+02  0.17380886598E+02  0.18306787908E+03  0.18970132118E+03  0.00000000000E+00 0. -1.
        -12    1    6    6    0    0 -0.23218015589E+02  0.12580081740E+02  0.32067298835E+03  0.32175845002E+03  0.00000000000E+00 0.  1.
</event>
<event>
12    1  0.8417180E-002  0.1742013E+03  0.7818608E-02  0.1174024E+00
         21   -1    0    0  503  502  0.00000000000E+00  0.00000000000E+00  0.33157287853E+03  0.33157287853E+03  0.00000000000E+00 0.  1.
         21   -1    0    0  501  503 -0.00000000000E+00 -0.00000000000E+00 -0.11111382722E+03  0.11111382722E+03  0.00000000000E+00 0.  1.
          6    2    1    2  501    0 -0.65520599429E+01  0.47073464200E+01  0.15425242068E+02  0.17488291599E+03  0.17401438909E+03 0.  0.
         24    2    3    3    0    0  0.18728329722E+02  0.50604479958E+02  0.51495790378E+02  0.11109561769E+03  0.82333809079E+02 0.  0.
         -6    2    1    2    0  502  0.65520599429E+01 -0.47073464200E+01  0.20503380924E+03  0.26780378977E+03  0.17208985526E+03 0.  0.
        -24    2    5    5    0    0 -0.30099300826E+02 -0.39783586719E+01  0.33726898632E+02  0.92555390942E+02  0.80667226636E+02 0.  0.
          5    1    3    3  501    0 -0.25280389665E+02 -0.45897133538E+02 -0.36070548311E+02  0.63787298297E+02  0.47000000000E+01 0. -1.
        -11    1    4    4    0    0 -0.23233789940E+02  0.50588499763E+02  0.22265485566E+02  0.59956293670E+02  0.00000000000E+00 0.  1.
         12    1    4    4    0    0  0.41962119662E+02  0.15980195021E-01  0.29230304813E+02  0.51139324021E+02  0.00000000000E+00 0. -1.
         -5    1    5    5    0  502  0.36651360769E+02 -0.72898774816E+00  0.17130691060E+03  0.17524839882E+03  0.47000000000E+01 0.  1.
         11    1    6    6    0    0 -0.48852081950E+02 -0.97009798821E+01  0.47317466401E+02  0.68699181568E+02  0.00000000000E+00 0. -1.
        -12    1    6    6    0    0  0.18752781124E+02  0.57226212102E+01 -0.13590567769E+02  0.23856209374E+02  0.00000000000E+00 0.  1.
</event>
<event>
12    1  0.8417180E-002  0.1801249E+03  0.7818608E-02  0.1168056E+00
         21   -1    0    0  501  502  0.00000000000E+00  0.00000000000E+00  0.48368125568E+02  0.48368125568E+02  0.00000000000E+00 0. -1.
         21   -1    0    0  502  503 -0.00000000000E+00 -0.00000000000E+00 -0.15216329709E+04  0.15216329709E+04  0.00000000000E+00 0. -1.
         -6    2    1    2    0  503  0.44495630364E+02 -0.24850809504E+02 -0.13269846408E+04  0.13391539183E+04  0.17276445225E+03 0.  0.
        -24    2    3    3    0    0  0.26210694298E+02  0.49223905008E+02 -0.56163376041E+03  0.56999498647E+03  0.79698246160E+02 0.  0.
          6    2    1    2  501    0 -0.44495630364E+02  0.24850809504E+02 -0.14628020454E+03  0.23084717824E+03  0.17115810704E+03 0.  0.
         24    2    5    5    0    0 -0.64842853781E+02 -0.30417966163E+02 -0.51187327672E+02  0.11889454408E+03  0.79911962465E+02 0.  0.
          5    1    5    5  501    0  0.20347223417E+02  0.55268775668E+02 -0.95092876865E+02  0.11195263416E+03  0.47000000000E+01 0. -1.
        -11    1    6    6    0    0 -0.80285718467E+02 -0.28090277024E+02 -0.56822113966E+02  0.10229180265E+03  0.00000000000E+00 0.  1.
         12    1    6    6    0    0  0.15442864686E+02 -0.23276891392E+01  0.56347862942E+01  0.16602741431E+02  0.00000000000E+00 0. -1.
         -5    1    3    3    0  503  0.18284936066E+02 -0.74074714512E+02 -0.76535088042E+03  0.76915893180E+03  0.47000000000E+01 0.  1.
         13    1    4    4    0    0  0.42696369244E+02  0.20950567117E+00 -0.32388848361E+03  0.32669063907E+03  0.00000000000E+00 0. -1.
        -14    1    4    4    0    0 -0.16485674946E+02  0.49014399336E+02 -0.23774527680E+03  0.24330434740E+03  0.00000000000E+00 0.  1.
</event>
<event>
12    1  0.8417180E-002  0.2424166E+03  0.7818608E-02  0.1118235E+00
         21   -1    0    0  503  502  0.00000000000E+00  0.00000000000E+00  0.68519462699E+03  0.68519462699E+03  0.00000000000E+00 0. -1.
         21   -1    0    0  501  503 -0.00000000000E+00 -0.00000000000E+00 -0.96878266664E+02  0.96878266664E+02  0.00000000000E+00 0.  1.
          6    2    1    2  501    0  0.15988224918E+03 -0.55097737801E+02  0.16131901870E+03  0.29118661175E+03  0.17368857981E+03 0.  0.
         24    2    3    3    0    0  0.15468350690E+03 -0.96969754538E+02  0.12947233359E+03  0.23811501804E+03  0.81274571968E+02 0.  0.
         -6    2    1    2    0  502 -0.15988224918E+03  0.55097737801E+02  0.42699734162E+03  0.49088628190E+03  0.17333354462E+03 0.  0.
        -24    2    5    5    0    0 -0.13211635524E+03  0.97839917032E+02  0.37908857596E+03  0.42077794731E+03  0.79489318977E+02 0.  0.
          5    1    3    3  501    0  0.51987422874E+01  0.41872016737E+02  0.31846685109E+02  0.53071593715E+02  0.47000000000E+01 0. -1.
        -11    1    4    4    0    0  0.92632743441E+02 -0.16346608410E+02  0.38504875896E+02  0.10163986537E+03  0.00000000000E+00 0.  1.
         12    1    4    4    0    0  0.62050763456E+02 -0.80623146128E+02  0.90967457698E+02  0.13647515267E+03  0.00000000000E+00 0. -1.
         -5    1    5    5    0  502 -0.27765893943E+02 -0.42742179231E+02  0.47908765669E+02  0.70108334596E+02  0.47000000000E+01 0.  1.
         11    1    6    6    0    0 -0.26339927135E+02 -0.12717176395E+02  0.51741980803E+02  0.59436949067E+02  0.00000000000E+00 0. -1.
        -12    1    6    6    0    0 -0.10577642811E+03  0.11055709343E+03  0.32734659515E+03  0.36134099824E+03  0.00000000000E+00 0.  1.
</event>
<event>
12    1  0.8417180E-002  0.2421930E+03  0.7818608E-02  0.1118399E+00
         21   -1    0    0  501  502  0.00000000000E+00  0.00000000000E+00  0.23748499899E+03  0.23748499899E+03  0.00000000000E+00 0. -1.
         21   -1    0    0  502  503 -0.00000000000E+00 -0.00000000000E+00 -0.25219057893E+03  0.25219057893E+03  0.00000000000E+00 0. -1.
         -6    2    1    2    0  503  0.74815012211E+00 -0.17056729941E+03 -0.43696038504E+02  0.24575364399E+03  0.17144021231E+03 0.  0.
        -24    2    3    3    0    0 -0.72728899879E+02 -0.89065578086E+02 -0.33486710335E+02  0.13544621978E+03  0.63262537139E+02 0.  0.
          6    2    1    2  501    0 -0.74815012211E+00  0.17056729941E+03  0.28990458560E+02  0.24392193393E+03  0.17194097770E+03 0.  0.
         24    2    5    5    0    0 -0.72946077143E+01  0.15332540921E+02  0.35263826510E+02  0.88351591341E+02  0.79209646632E+02 0.  0.
          5    1    5    5  501    0  0.65464575922E+01  0.15523475848E+03 -0.62733679501E+01  0.15557034259E+03  0.47000000000E+01 0. -1.
        -11    1    6    6    0    0 -0.25816736259E+02  0.26534875447E+02 -0.98532880910E+01  0.38310452519E+02  0.00000000000E+00 0.  1.
         12    1    6    6    0    0  0.18522128544E+02 -0.11202334526E+02  0.45117114601E+02  0.50041138822E+02  0.00000000000E+00 0. -1.
         -5    1    3    3    0  503  0.73477050001E+02 -0.81501721320E+02 -0.10209328168E+02  0.11030742421E+03  0.47000000000E+01 0.  1.
         13    1    4    4    0    0 -0.15060110510E+02 -0.66373103383E+02 -0.83539636362E+01  0.68571017855E+02  0.00000000000E+00 0. -1.
        -14    1    4    4    0    0 -0.57668789369E+02 -0.22692474703E+02 -0.25132746699E+02  0.66875201921E+02  0.00000000000E+00 0.  1.
</event>
<event>
12    1  0.8417180E-002  0.1942894E+03  0.7818608E-02  0.1154722E+00
         21   -1    0    0  503  502  0.00000000000E+00  0.00000000000E+00  0.19865996571E+03  0.19865996571E+03  0.00000000000E+00 0. -1.
         21   -1    0    0  501  503 -0.00000000000E+00 -0.00000000000E+00 -0.30147910803E+03  0.30147910803E+03  0.00000000000E+00 0.  1.
          6    2    1    2  501    0 -0.55765029206E+02  0.72378548273E+02 -0.20371496134E+03  0.28151047516E+03  0.17146419282E+03 0.  0.
         24    2    3    3    0    0  0.14927979630E+02  0.89648854540E+02 -0.12226190312E+03  0.17218318821E+03  0.80245346618E+02 0.  0.
         -6    2    1    2    0  502  0.55765029206E+02 -0.72378548273E+02  0.10089581903E+03  0.21862859858E+03  0.17108508143E+03 0.  0.
        -24    2    5    5    0    0  0.12877560521E+02 -0.84878293336E+02  0.12370843715E+03  0.16824919661E+03  0.75059033388E+02 0.  0.
          5    1    3    3  501    0 -0.70693008836E+02 -0.17270306267E+02 -0.81453058227E+02  0.10932728695E+03  0.47000000000E+01 0. -1.
        -11    1    4    4    0    0 -0.15515455599E+02  0.21974705013E+02 -0.84983704158E+02  0.89139480564E+02  0.00000000000E+00 0.  1.
         12    1    4    4    0    0  0.30443435229E+02  0.67674149527E+02 -0.37278198959E+02  0.83043707651E+02  0.00000000000E+00 0. -1.
         -5    1    5    5    0  502  0.42887468685E+02  0.12499745063E+02 -0.22812618124E+02  0.50379401967E+02  0.47000000000E+01 0.  1.
         13    1    6    6    0    0  0.37124170223E+02 -0.50343492609E+02  0.10471498474E+03  0.12197499453E+03  0.00000000000E+00 0. -1.
        -14    1    6    6    0    0 -0.24246609702E+02 -0.34534800727E+02  0.18993452415E+02  0.46274202078E+02  0.00000000000E+00 0.  1.
</event>
<event>
12    1  0.8417180E-002  0.2100931E+03  0.7818608E-02  0.1141581E+00
         21   -1    0    0  503  502  0.00000000000E+00  0.00000000000E+00  0.38731531466E+02  0.38731531466E+02  0.00000000000E+00 0. -1.
         21   -1    0    0  501  503 -0.00000000000E+00 -0.00000000000E+00 -0.11419646941E+04  0.11419646941E+04  0.00000000000E+00 0. -1.
          6    2    1    2  501    0  0.53292451553E+02  0.10880683304E+03 -0.51289860477E+03  0.55409108440E+03  0.17109336259E+03 0.  0.
         24    2    3    3    0    0  0.54838083438E+02  0.30141105175E+01 -0.31301771398E+03  0.32788553711E+03  0.80700284554E+02 0.  0.
         -6    2    1    2    0  502 -0.53292451553E+02 -0.10880683304E+03 -0.59033455790E+03  0.62660514121E+03  0.17163944893E+03 0.  0.
        -24    2    5    5    0    0 -0.39577641955E+02  0.10000160689E+02 -0.26117419435E+03  0.27635975195E+03  0.80599998440E+02 0.  0.
          5    1    3    3  501    0 -0.15456318855E+01  0.10579272252E+03 -0.19988089080E+03  0.22620554729E+03  0.47000000000E+01 0. -1.
        -11    1    4    4    0    0  0.37459521407E+02 -0.25839674636E+02 -0.26704059936E+03  0.27089035833E+03  0.00000000000E+00 0.  1.
         12    1    4    4    0    0  0.17378562031E+02  0.28853785154E+02 -0.45977114613E+02  0.56995178780E+02  0.00000000000E+00 0. -1.
         -5    1    5    5    0  502 -0.13714809598E+02 -0.11880699373E+03 -0.32916036355E+03  0.35024538926E+03  0.47000000000E+01 0.  1.
         13    1    6    6    0    0 -0.13042272682E+02  0.26660914103E+02 -0.27078283717E+02  0.40176344614E+02  0.00000000000E+00 0. -1.
        -14    1    6    6    0    0 -0.26535369273E+02 -0.16660753414E+02 -0.23409591063E+03  0.23618340734E+03  0.00000000000E+00 0.  1.
</event>
<event>
12    1  0.8417180E-002  0.1996847E+03  0.7818608E-02  0.1150425E+00
         21   -1    0    0  503  502  0.00000000000E+00  0.00000000000E+00  0.36606862763E+03  0.36606862763E+03  0.00000000000E+00 0. -1.
         21   -1    0    0  501  503 -0.00000000000E+00 -0.00000000000E+00 -0.12072926569E+03  0.12072926569E+03  0.00000000000E+00 0.  1.
          6    2    1    2  501    0 -0.77073207675E+02 -0.70439639759E+02  0.20271221848E+03  0.28454560845E+03  0.17021144960E+03 0.  0.
         24    2    3    3    0    0 -0.65448159658E+02 -0.10460493553E+03  0.10826384692E+03  0.18332805036E+03  0.81623889624E+02 0.  0.
         -6    2    1    2    0  502  0.77073207675E+02  0.70439639759E+02  0.42627143465E+02  0.20225228487E+03  0.16788952077E+03 0.  0.
        -24    2    5    5    0    0 -0.15532517595E+02  0.52261544892E+01  0.25361108614E+02  0.87583958933E+02  0.82214306776E+02 0.  0.
          5    1    3    3  501    0 -0.11625048017E+02  0.34165295771E+02  0.94448371555E+02  0.10121755809E+03  0.47000000000E+01 0. -1.
        -11    1    4    4    0    0  0.42333450903E+01 -0.25522406067E+02 -0.73348498205E+01  0.26890787344E+02  0.00000000000E+00 0.  1.
         12    1    4    4    0    0 -0.69681504748E+02 -0.79082529464E+02  0.11559869675E+03  0.15643726302E+03  0.00000000000E+00 0. -1.
         -5    1    5    5    0  502  0.92605725269E+02  0.65213485270E+02  0.17266034852E+02  0.11466832594E+03  0.47000000000E+01 0.  1.
         13    1    6    6    0    0  0.27622748080E+02 -0.13225213929E+02  0.26700522682E+02  0.40630535395E+02  0.00000000000E+00 0. -1.
        -14    1    6    6    0    0 -0.43155265674E+02  0.18451368418E+02 -0.13394140685E+01  0.46953423538E+02  0.00000000000E+00 0.  1.
</event>
<event>
12    1  0.8417180E-002  0.1744345E+03  0.7818608E-02  0.1173772E+00
         21   -1    0    0  503  502  0.00000000000E+00  0.00000000000E+00  0.60899281042E+03  0.60899281042E+03  0.00000000000E+00 0. -1.
         21   -1    0    0  501  503 -0.00000000000E+00 -0.00000000000E+00 -0.66469839130E+02  0.66469839130E+02  0.00000000000E+00 0. -1.
          6    2    1    2  501    0  0.15134991411E+02  0.56329063772E+00  0.99198233398E+02  0.19905503730E+03  0.17191053809E+03 0.  0.
         24    2    3    3    0    0  0.44180265963E+02  0.57352226507E+02  0.63051782081E+02  0.12558894204E+03  0.80968397245E+02 0.  0.
         -6    2    1    2    0  502 -0.15134991411E+02 -0.56329063772E+00  0.44332473789E+03  0.47640761225E+03  0.17377573052E+03 0.  0.
        -24    2    5    5    0    0 -0.80916745773E+01 -0.61118052421E+02  0.35514388392E+03  0.36910225127E+03  0.79425449824E+02 0.  0.
          5    1    3    3  501    0 -0.29045274553E+02 -0.56788935869E+02  0.36146451317E+02  0.73466095267E+02  0.47000000000E+01 0. -1.
        -11    1    4    4    0    0 -0.10859876424E+02  0.44431950653E+02  0.49607326632E+02  0.67476084729E+02  0.00000000000E+00 0.  1.
         12    1    4    4    0    0  0.55040142387E+02  0.12920275854E+02  0.13444455449E+02  0.58112857307E+02  0.00000000000E+00 0. -1.
         -5    1    5    5    0  502 -0.70433168332E+01  0.60554761783E+02  0.88180853976E+02  0.10730536098E+03  0.47000000000E+01 0.  1.
         13    1    6    6    0    0  0.34179938229E+02 -0.13368784605E+02  0.12309584975E+03  0.12845069406E+03  0.00000000000E+00 0. -1.
        -14    1    6    6    0    0 -0.42271612806E+02 -0.47749267816E+02  0.23204803417E+03  0.24065155721E+03  0.00000000000E+00 0.  1.
</event>
<event>
12    1  0.8417180E-002  0.2152376E+03  0.7818608E-02  0.1137649E+00
         21   -1    0    0  501  502  0.00000000000E+00  0.00000000000E+00  0.37700502679E+03  0.37700502679E+03  0.00000000000E+00 0.  1.
         21   -1    0    0  502  503 -0.00000000000E+00 -0.00000000000E+00 -0.13334231196E+03  0.13334231196E+03  0.00000000000E+00 0.  1.
         -6    2    1    2    0  503  0.93357392299E+02  0.89032111244E+02  0.48488467992E+02  0.21979575346E+03  0.17122126673E+03 0.  0.
        -24    2    3    3    0    0  0.92439681651E+02  0.29102168048E+02  0.84227518958E+02  0.14985427758E+03  0.77265766223E+02 0.  0.
          6    2    1    2  501    0 -0.93357392299E+02 -0.89032111244E+02  0.19517424684E+03  0.29055158530E+03  0.17229311524E+03 0.  0.
         24    2    5    5    0    0 -0.26404681968E+02 -0.11344909362E+03  0.10803416821E+03  0.17788243356E+03  0.80017964210E+02 0.  0.
          5    1    5    5  501    0 -0.66952710330E+02  0.24416982376E+02  0.87140078628E+02  0.11266915173E+03  0.47000000000E+01 0. -1.
        -11    1    6    6    0    0  0.22665102461E+02 -0.68237758206E+02  0.38693901551E+02  0.81653637591E+02  0.00000000000E+00 0.  1.
         12    1    6    6    0    0 -0.49069784429E+02 -0.45211335414E+02  0.69340266662E+02  0.96228795974E+02  0.00000000000E+00 0. -1.
         -5    1    3    3    0  503  0.91771064771E+00  0.59929943196E+02 -0.35739050966E+02  0.69941475880E+02  0.47000000000E+01 0.  1.
         11    1    4    4    0    0  0.92431715381E+02  0.63687939593E+01  0.41637721480E+02  0.10157698260E+03  0.00000000000E+00 0. -1.
        -12    1    4    4    0    0  0.79662698039E-02  0.22733374088E+02  0.42589797478E+02  0.48277294975E+02  0.00000000000E+00 0.  1.
</event>
<event>
12    1  0.8417180E-002  0.2053150E+03  0.7818608E-02  0.1147238E+00
         21   -1    0    0  503  502  0.00000000000E+00  0.00000000000E+00  0.16914707159E+03  0.16914707159E+03  0.00000000000E+00 0.  1.
         21   -1    0    0  501  503 -0.00000000000E+00 -0.00000000000E+00 -0.25208093763E+03  0.25208093763E+03  0.00000000000E+00 0.  1.
          6    2    1    2  501    0 -0.10651896250E+03 -0.20008375679E+02 -0.91664978997E+02  0.22484817039E+03  0.17437777061E+03 0.  0.
         24    2    3    3    0    0 -0.80186399333E+02  0.40352381604E+02 -0.10966571857E+02  0.12058337375E+03  0.79761588425E+02 0.  0.
         -6    2    1    2    0  502  0.10651896250E+03  0.20008375679E+02  0.87311129518E+01  0.19637983884E+03  0.16353037730E+03 0.  0.
        -24    2    5    5    0    0  0.12698730636E+03  0.45165173752E+01 -0.26454724634E+02  0.15257248853E+03  0.80201850948E+02 0.  0.
          5    1    3    3  501    0 -0.26332563164E+02 -0.60360757283E+02 -0.80698407140E+02  0.10426479664E+03  0.47000000000E+01 0. -1.
        -11    1    4    4    0    0 -0.25391513170E+02 -0.21962397489E+02  0.99363265630E+01  0.35011518534E+02  0.00000000000E+00 0.  1.
         12    1    4    4    0    0 -0.54794886163E+02  0.62314779093E+02 -0.20902898420E+02  0.85571855218E+02  0.00000000000E+00 0. -1.
         -5    1    5    5    0  502 -0.20468343862E+02  0.15491858304E+02  0.35185837586E+02  0.43807350306E+02  0.47000000000E+01 0.  1.
         11    1    6    6    0    0  0.57232574447E+02 -0.10703278700E+02 -0.50666457684E+02  0.77183014239E+02  0.00000000000E+00 0. -1.
        -12    1    6    6    0    0  0.69754731912E+02  0.15219796075E+02  0.24211733050E+02  0.75389474292E+02  0.00000000000E+00 0.  1.
</event>
<event>
12    1  0.8417180E-002  0.1944030E+03  0.7818608E-02  0.1155903E+00
         21   -1    0    0  503  502  0.00000000000E+00  0.00000000000E+00  0.82907112362E+03  0.82907112362E+03  0.00000000000E+00 0. -1.
         21   -1    0    0  501  503 -0.00000000000E+00 -0.00000000000E+00 -0.63199305138E+02  0.63199305138E+02  0.00000000000E+00 0. -1.
          6    2    1    2  501    0 -0.83939676215E+02 -0.28984400980E+02  0.14239898080E+03  0.24097716547E+03  0.17293513177E+03 0.  0.
         24    2    3    3    0    0 -0.94459178760E+02 -0.33843975091E+02  0.16840676264E+03  0.21211940897E+03  0.81029962704E+02 0.  0.
         -6    2    1    2    0  502  0.83939676215E+02  0.28984400980E+02  0.62347283768E+03  0.65129326329E+03  0.16606797024E+03 0.  0.
        -24    2    5    5    0    0  0.12001950815E+03  0.65326555709E+01  0.44217580948E+03  0.46502319704E+03  0.79244995916E+02 0.  0.
          5    1    3    3  501    0  0.10519502545E+02  0.48595741109E+01 -0.26007781836E+02  0.28857756503E+02  0.47000000000E+01 0. -1.
        -11    1    4    4    0    0 -0.59446444876E+01 -0.41690006927E+01  0.89753279522E+02  0.90046491047E+02  0.00000000000E+00 0.  1.
         12    1    4    4    0    0 -0.88514534273E+02 -0.29674974398E+02  0.78653483116E+02  0.12207291792E+03  0.00000000000E+00 0. -1.
         -5    1    5    5    0  502 -0.36079831931E+02  0.22451745409E+02  0.18129702820E+03  0.18627006624E+03  0.47000000000E+01 0.  1.
         13    1    6    6    0    0  0.40371709830E+02 -0.39057358013E+01  0.29116428369E+03  0.29397579803E+03  0.00000000000E+00 0. -1.
        -14    1    6    6    0    0  0.79647798316E+02  0.10438391372E+02  0.15101152578E+03  0.17104739902E+03  0.00000000000E+00 0.  1.
</event>
<event>
12    1  0.8417180E-002  0.1881581E+03  0.7818608E-02  0.1160277E+00
         21   -1    0    0  503  502  0.00000000000E+00  0.00000000000E+00  0.38710831043E+02  0.38710831043E+02  0.00000000000E+00 0.  1.
         21   -1    0    0  501  503 -0.00000000000E+00 -0.00000000000E+00 -0.16684048454E+04  0.16684048454E+04  0.00000000000E+00 0.  1.
          6    2    1    2  501    0 -0.15581151976E+02 -0.72619418949E+02 -0.13905028115E+04  0.14031755260E+04  0.17287896241E+03 0.  0.
         24    2    3    3    0    0 -0.15939801798E+02 -0.74345121238E+02 -0.47093079504E+03  0.48358980941E+03  0.79385236141E+02 0.  0.
         -6    2    1    2    0  502  0.15581151976E+02  0.72619418949E+02 -0.23919120290E+03  0.30394015049E+03  0.17219416724E+03 0.  0.
        -24    2    5    5    0    0 -0.10304805413E+02  0.65995176815E+01 -0.21249669157E+03  0.22802310966E+03  0.81792126532E+02 0.  0.
          5    1    3    3  501    0  0.35864982160E+00  0.17257022897E+01 -0.91957201645E+03  0.91958571657E+03  0.47000000000E+01 0. -1.
        -11    1    4    4    0    0 -0.22840718970E+02 -0.72834016605E+02 -0.47034781148E+03  0.47650137059E+03  0.00000000000E+00 0.  1.
         12    1    4    4    0    0  0.69009171725E+01 -0.15111046334E+01 -0.58298356340E+00  0.70884388176E+01  0.00000000000E+00 0. -1.
         -5    1    5    5    0  502  0.25885957389E+02  0.66019901267E+02 -0.26694511323E+02  0.75917040828E+02  0.47000000000E+01 0.  1.
         13    1    6    6    0    0  0.20602667383E+02 -0.28811307435E+02 -0.82128453984E+02  0.89440730616E+02  0.00000000000E+00 0. -1.
        -14    1    6    6    0    0 -0.30907472796E+02  0.35410825116E+02 -0.13036823759E+03  0.13858237905E+03  0.00000000000E+00 0.  1.
</event>
<event>
12    1  0.8417180E-002  0.2424586E+03  0.7818608E-02  0.1118355E+00
         21   -1    0    0  503  502  0.00000000000E+00  0.00000000000E+00  0.11799113132E+03  0.11799113132E+03  0.00000000000E+00 0.  1.
         21   -1    0    0  501  503 -0.00000000000E+00 -0.00000000000E+00 -0.50729596276E+03  0.50729596276E+03  0.00000000000E+00 0. -1.
          6    2    1    2  501    0 -0.13800269754E+03  0.10058468649E+03 -0.24201657109E+03  0.34257582552E+03  0.17211668096E+03 0.  0.
         24    2    3    3    0    0 -0.38408781907E+02  0.11220770611E+03 -0.14208013205E+03  0.20093040744E+03  0.78233374407E+02 0.  0.
         -6    2    1    2    0  502  0.13800269754E+03 -0.10058468649E+03 -0.14728826035E+03  0.28271126856E+03  0.17049869808E+03 0.  0.
        -24    2    5    5    0    0  0.12081754273E+03 -0.99227573705E+01 -0.71307071454E+02  0.16308624608E+03  0.82565643435E+02 0.  0.
          5    1    3    3  501    0 -0.99593915638E+02 -0.11623019616E+02 -0.99936439038E+02  0.14164541809E+03  0.47000000000E+01 0. -1.
        -11    1    4    4    0    0 -0.30096371367E+02  0.12214519446E+03 -0.11301421182E+03  0.16910781228E+03  0.00000000000E+00 0.  1.
         12    1    4    4    0    0 -0.83124105399E+01 -0.99374883551E+01 -0.29065920228E+02  0.31822595156E+02  0.00000000000E+00 0. -1.
         -5    1    5    5    0  502  0.17185154817E+02 -0.90661929122E+02 -0.75981188900E+02  0.11962502249E+03  0.47000000000E+01 0.  1.
         13    1    6    6    0    0  0.84981318081E+02 -0.10109775561E+02 -0.88697479547E+02  0.12325288987E+03  0.00000000000E+00 0. -1.
        -14    1    6    6    0    0  0.35836224647E+02  0.18701819036E+00  0.17390408092E+02  0.39833356203E+02  0.00000000000E+00 0.  1.
</event>
<event>
12    1  0.8417180E-002  0.1939353E+03  0.7818608E-02  0.1155164E+00
         21   -1    0    0  503  502  0.00000000000E+00  0.00000000000E+00  0.13303217415E+03  0.13303217415E+03  0.00000000000E+00 0. -1.
         21   -1    0    0  501  503 -0.00000000000E+00 -0.00000000000E+00 -0.45619226620E+03  0.45619226620E+03  0.00000000000E+00 0. -1.
          6    2    1    2  501    0 -0.68934365472E+02 -0.57452478048E+02 -0.34420165360E+03  0.39507677841E+03  0.17192483392E+03 0.  0.
         24    2    3    3    0    0 -0.61632627353E+02  0.25003706187E+02 -0.14432841690E+03  0.17868884333E+03  0.81702170887E+02 0.  0.
         -6    2    1    2    0  502  0.68934365472E+02  0.57452478048E+02  0.21041561548E+02  0.19414766195E+03  0.17087373511E+03 0.  0.
        -24    2    5    5    0    0  0.75175454436E+02  0.10011618819E+03  0.49950692532E+01  0.14790132945E+03  0.78582774492E+02 0.  0.
          5    1    3    3  501    0 -0.73017381191E+01 -0.82456184234E+02 -0.19987323670E+03  0.21638793507E+03  0.47000000000E+01 0. -1.
        -11    1    4    4    0    0 -0.59065145975E+02 -0.12723980854E+02 -0.55073609019E+02  0.81753859653E+02  0.00000000000E+00 0.  1.
         12    1    4    4    0    0 -0.25674813778E+01  0.37727687041E+02 -0.89254807884E+02  0.96934983678E+02  0.00000000000E+00 0. -1.
         -5    1    5    5    0  502 -0.62410889634E+01 -0.42663710146E+02  0.16046492294E+02  0.46246332502E+02  0.47000000000E+01 0.  1.
         11    1    6    6    0    0  0.39819110758E+02  0.10717027558E+01 -0.11475150421E+02  0.41453458307E+02  0.00000000000E+00 0. -1.
        -12    1    6    6    0    0  0.35356343677E+02  0.99044485438E+02  0.16470219675E+02  0.10644787114E+03  0.00000000000E+00 0.  1.
</event>
<event>
12    1  0.8417180E-002  0.1899741E+03  0.7818608E-02  0.1159319E+00
         21   -1    0    0  503  502  0.00000000000E+00  0.00000000000E+00  0.54790506391E+02  0.54790506391E+02  0.00000000000E+00 0. -1.
         21   -1    0    0  501  503 -0.00000000000E+00 -0.00000000000E+00 -0.11132797138E+04  0.11132797138E+04  0.00000000000E+00 0. -1.
          6    2    1    2  501    0  0.21330772107E+02 -0.77774442942E+02 -0.91057985027E+03  0.93018591200E+03  0.17200668982E+03 0.  0.
         24    2    3    3    0    0  0.70131016713E+02 -0.16586164145E+02 -0.42544433600E+03  0.43875532021E+03  0.79434801143E+02 0.  0.
         -6    2    1    2    0  502 -0.21330772107E+02  0.77774442942E+02 -0.14790935710E+03  0.23788430816E+03  0.16795207750E+03 0.  0.
        -24    2    5    5    0    0 -0.76001155171E+02  0.66967925926E+02 -0.10840880640E+03  0.16941522681E+03  0.81781239177E+02 0.  0.
          5    1    3    3  501    0 -0.48800244607E+02 -0.61188278797E+02 -0.48513551427E+03  0.49143059179E+03  0.47000000000E+01 0. -1.
        -11    1    4    4    0    0  0.17921538018E+02  0.26665135496E+02 -0.71648850592E+02  0.78522409331E+02  0.00000000000E+00 0.  1.
         12    1    4    4    0    0  0.52209478695E+02 -0.43251299640E+02 -0.35379548541E+03  0.36023291088E+03  0.00000000000E+00 0. -1.
         -5    1    5    5    0  502  0.54670383064E+02  0.10806517015E+02 -0.39500550707E+02  0.68469081347E+02  0.47000000000E+01 0.  1.
         13    1    6    6    0    0  0.11906912223E+02  0.29569126222E+02 -0.13080019961E+02  0.34455691931E+02  0.00000000000E+00 0. -1.
        -14    1    6    6    0    0 -0.87908067394E+02  0.37398799704E+02 -0.95328786435E+02  0.13495953488E+03  0.00000000000E+00 0.  1.
</event>
<event>
12    1  0.8417180E-002  0.2549210E+03  0.7818608E-02  0.1110825E+00
         21   -1    0    0  501  502  0.00000000000E+00  0.00000000000E+00  0.12019032469E+03  0.12019032469E+03  0.00000000000E+00 0.  1.
         21   -1    0    0  502  503 -0.00000000000E+00 -0.00000000000E+00 -0.93459116739E+03  0.93459116739E+03  0.00000000000E+00 0.  1.
         -6    2    1    2    0  503  0.17270774089E+03 -0.67238014783E+02 -0.75480522756E+03  0.79669043839E+03  0.17503087918E+03 0.  0.
        -24    2    3    3    0    0  0.25746018137E+02  0.15121946216E+02 -0.24207265429E+03  0.25697042503E+03  0.80889422515E+02 0.  0.
          6    2    1    2  501    0 -0.17270774089E+03  0.67238014783E+02 -0.59595615128E+02  0.25809105369E+03  0.16944155410E+03 0.  0.
         24    2    5    5    0    0 -0.61924537906E+02 -0.27525320066E+02 -0.20585486700E+02  0.10710467081E+03  0.80345233878E+02 0.  0.
          5    1    5    5  501    0 -0.11078320299E+03  0.94763334849E+02 -0.39010128428E+02  0.15098638288E+03  0.47000000000E+01 0. -1.
        -11    1    6    6    0    0 -0.24881018245E+02 -0.15671517767E+01  0.30157190308E+02  0.39127703240E+02  0.00000000000E+00 0.  1.
         12    1    6    6    0    0 -0.37043519661E+02 -0.25958168290E+02 -0.50742677008E+02  0.67976967568E+02  0.00000000000E+00 0. -1.
         -5    1    3    3    0  503  0.14696172275E+03 -0.82359960998E+02 -0.51273257327E+03  0.53972001336E+03  0.47000000000E+01 0.  1.
         13    1    4    4    0    0 -0.14929941215E+02 -0.23169344194E+02 -0.11326303304E+03  0.11656859057E+03  0.00000000000E+00 0. -1.
        -14    1    4    4    0    0  0.40675959351E+02  0.38291290410E+02 -0.12880962125E+03  0.14040183445E+03  0.00000000000E+00 0.  1.
</event>
<event>
12    1  0.8417180E-002  0.2093215E+03  0.7818608E-02  0.1142464E+00
         21   -1    0    0  503  502  0.00000000000E+00  0.00000000000E+00  0.43412421172E+03  0.43412421172E+03  0.00000000000E+00 0. -1.
         21   -1    0    0  501  503 -0.00000000000E+00 -0.00000000000E+00 -0.10148511232E+03  0.10148511232E+03  0.00000000000E+00 0. -1.
          6    2    1    2  501    0 -0.10527867483E+03 -0.50529989253E+02  0.19873021845E+03  0.28863328554E+03  0.17371987396E+03 0.  0.
         24    2    3    3    0    0  0.14892320429E+02 -0.97199114645E+01  0.65703987738E+02  0.10471863521E+03  0.79578393225E+02 0.  0.
         -6    2    1    2    0  502  0.10527867483E+03  0.50529989253E+02  0.13390888096E+03  0.24697603850E+03  0.17154794084E+03 0.  0.
        -24    2    5    5    0    0  0.25673174418E+02  0.34339543291E+02  0.29160984254E+01  0.92767201813E+02  0.82212736143E+02 0.  0.
          5    1    3    3  501    0 -0.12017099526E+03 -0.40810077789E+02  0.13302623071E+03  0.18391465034E+03  0.47000000000E+01 0. -1.
        -13    1    4    4    0    0  0.33484518081E+02 -0.31853124569E+02  0.19376053664E+02  0.50112532879E+02  0.00000000000E+00 0.  1.
         14    1    4    4    0    0 -0.18592197652E+02  0.22133213105E+02  0.46327934074E+02  0.54606102328E+02  0.00000000000E+00 0. -1.
         -5    1    5    5    0  502  0.79605500412E+02  0.16190445962E+02  0.13099278253E+03  0.15420883668E+03  0.47000000000E+01 0.  1.
         11    1    6    6    0    0  0.20697335373E+02 -0.14762160455E+02  0.27651759967E+02  0.37562227066E+02  0.00000000000E+00 0. -1.
        -12    1    6    6    0    0  0.49758390447E+01  0.49101703746E+02 -0.24735661542E+02  0.55204974748E+02  0.00000000000E+00 0.  1.
</event>
<event>
12    1  0.8417180E-002  0.2459985E+03  0.7818608E-02  0.1117745E+00
         21   -1    0    0  503  502  0.00000000000E+00  0.00000000000E+00  0.20508940461E+03  0.20508940461E+03  0.00000000000E+00 0. -1.
         21   -1    0    0  501  503 -0.00000000000E+00 -0.00000000000E+00 -0.30363450125E+03  0.30363450125E+03  0.00000000000E+00 0. -1.
          6    2    1    2  501    0  0.15284861860E+03 -0.48075958089E+02 -0.11675078943E+03  0.26205262245E+03  0.17136753527E+03 0.  0.
         24    2    3    3    0    0  0.67846778321E+02 -0.25885101711E+02  0.84467286453E+01  0.10903544861E+03  0.80895970292E+02 0.  0.
         -6    2    1    2    0  502 -0.15284861860E+03  0.48075958089E+02  0.18205692790E+02  0.24667128341E+03  0.18665818186E+03 0.  0.
        -24    2    5    5    0    0 -0.78377104547E+02 -0.12673876108E+02  0.74617988851E+02  0.13513211582E+03  0.79932764319E+02 0.  0.
          5    1    3    3  501    0  0.85001840277E+02 -0.22190856378E+02 -0.12519751808E+03  0.15301717384E+03  0.47000000000E+01 0. -1.
        -11    1    4    4    0    0  0.50910814555E+01  0.26485558692E+02  0.21844883298E+01  0.27058749396E+02  0.00000000000E+00 0.  1.
         12    1    4    4    0    0  0.62755696865E+02 -0.52370660403E+02  0.62622403155E+01  0.81976699213E+02  0.00000000000E+00 0. -1.
         -5    1    5    5    0  502 -0.74471514050E+02  0.60749834197E+02 -0.56412296061E+02  0.11153916759E+03  0.47000000000E+01 0.  1.
         11    1    6    6    0    0 -0.74904893293E+02 -0.70621203249E+01  0.16995217966E+02  0.77132703935E+02  0.00000000000E+00 0. -1.
        -12    1    6    6    0    0 -0.34722112549E+01 -0.56117557836E+01  0.57622770885E+02  0.57999411880E+02  0.00000000000E+00 0.  1.
</event>
<event>
12    1  0.8417180E-002  0.4706591E+03  0.7818608E-02  0.1021767E+00
         21   -1    0    0  501  502  0.00000000000E+00  0.00000000000E+00  0.11488230716E+04  0.11488230716E+04  0.00000000000E+00 0. -1.
         21   -1    0    0  502  503 -0.00000000000E+00 -0.00000000000E+00 -0.32286454209E+03  0.32286454209E+03  0.00000000000E+00 0.  1.
         -6    2    1    2    0  503 -0.15379784519E+03 -0.40957542004E+03 -0.54242148960E+02  0.47377440953E+03  0.17353437271E+03 0.  0.
        -24    2    3    3    0    0 -0.20812608579E+02 -0.89451670647E+02 -0.91348530935E+01  0.12417314205E+03  0.83070798767E+02 0.  0.
          6    2    1    2  501    0  0.15379784519E+03  0.40957542004E+03  0.88020067850E+03  0.99791320419E+03  0.17225483092E+03 0.  0.
         24    2    5    5    0    0  0.90727208077E+02  0.12643860353E+03  0.40933826063E+03  0.44485093944E+03  0.78207416228E+02 0.  0.
          5    1    5    5  501    0  0.63070637112E+02  0.28313681651E+03  0.47086241786E+03  0.55306226475E+03  0.47000000000E+01 0. -1.
        -11    1    6    6    0    0  0.96454883371E+01  0.15133904061E+02  0.15135950295E+03  0.15241971536E+03  0.00000000000E+00 0.  1.
         12    1    6    6    0    0  0.81081719740E+02  0.11130469947E+03  0.25797875768E+03  0.29243122408E+03  0.00000000000E+00 0. -1.
         -5    1    3    3    0  503 -0.13298523661E+03 -0.32012374940E+03 -0.45107295866E+02  0.34960126748E+03  0.47000000000E+01 0.  1.
         13    1    4    4    0    0 -0.19165763200E+02 -0.73300247145E+02  0.30244732160E+02  0.81578162114E+02  0.00000000000E+00 0. -1.
        -14    1    4    4    0    0 -0.16468453792E+01 -0.16151423502E+02 -0.39379585253E+02  0.42594979934E+02  0.00000000000E+00 0.  1.
</event>
<event>
12    1  0.8417180E-002  0.2717976E+03  0.7818608E-02  0.1100291E+00
         21   -1    0    0  501  502  0.00000000000E+00  0.00000000000E+00  0.39644162301E+03  0.39644162301E+03  0.00000000000E+00 0.  1.
         21   -1    0    0  502  503 -0.00000000000E+00 -0.00000000000E+00 -0.29568720816E+03  0.29568720816E+03  0.00000000000E+00 0. -1.
         -6    2    1    2    0  503 -0.20728960419E+03  0.36479592836E+02 -0.16022102726E+03  0.31550706649E+03  0.17197148233E+03 0.  0.
        -24    2    3    3    0    0 -0.21708779301E+03  0.12870089962E+02 -0.17093806938E+03  0.28739375786E+03  0.77991021333E+02 0.  0.
          6    2    1    2  501    0  0.20728960419E+03 -0.36479592836E+02  0.26097544211E+03  0.37662176468E+03  0.17156931996E+03 0.  0.
         24    2    5    5    0    0  0.13121873312E+03  0.34736918566E+02  0.20522905004E+03  0.25834953992E+03  0.78743332196E+02 0.  0.
          5    1    5    5  501    0  0.76070871064E+02 -0.71216511401E+02  0.55746392073E+02  0.11827222476E+03  0.47000000000E+01 0. -1.
        -11    1    6    6    0    0  0.25096965978E+02 -0.23798726721E+02  0.59373457021E+02  0.68712768053E+02  0.00000000000E+00 0.  1.
         12    1    6    6    0    0  0.10612176714E+03  0.58535645287E+02  0.14585559302E+03  0.18963677187E+03  0.00000000000E+00 0. -1.
         -5    1    3    3    0  503  0.97981888229E+01  0.23609502874E+02  0.10717042121E+02  0.28113308627E+02  0.47000000000E+01 0.  1.
         13    1    4    4    0    0 -0.21087203803E+03  0.30538822536E+01 -0.13691112798E+03  0.25143786426E+03  0.00000000000E+00 0. -1.
        -14    1    4    4    0    0 -0.62157549740E+01  0.98162077084E+01 -0.34026941399E+02  0.35955893601E+02  0.00000000000E+00 0.  1.
</event>
<event>
12    1  0.8417180E-002  0.2146493E+03  0.7818608E-02  0.1138215E+00
         21   -1    0    0  501  502  0.00000000000E+00  0.00000000000E+00  0.37011727678E+03  0.37011727678E+03  0.00000000000E+00 0. -1.
         21   -1    0    0  502  503 -0.00000000000E+00 -0.00000000000E+00 -0.13288155138E+03  0.13288155138E+03  0.00000000000E+00 0.  1.
         -6    2    1    2    0  503 -0.36384624809E+02  0.11991878489E+03  0.51960338894E+02  0.21944765171E+03  0.17249069288E+03 0.  0.
        -24    2    3    3    0    0 -0.82872099616E+02  0.99000745977E+02  0.67583800758E+02  0.16592352419E+03  0.79335447034E+02 0.  0.
          6    2    1    2  501    0  0.36384624809E+02 -0.11991878489E+03  0.18527538650E+03  0.28355117645E+03  0.17426974761E+03 0.  0.
         24    2    5    5    0    0  0.21357571085E+02 -0.14631708077E+03  0.15186855243E+03  0.23815526330E+03  0.10857733766E+03 0.  0.
          5    1    5    5  501    0  0.15027053724E+02  0.26398295874E+02  0.33406834069E+02  0.45395913155E+02  0.47000000000E+01 0. -1.
        -11    1    6    6    0    0  0.26754051434E+02 -0.34917466234E+02 -0.64887223711E+01  0.44464730229E+02  0.00000000000E+00 0.  1.
         12    1    6    6    0    0 -0.53964803489E+01 -0.11139961453E+03  0.15835727480E+03  0.19369053307E+03  0.00000000000E+00 0. -1.
         -5    1    3    3    0  503  0.46487474808E+02  0.20918038916E+02 -0.15623461864E+02  0.53524127519E+02  0.47000000000E+01 0.  1.
         13    1    4    4    0    0 -0.46253710073E+02  0.57023690551E+02  0.80277153237E+02  0.10879121431E+03  0.00000000000E+00 0. -1.
        -14    1    4    4    0    0 -0.36618389543E+02  0.41977055426E+02 -0.12693352478E+02  0.57132309879E+02  0.00000000000E+00 0.  1.
</event>
<event>
12    1  0.8417180E-002  0.1816356E+03  0.7818608E-02  0.1166509E+00
         21   -1    0    0  501  502  0.00000000000E+00  0.00000000000E+00  0.20772617262E+03  0.20772617262E+03  0.00000000000E+00 0.  1.
         21   -1    0    0  502  503 -0.00000000000E+00 -0.00000000000E+00 -0.33115607460E+03  0.33115607460E+03  0.00000000000E+00 0.  1.
         -6    2    1    2    0  503 -0.55652709774E+02 -0.82621590774E+01 -0.25675285917E+03  0.31450521285E+03  0.17270208696E+03 0.  0.
        -24    2    3    3    0    0 -0.49181312720E+02 -0.70811814663E+02 -0.16004121722E+03  0.19905145551E+03  0.81087459680E+02 0.  0.
          6    2    1    2  501    0  0.55652709774E+02  0.82621590774E+01  0.13332295720E+03  0.22437703437E+03  0.17147756488E+03 0.  0.
         24    2    5    5    0    0 -0.46841226305E+01 -0.14850791851E+01  0.13791789134E+03  0.16290553351E+03  0.86560508484E+02 0.  0.
          5    1    5    5  501    0  0.60336832405E+02  0.97472382624E+01 -0.45949341465E+01  0.61471500862E+02  0.47000000000E+01 0. -1.
        -11    1    6    6    0    0  0.33814715427E+02 -0.21941558077E+02  0.86926051255E+02  0.95817562780E+02  0.00000000000E+00 0.  1.
         12    1    6    6    0    0 -0.38498838058E+02  0.20456478892E+02  0.50991840090E+02  0.67087970726E+02  0.00000000000E+00 0. -1.
         -5    1    3    3    0  503 -0.64713970544E+01  0.62549655586E+02 -0.96711641956E+02  0.11545375734E+03  0.47000000000E+01 0.  1.
         13    1    4    4    0    0 -0.60757167445E+02 -0.77692492364E+02 -0.15673549895E+03  0.18518524077E+03  0.00000000000E+00 0. -1.
        -14    1    4    4    0    0  0.11575854725E+02  0.68806777004E+01 -0.33057182659E+01  0.13866214750E+02  0.00000000000E+00 0.  1.
</event>
<event>
12    1  0.8417180E-002  0.1808034E+03  0.7818608E-02  0.1167813E+00
         21   -1    0    0  501  502  0.00000000000E+00  0.00000000000E+00  0.29320656101E+02  0.29320656101E+02  0.00000000000E+00 0. -1.
         21   -1    0    0  502  503 -0.00000000000E+00 -0.00000000000E+00 -0.13433558941E+04  0.13433558941E+04  0.00000000000E+00 0. -1.
         -6    2    1    2    0  503 -0.43637560797E+02 -0.26445632223E+01 -0.94724971941E+03  0.96374933323E+03  0.17210321309E+03 0.  0.
        -24    2    3    3    0    0 -0.66663417219E+02  0.26886119853E+02 -0.88147071446E+03  0.88791254270E+03  0.78937876770E+02 0.  0.
          6    2    1    2  501    0  0.43637560797E+02  0.26445632223E+01 -0.36678551858E+03  0.40892721696E+03  0.17543837010E+03 0.  0.
         24    2    5    5    0    0  0.42340984705E+01  0.62400379932E+02 -0.26433334877E+03  0.28385952499E+03  0.82415870157E+02 0.  0.
          5    1    5    5  501    0  0.39403462326E+02 -0.59755816710E+02 -0.10245216982E+03  0.12506769197E+03  0.47000000000E+01 0. -1.
        -11    1    6    6    0    0 -0.86540204305E+01 -0.63668149482E+00 -0.16673853307E+03  0.16696417533E+03  0.00000000000E+00 0.  1.
         12    1    6    6    0    0  0.12888118901E+02  0.63037061427E+02 -0.97594815693E+02  0.11689534966E+03  0.00000000000E+00 0. -1.
         -5    1    3    3    0  503  0.23025856422E+02 -0.29530683075E+02 -0.65779004951E+02  0.75836790538E+02  0.47000000000E+01 0.  1.
         11    1    4    4    0    0  0.44003008167E+01 -0.20415993633E+02 -0.21034659953E+03  0.21138085859E+03  0.00000000000E+00 0. -1.
        -12    1    4    4    0    0 -0.71063718035E+02  0.47302113486E+02 -0.67112411493E+03  0.67653168411E+03  0.00000000000E+00 0.  1.
</event>
<event>
12    1  0.8417180E-002  0.1859710E+03  0.7818608E-02  0.1162349E+00
         21   -1    0    0  503  502  0.00000000000E+00  0.00000000000E+00  0.29246993634E+02  0.29246993634E+02  0.00000000000E+00 0. -1.
         21   -1    0    0  501  503 -0.00000000000E+00 -0.00000000000E+00 -0.18369765335E+04  0.18369765335E+04  0.00000000000E+00 0. -1.
          6    2    1    2  501    0 -0.67502338449E+02  0.20026333005E+01 -0.14618104931E+04  0.14734828829E+04  0.17234068603E+03 0.  0.
         24    2    3    3    0    0 -0.19675841988E+01  0.38837392675E+02 -0.43777896204E+03  0.44668481597E+03  0.79779012050E+02 0.  0.
         -6    2    1    2    0  502  0.67502338449E+02 -0.20026333005E+01 -0.34591904679E+03  0.39274064432E+03  0.17327622609E+03 0.  0.
        -24    2    5    5    0    0 -0.23100551921E+02 -0.34034689460E+02 -0.14602149125E+03  0.17089371718E+03  0.78679038385E+02 0.  0.
          5    1    3    3  501    0 -0.65534754250E+02 -0.36834759374E+02 -0.10240315311E+04  0.10267980669E+04  0.47000000000E+01 0. -1.
        -11    1    4    4    0    0 -0.28122837595E+02  0.32117767659E+02 -0.11316315693E+03  0.12094769564E+03  0.00000000000E+00 0.  1.
         12    1    4    4    0    0  0.26155253397E+02  0.67196250158E+01 -0.32461580510E+03  0.32573712034E+03  0.00000000000E+00 0. -1.
         -5    1    5    5    0  502  0.90602890370E+02  0.32032056160E+02 -0.19989755554E+03  0.22184692713E+03  0.47000000000E+01 0.  1.
         13    1    6    6    0    0  0.10758050316E+02  0.16346665169E+02 -0.10074056533E+02  0.22009900586E+02  0.00000000000E+00 0. -1.
        -14    1    6    6    0    0 -0.33858602237E+02 -0.50381354629E+02 -0.13594743471E+03  0.14888381660E+03  0.00000000000E+00 0.  1.
</event>
<event>
12    1  0.8417180E-002  0.2458715E+03  0.7818608E-02  0.1116570E+00
         21   -1    0    0  501  502  0.00000000000E+00  0.00000000000E+00  0.82775381359E+02  0.82775381359E+02  0.00000000000E+00 0.  1.
         21   -1    0    0  502  503 -0.00000000000E+00 -0.00000000000E+00 -0.76330249326E+03  0.76330249326E+03  0.00000000000E+00 0. -1.
         -6    2    1    2    0  503 -0.17039641511E+03 -0.90779243297E+01 -0.44482417250E+03  0.50825323406E+03  0.17701824341E+03 0.  0.
        -24    2    3    3    0    0 -0.13752703038E+03  0.41451156294E+02 -0.40044937520E+03  0.43325458690E+03  0.81963116846E+02 0.  0.
          6    2    1    2  501    0  0.17039641511E+03  0.90779243297E+01 -0.23570293940E+03  0.33782464056E+03  0.17161662254E+03 0.  0.
         24    2    5    5    0    0  0.13594713260E+03 -0.54441976227E+02 -0.18463847035E+03  0.24921763840E+03  0.81071048582E+02 0.  0.
          5    1    5    5  501    0  0.34449282515E+02  0.63519900557E+02 -0.51064469054E+02  0.88607002163E+02  0.47000000000E+01 0. -1.
        -13    1    6    6    0    0  0.16652103290E+02 -0.18323516292E+01  0.63955833108E+01  0.17931914074E+02  0.00000000000E+00 0.  1.
         14    1    6    6    0    0  0.11929502931E+03 -0.52609624598E+02 -0.19103405366E+03  0.23128572432E+03  0.00000000000E+00 0. -1.
         -5    1    3    3    0  503 -0.32869384733E+02 -0.50529080624E+02 -0.44374797293E+02  0.74998647163E+02  0.47000000000E+01 0.  1.
         13    1    4    4    0    0 -0.42906523288E+02  0.13052178011E+02 -0.24499160707E+03  0.24906267610E+03  0.00000000000E+00 0. -1.
        -14    1    4    4    0    0 -0.94620507090E+02  0.28398978283E+02 -0.15545776813E+03  0.18419191079E+03  0.00000000000E+00 0.  1.
</event>
<event>
12    1  0.8417180E-002  0.2148524E+03  0.7818608E-02  0.1137831E+00
         21   -1    0    0  501  502  0.00000000000E+00  0.00000000000E+00  0.40432994035E+03  0.40432994035E+03  0.00000000000E+00 0. -1.
         21   -1    0    0  502  503 -0.00000000000E+00 -0.00000000000E+00 -0.14296945488E+03  0.14296945488E+03  0.00000000000E+00 0.  1.
         -6    2    1    2    0  503 -0.12892547703E+03  0.28034562127E+01  0.74905354506E+01  0.21471628485E+03  0.17151482987E+03 0.  0.
        -24    2    3    3    0    0 -0.87543854379E+02  0.67831595239E+02  0.12178258666E+02  0.13735245411E+03  0.80326427245E+02 0.  0.
          6    2    1    2  501    0  0.12892547703E+03 -0.28034562127E+01  0.25386995002E+03  0.33258311037E+03  0.17184858390E+03 0.  0.
         24    2    5    5    0    0  0.77354956522E+02  0.29868281851E+02  0.24663420777E+03  0.27092755896E+03  0.75481164583E+02 0.  0.
          5    1    5    5  501    0  0.51570520505E+02 -0.32671738064E+02  0.72357422525E+01  0.61655551406E+02  0.47000000000E+01 0. -1.
        -13    1    6    6    0    0  0.24422480245E+00  0.12796536407E+02  0.12657525761E+03  0.12722070126E+03  0.00000000000E+00 0.  1.
         14    1    6    6    0    0  0.77110731719E+02  0.17071745444E+02  0.12005895015E+03  0.14370685770E+03  0.00000000000E+00 0. -1.
         -5    1    3    3    0  503 -0.41381622647E+02 -0.65028139027E+02 -0.46877232153E+01  0.77363830742E+02  0.47000000000E+01 0.  1.
         11    1    4    4    0    0 -0.26288624085E+02  0.57573680012E+02  0.33595437251E+02  0.71655242589E+02  0.00000000000E+00 0. -1.
        -12    1    4    4    0    0 -0.61255230295E+02  0.10257915227E+02 -0.21417178585E+02  0.65697211522E+02  0.00000000000E+00 0.  1.
</event>
<event>
12    1  0.8417180E-002  0.2299297E+03  0.7818608E-02  0.1126834E+00
         21   -1    0    0  503  502  0.00000000000E+00  0.00000000000E+00  0.84121222463E+03  0.84121222463E+03  0.00000000000E+00 0.  1.
         21   -1    0    0  501  503 -0.00000000000E+00 -0.00000000000E+00 -0.85922119989E+02  0.85922119989E+02  0.00000000000E+00 0.  1.
          6    2    1    2  501    0 -0.15014675685E+03  0.18957817778E+02  0.13674191107E+03  0.26751823962E+03  0.17310173552E+03 0.  0.
         24    2    3    3    0    0 -0.97418366233E+01  0.31661148928E+01  0.84748578003E+02  0.11689182697E+03  0.79852677323E+02 0.  0.
         -6    2    1    2    0  502  0.15014675685E+03 -0.18957817778E+02  0.61854819356E+03  0.65961610499E+03  0.17201189132E+03 0.  0.
        -24    2    5    5    0    0  0.85376062314E+02 -0.61960351434E+02  0.25031910186E+03  0.28323967807E+03  0.80230326601E+02 0.  0.
          5    1    3    3  501    0 -0.14040492023E+03  0.15791702885E+02  0.51993333070E+02  0.15062641265E+03  0.47000000000E+01 0. -1.
        -11    1    4    4    0    0 -0.56268604560E+01  0.37973347999E+02  0.20048345917E+02  0.43307884858E+02  0.00000000000E+00 0.  1.
         12    1    4    4    0    0 -0.41149761672E+01 -0.34807233107E+02  0.64700232086E+02  0.73583942117E+02  0.00000000000E+00 0. -1.
         -5    1    5    5    0  502  0.64770694535E+02  0.43002533655E+02  0.36822909170E+03  0.37637642693E+03  0.47000000000E+01 0.  1.
         13    1    6    6    0    0  0.35366174571E+02 -0.22618702213E+02  0.19328035804E+03  0.19778692778E+03  0.00000000000E+00 0. -1.
        -14    1    6    6    0    0  0.50009887743E+02 -0.39341649221E+02  0.57038743821E+02  0.85452750290E+02  0.00000000000E+00 0.  1.
</event>
<event>
12    1  0.8417180E-002  0.1945809E+03  0.7818608E-02  0.1154460E+00
         21   -1    0    0  501  502  0.00000000000E+00  0.00000000000E+00  0.15986520704E+03  0.15986520704E+03  0.00000000000E+00 0.  1.
         21   -1    0    0  502  503 -0.00000000000E+00 -0.00000000000E+00 -0.23680412740E+03  0.23680412740E+03  0.00000000000E+00 0. -1.
         -6    2    1    2    0  503  0.87671722147E+02  0.17980951572E+02 -0.45998362898E+02  0.19994394807E+03  0.17277756653E+03 0.  0.
        -24    2    3    3    0    0  0.92540575449E+02 -0.47651973879E+02 -0.40965768648E+02  0.13377141872E+03  0.73362998475E+02 0.  0.
          6    2    1    2  501    0 -0.87671722147E+02 -0.17980951572E+02 -0.30940557457E+02  0.19672538637E+03  0.17243524601E+03 0.  0.
         24    2    5    5    0    0 -0.54118169123E+02 -0.55300254327E+02  0.41914003362E+02  0.10813391776E+03  0.62843186863E+02 0.  0.
          5    1    5    5  501    0 -0.33553553024E+02  0.37319302756E+02 -0.72854560819E+02  0.88591468612E+02  0.47000000000E+01 0. -1.
        -11    1    6    6    0    0 -0.67351881616E+02 -0.40866472167E+02  0.26188881147E+02  0.83019286918E+02  0.00000000000E+00 0.  1.
         12    1    6    6    0    0  0.13233712493E+02 -0.14433782160E+02  0.15725122215E+02  0.25114630845E+02  0.00000000000E+00 0. -1.
         -5    1    3    3    0  503 -0.48688533023E+01  0.65632925450E+02 -0.50325942503E+01  0.66172529350E+02  0.47000000000E+01 0.  1.
         11    1    4    4    0    0  0.41592607400E+02  0.14956990620E+02 -0.27166231560E+02  0.51881217178E+02  0.00000000000E+00 0. -1.
        -12    1    4    4    0    0  0.50947968050E+02 -0.62608964499E+02 -0.13799537088E+02  0.81890201538E+02  0.00000000000E+00 0.  1.
</event>
<event>
12    1  0.8417180E-002  0.2216319E+03  0.7818608E-02  0.1132792E+00
         21   -1    0    0  503  502  0.00000000000E+00  0.00000000000E+00  0.16119586042E+03  0.16119586042E+03  0.00000000000E+00 0. -1.
         21   -1    0    0  501  503 -0.00000000000E+00 -0.00000000000E+00 -0.37719338296E+03  0.37719338296E+03  0.00000000000E+00 0.  1.
          6    2    1    2  501    0  0.89254983656E+02 -0.10608123864E+03 -0.22658694773E+03  0.31650451027E+03  0.17208654462E+03 0.  0.
         24    2    3    3    0    0  0.19670540755E+02 -0.10754565903E+03 -0.89150379806E+02  0.16237781101E+03  0.80409976617E+02 0.  0.
         -6    2    1    2    0  502 -0.89254983656E+02  0.10608123864E+03  0.10589425187E+02  0.22188473311E+03  0.17291910700E+03 0.  0.
        -24    2    5    5    0    0 -0.86229062311E+02  0.74560067002E+02  0.68708210591E+02  0.15553246353E+03  0.80466603208E+02 0.  0.
          5    1    3    3  501    0  0.69584442900E+02  0.14644203857E+01 -0.13743656792E+03  0.15412669926E+03  0.47000000000E+01 0. -1.
        -11    1    4    4    0    0 -0.29680236147E+02 -0.58303955666E+02 -0.35699695130E+02  0.74530100607E+02  0.00000000000E+00 0.  1.
         12    1    4    4    0    0  0.49350776902E+02 -0.49241703360E+02 -0.53450684676E+02  0.87847710402E+02  0.00000000000E+00 0. -1.
         -5    1    5    5    0  502 -0.30259213445E+01  0.31521171639E+02 -0.58118785404E+02  0.66352269579E+02  0.47000000000E+01 0.  1.
         13    1    6    6    0    0 -0.55679064675E+02  0.73683036503E+02  0.14757069231E+02  0.93526034898E+02  0.00000000000E+00 0. -1.
        -14    1    6    6    0    0 -0.30549997636E+02  0.87703049845E+00  0.53951141361E+02  0.62006428636E+02  0.00000000000E+00 0.  1.
</event>
<event>
12    1  0.8417180E-002  0.2465533E+03  0.7818608E-02  0.1115543E+00
         21   -1    0    0  503  502  0.00000000000E+00  0.00000000000E+00  0.59054957883E+03  0.59054957883E+03  0.00000000000E+00 0.  1.
         21   -1    0    0  501  503 -0.00000000000E+00 -0.00000000000E+00 -0.15593557122E+03  0.15593557122E+03  0.00000000000E+00 0. -1.
          6    2    1    2  501    0  0.49098688692E+02 -0.16929508077E+03 -0.43342988667E+00  0.24655371937E+03  0.17238631927E+03 0.  0.
         24    2    3    3    0    0  0.23612854089E+02 -0.17864958261E+02  0.25859538184E+02  0.90688328929E+02  0.81724743358E+02 0.  0.
         -6    2    1    2    0  502 -0.49098688692E+02  0.16929508077E+03  0.43504743749E+03  0.49993143067E+03  0.17202807010E+03 0.  0.
        -24    2    5    5    0    0 -0.62327510918E+02  0.88993843596E+02  0.36519149410E+03  0.39257579153E+03  0.94584892644E+02 0.  0.
          5    1    3    3  501    0  0.25485834603E+02 -0.15143012251E+03 -0.26292968071E+02  0.15586539044E+03  0.47000000000E+01 0. -1.
        -11    1    4    4    0    0 -0.22453569157E+01  0.31174046214E+02  0.12505335008E+02  0.33663722146E+02  0.00000000000E+00 0.  1.
         12    1    4    4    0    0  0.25858211005E+02 -0.49039004475E+02  0.13354203177E+02  0.57024606783E+02  0.00000000000E+00 0. -1.
         -5    1    5    5    0  502  0.13228822226E+02  0.80301237171E+02  0.69855943391E+02  0.10735563914E+03  0.47000000000E+01 0.  1.
         13    1    6    6    0    0 -0.66036053870E+02  0.21474560442E+02  0.12438883587E+03  0.14245876473E+03  0.00000000000E+00 0. -1.
        -14    1    6    6    0    0  0.37085429525E+01  0.67519283154E+02  0.24080265823E+03  0.25011702681E+03  0.00000000000E+00 0.  1.
</event>
<event>
12    1  0.8417180E-002  0.1743191E+03  0.7818608E-02  0.1173722E+00
         21   -1    0    0  501  502  0.00000000000E+00  0.00000000000E+00  0.71916282808E+03  0.71916282808E+03  0.00000000000E+00 0. -1.
         21   -1    0    0  502  503 -0.00000000000E+00 -0.00000000000E+00 -0.65936467148E+02  0.65936467148E+02  0.00000000000E+00 0. -1.
         -6    2    1    2    0  503 -0.24895321651E+02  0.81875024849E+01  0.89190194827E+02  0.19474012051E+03  0.17111987449E+03 0.  0.
        -24    2    3    3    0    0  0.27348561562E+01  0.51192111492E+02  0.10509971261E+03  0.14099976437E+03  0.78783705445E+02 0.  0.
          6    2    1    2  501    0  0.24895321651E+02 -0.81875024849E+01  0.56403616611E+03  0.59035917472E+03  0.17233788401E+03 0.  0.
         24    2    5    5    0    0  0.77369580309E+02 -0.98633074391E+01  0.46434620556E+03  0.47759156245E+03  0.79956019869E+02 0.  0.
          5    1    5    5  501    0 -0.52474258657E+02  0.16758049542E+01  0.99689960547E+02  0.11276761227E+03  0.47000000000E+01 0. -1.
        -11    1    6    6    0    0  0.59234625995E+02  0.24538410346E+02  0.19055890196E+03  0.20105613548E+03  0.00000000000E+00 0.  1.
         12    1    6    6    0    0  0.18134954313E+02 -0.34401717785E+02  0.27378730360E+03  0.27653542697E+03  0.00000000000E+00 0. -1.
         -5    1    3    3    0  503 -0.27630177808E+02 -0.43004609007E+02 -0.15909517788E+02  0.53740356137E+02  0.47000000000E+01 0.  1.
         11    1    4    4    0    0 -0.11170263089E+02  0.39051977815E+02  0.70472781336E+01  0.41224942423E+02  0.00000000000E+00 0. -1.
        -12    1    4    4    0    0  0.13905119245E+02  0.12140133677E+02  0.98052434481E+02  0.99774821947E+02  0.00000000000E+00 0.  1.
</event>
<event>
12    1  0.8417180E-002  0.1744814E+03  0.7818608E-02  0.1173256E+00
         21   -1    0    0  503  502  0.00000000000E+00  0.00000000000E+00  0.77497912514E+03  0.77497912514E+03  0.00000000000E+00 0.  1.
         21   -1    0    0  501  503 -0.00000000000E+00 -0.00000000000E+00 -0.45339871204E+02  0.45339871204E+02  0.00000000000E+00 0.  1.
          6    2    1    2  501    0  0.21639401938E+02  0.20670618283E+02  0.21489354088E+03  0.27680861026E+03  0.17189599944E+03 0.  0.
         24    2    3    3    0    0  0.41194633226E+01  0.44262504286E+02  0.40660086497E+02  0.10005196410E+03  0.79881247004E+02 0.  0.
         -6    2    1    2    0  502 -0.21639401938E+02 -0.20670618283E+02  0.51474571306E+03  0.54351038609E+03  0.17188616145E+03 0.  0.
        -24    2    5    5    0    0  0.45914640303E+02  0.13212632209E+01  0.38245906388E+03  0.39328043226E+03  0.79275865981E+02 0.  0.
          5    1    3    3  501    0  0.17519938615E+02 -0.23591886004E+02  0.17423345438E+03  0.17675664616E+03  0.47000000000E+01 0. -1.
        -11    1    4    4    0    0 -0.26761662563E+02  0.31363754359E+02  0.50476989258E+02  0.65175134178E+02  0.00000000000E+00 0.  1.
         12    1    4    4    0    0  0.30881125886E+02  0.12898749927E+02 -0.98169027609E+01  0.34876829923E+02  0.00000000000E+00 0. -1.
         -5    1    5    5    0  502 -0.67554042240E+02 -0.21991881504E+02  0.13228664918E+03  0.15022995382E+03  0.47000000000E+01 0.  1.
         13    1    6    6    0    0  0.66422715110E+01 -0.19555589175E+00 -0.19045730507E+01  0.69126992874E+01  0.00000000000E+00 0. -1.
        -14    1    6    6    0    0  0.39272368792E+02  0.15168191127E+01  0.38436363693E+03  0.38636773298E+03  0.00000000000E+00 0.  1.
</event>
<event>
12    1  0.8417180E-002  0.1931659E+03  0.7818608E-02  0.1155857E+00
         21   -1    0    0  503  502  0.00000000000E+00  0.00000000000E+00  0.66046903102E+02  0.66046903102E+02  0.00000000000E+00 0. -1.
         21   -1    0    0  501  503 -0.00000000000E+00 -0.00000000000E+00 -0.66707669750E+03  0.66707669750E+03  0.00000000000E+00 0.  1.
          6    2    1    2  501    0  0.58035287120E+02 -0.63002124283E+02 -0.44531382110E+03  0.48500967647E+03  0.17202507023E+03 0.  0.
         24    2    3    3    0    0  0.43204038617E+02 -0.46741105305E+02 -0.11474983947E+03  0.15368050084E+03  0.79992817187E+02 0.  0.
         -6    2    1    2    0  502 -0.58035287120E+02  0.63002124283E+02 -0.15571597329E+03  0.24811392413E+03  0.17313489768E+03 0.  0.
        -24    2    5    5    0    0  0.22880939570E+02  0.71269850227E+02 -0.72604300823E+02  0.13172908347E+03  0.80487502061E+02 0.  0.
          5    1    3    3  501    0  0.14831248503E+02 -0.16261018978E+02 -0.33056398163E+03  0.33132917563E+03  0.47000000000E+01 0. -1.
        -11    1    4    4    0    0  0.25037156075E+01 -0.35997470827E+02 -0.10421855313E+03  0.11028868171E+03  0.00000000000E+00 0.  1.
         12    1    4    4    0    0  0.40700323009E+02 -0.10743634478E+02 -0.10531286339E+02  0.43391819123E+02  0.00000000000E+00 0. -1.
         -5    1    5    5    0  502 -0.80916226690E+02 -0.82677259435E+01 -0.83111672471E+02  0.11638484066E+03  0.47000000000E+01 0.  1.
         11    1    6    6    0    0  0.18098404544E+02 -0.11698864939E+02 -0.33618578363E+02  0.39932749706E+02  0.00000000000E+00 0. -1.
        -12    1    6    6    0    0  0.47825350259E+01  0.82968715166E+02 -0.38985722460E+02  0.91796333768E+02  0.00000000000E+00 0.  1.
</event>
<event>
12    1  0.8417180E-002  0.2866749E+03  0.7818608E-02  0.1092242E+00
         21   -1    0    0  501  502  0.00000000000E+00  0.00000000000E+00  0.32897962234E+03  0.32897962234E+03  0.00000000000E+00 0. -1.
         21   -1    0    0  502  503 -0.00000000000E+00 -0.00000000000E+00 -0.25453377000E+03  0.25453377000E+03  0.00000000000E+00 0.  1.
         -6    2    1    2    0  503  0.21510562833E+03  0.78285038079E+02  0.80676660557E+02  0.29677076110E+03  0.17077816768E+03 0.  0.
        -24    2    3    3    0    0  0.53822919065E+02  0.49961301290E+02  0.77416925418E+02  0.13292002950E+03  0.79254751636E+02 0.  0.
          6    2    1    2  501    0 -0.21510562833E+03 -0.78285038079E+02 -0.62308082135E+01  0.28674263125E+03  0.17257906907E+03 0.  0.
         24    2    5    5    0    0 -0.18440128053E+03 -0.10894066326E+03 -0.38667849672E+02  0.23236638655E+03  0.81406600638E+02 0.  0.
          5    1    5    5  501    0 -0.30704347798E+02  0.30655625182E+02  0.32437041459E+02  0.54376244699E+02  0.47000000000E+01 0. -1.
        -13    1    6    6    0    0 -0.67852261252E+02 -0.41997830388E+02 -0.55080420467E+02  0.96961847307E+02  0.00000000000E+00 0.  1.
         14    1    6    6    0    0 -0.11654901928E+03 -0.66942832873E+02  0.16412570795E+02  0.13540453924E+03  0.00000000000E+00 0. -1.
         -5    1    3    3    0  503  0.16128270926E+03  0.28323736789E+02  0.32597351392E+01  0.16385073160E+03  0.47000000000E+01 0.  1.
         13    1    4    4    0    0  0.66390360103E+02  0.56621951597E+02  0.46466397043E+02  0.98857732987E+02  0.00000000000E+00 0. -1.
        -14    1    4    4    0    0 -0.12567441038E+02 -0.66606503069E+01  0.30950528375E+02  0.34062296509E+02  0.00000000000E+00 0.  1.
</event>
<event>
12    1  0.8417180E-002  0.1933023E+03  0.7818608E-02  0.1155528E+00
         21   -1    0    0  503  502  0.00000000000E+00  0.00000000000E+00  0.15603612165E+03  0.15603612165E+03  0.00000000000E+00 0.  1.
         21   -1    0    0  501  503 -0.00000000000E+00 -0.00000000000E+00 -0.71105706468E+03  0.71105706468E+03  0.00000000000E+00 0.  1.
          6    2    1    2  501    0 -0.28360789812E+02 -0.83190943770E+02 -0.63059621797E+03  0.65954226437E+03  0.17210270437E+03 0.  0.
         24    2    3    3    0    0  0.13614397245E+02  0.11317872121E+02 -0.36381723985E+03  0.37338331243E+03  0.82089389987E+02 0.  0.
         -6    2    1    2    0  502  0.28360789812E+02  0.83190943770E+02  0.75575274944E+02  0.20755092196E+03  0.17216473361E+03 0.  0.
        -24    2    5    5    0    0 -0.26080141260E+02  0.44010247035E+02 -0.89969028670E+01  0.99507017767E+02  0.84874181654E+02 0.  0.
          5    1    3    3  501    0 -0.41975187058E+02 -0.94508815890E+02 -0.26677897812E+03  0.28615895194E+03  0.47000000000E+01 0. -1.
        -13    1    4    4    0    0  0.26106740228E+02  0.38606364867E+01 -0.33038878659E+02  0.42285149904E+02  0.00000000000E+00 0.  1.
         14    1    4    4    0    0 -0.12492342982E+02  0.74572356340E+01 -0.33077836119E+03  0.33109816253E+03  0.00000000000E+00 0. -1.
         -5    1    5    5    0  502  0.54440931073E+02  0.39180696734E+02  0.84572177811E+02  0.10804390419E+03  0.47000000000E+01 0.  1.
         13    1    6    6    0    0  0.25496039526E+02  0.35108537689E+02 -0.16920112684E+02  0.46571962203E+02  0.00000000000E+00 0. -1.
        -14    1    6    6    0    0 -0.51576180786E+02  0.89017093459E+01  0.79232098174E+01  0.52935055564E+02  0.00000000000E+00 0.  1.
</event>
<event>
12    1  0.8417180E-002  0.3208905E+03  0.7818608E-02  0.1076235E+00
         21   -1    0    0  501  502  0.00000000000E+00  0.00000000000E+00  0.22116976670E+03  0.22116976670E+03  0.00000000000E+00 0.  1.
         21   -1    0    0  502  503 -0.00000000000E+00 -0.00000000000E+00 -0.95428462230E+03  0.95428462230E+03  0.00000000000E+00 0. -1.
         -6    2    1    2    0  503 -0.18494541348E+03 -0.18406065334E+03 -0.79005345559E+03  0.84955149763E+03  0.17166873437E+03 0.  0.
        -24    2    3    3    0    0 -0.97234603222E+02 -0.14129126036E+03 -0.66202146286E+03  0.68850278334E+03  0.79661013447E+02 0.  0.
          6    2    1    2  501    0  0.18494541348E+03  0.18406065334E+03  0.56938599985E+02  0.32590289137E+03  0.18678212003E+03 0.  0.
         24    2    5    5    0    0  0.92740293086E+02  0.55878443858E+02 -0.40604679719E+02  0.14024394473E+03  0.79350246179E+02 0.  0.
          5    1    5    5  501    0  0.92205120393E+02  0.12818220948E+03  0.97543279704E+02  0.18565894664E+03  0.47000000000E+01 0. -1.
        -11    1    6    6    0    0  0.72735201431E+02  0.91418279879E+01  0.28528135782E+01  0.73362940859E+02  0.00000000000E+00 0.  1.
         12    1    6    6    0    0  0.20005091655E+02  0.46736615870E+02 -0.43457493297E+02  0.66881003871E+02  0.00000000000E+00 0. -1.
         -5    1    3    3    0  503 -0.87710810257E+02 -0.42769392979E+02 -0.12803199273E+03  0.16104871429E+03  0.47000000000E+01 0.  1.
         11    1    4    4    0    0  0.97674974897E+01 -0.35945119282E+02 -0.17218549909E+03  0.17616839020E+03  0.00000000000E+00 0. -1.
        -12    1    4    4    0    0 -0.10700210071E+03 -0.10534614108E+03 -0.48983596376E+03  0.51233439314E+03  0.00000000000E+00 0.  1.
</event>
<event>
12    1  0.8417180E-002  0.2666671E+03  0.7818608E-02  0.1103484E+00
         21   -1    0    0  503  502  0.00000000000E+00  0.00000000000E+00  0.18682131250E+03  0.18682131250E+03  0.00000000000E+00 0.  1.
         21   -1    0    0  501  503 -0.00000000000E+00 -0.00000000000E+00 -0.39084976502E+03  0.39084976502E+03  0.00000000000E+00 0. -1.
          6    2    1    2  501    0 -0.20156295927E+03  0.69852254348E+01 -0.49051994652E+02  0.26924111402E+03  0.17148836513E+03 0.  0.
         24    2    3    3    0    0 -0.78261628726E+02 -0.36444899408E+02 -0.68151853781E+02  0.13704319998E+03  0.81749925158E+02 0.  0.
         -6    2    1    2    0  502  0.20156295927E+03 -0.69852254348E+01 -0.15497645786E+03  0.30842996351E+03  0.17445606889E+03 0.  0.
        -24    2    5    5    0    0  0.39612708877E+02 -0.26226969106E+02 -0.10542210443E+03  0.13791353543E+03  0.75161842304E+02 0.  0.
          5    1    3    3  501    0 -0.12330133054E+03  0.43430124843E+02  0.19099859129E+02  0.13219791404E+03  0.47000000000E+01 0. -1.
        -11    1    4    4    0    0 -0.30006046712E+02 -0.35420483175E+02  0.77802113818E+01  0.47069152922E+02  0.00000000000E+00 0.  1.
         12    1    4    4    0    0 -0.48255582014E+02 -0.10244162332E+01 -0.75932065163E+02  0.89974047058E+02  0.00000000000E+00 0. -1.
         -5    1    5    5    0  502  0.16195025039E+03  0.19241743671E+02 -0.49554353433E+02  0.17051642808E+03  0.47000000000E+01 0.  1.
         11    1    6    6    0    0  0.13727702973E+02 -0.50400698426E+02 -0.51167050773E+02  0.73121455918E+02  0.00000000000E+00 0. -1.
        -12    1    6    6    0    0  0.25885005905E+02  0.24173729319E+02 -0.54255053656E+02  0.64792079509E+02  0.00000000000E+00 0.  1.
</event>
<event>
12    1  0.8417180E-002  0.3953878E+03  0.7818608E-02  0.1045398E+00
         21   -1    0    0  501  502  0.00000000000E+00  0.00000000000E+00  0.45799951832E+03  0.45799951832E+03  0.00000000000E+00 0. -1.
         21   -1    0    0  502  503 -0.00000000000E+00 -0.00000000000E+00 -0.35608075276E+03  0.35608075276E+03  0.00000000000E+00 0.  1.
         -6    2    1    2    0  503  0.35490403843E+03  0.27129878287E+02  0.13404612745E+03  0.41749238740E+03  0.17215871302E+03 0.  0.
        -24    2    3    3    0    0  0.34638395617E+03  0.60864065863E+02  0.12279953193E+03  0.38062555781E+03  0.78165277550E+02 0.  0.
          6    2    1    2  501    0 -0.35490403843E+03 -0.27129878287E+02 -0.32127361897E+02  0.39658788368E+03  0.17192113108E+03 0.  0.
         24    2    5    5    0    0 -0.20894420306E+03 -0.18104941634E+02 -0.86609080857E+02  0.24045950470E+03  0.79587509130E+02 0.  0.
          5    1    5    5  501    0 -0.14595983536E+03 -0.90249366528E+01  0.54481718960E+02  0.15612837897E+03  0.47000000000E+01 0. -1.
        -11    1    6    6    0    0 -0.77243581233E+02 -0.10811472921E+01 -0.74151281016E+02  0.10708012046E+03  0.00000000000E+00 0.  1.
         12    1    6    6    0    0 -0.13170062183E+03 -0.17023794342E+02 -0.12457799841E+02  0.13337938424E+03  0.00000000000E+00 0. -1.
         -5    1    3    3    0  503  0.85200822561E+01 -0.33734187576E+02  0.11246595523E+02  0.36866829589E+02  0.47000000000E+01 0.  1.
         11    1    4    4    0    0  0.14252510105E+03  0.62494962699E+02  0.65617593033E+02  0.16889254959E+03  0.00000000000E+00 0. -1.
        -12    1    4    4    0    0  0.20385885512E+03 -0.16308968362E+01  0.57181938897E+02  0.21173300822E+03  0.00000000000E+00 0.  1.
</event>
<event>
12    1  0.8417180E-002  0.2106972E+03  0.7818608E-02  0.1141064E+00
         21   -1    0    0  501  502  0.00000000000E+00  0.00000000000E+00  0.31583288804E+03  0.31583288804E+03  0.00000000000E+00 0.  1.
         21   -1    0    0  502  503 -0.00000000000E+00 -0.00000000000E+00 -0.23629362778E+03  0.23629362778E+03  0.00000000000E+00 0.  1.
         -6    2    1    2    0  503 -0.11292933940E+03  0.45157424679E+02 -0.13611404030E+03  0.25063083555E+03  0.17174561147E+03 0.  0.
        -24    2    3    3    0    0 -0.90477385728E+02  0.60215212407E+02 -0.26159733958E+02  0.13730446316E+03  0.79725496483E+02 0.  0.
          6    2    1    2  501    0  0.11292933940E+03 -0.45157424679E+02  0.21565330056E+03  0.30149568027E+03  0.17204961633E+03 0.  0.
         24    2    5    5    0    0  0.14099759355E+02 -0.61388295646E+02  0.15297354980E+03  0.18325199876E+03  0.78822979213E+02 0.  0.
          5    1    5    5  501    0  0.98829580041E+02  0.16230870967E+02  0.62679750759E+02  0.11824368152E+03  0.47000000000E+01 0. -1.
        -11    1    6    6    0    0  0.45659297062E+02 -0.29682881443E+02  0.10041997448E+03  0.11423666720E+03  0.00000000000E+00 0.  1.
         12    1    6    6    0    0 -0.31559537707E+02 -0.31705414203E+02  0.52553575325E+02  0.69015331554E+02  0.00000000000E+00 0. -1.
         -5    1    3    3    0  503 -0.22451953668E+02 -0.15057787728E+02 -0.10995430635E+03  0.11332637239E+03  0.47000000000E+01 0.  1.
         13    1    4    4    0    0 -0.31392791400E+02  0.27557370861E+02  0.28393320444E+02  0.50508382339E+02  0.00000000000E+00 0. -1.
        -14    1    4    4    0    0 -0.59084594328E+02  0.32657841546E+02 -0.54553054401E+02  0.86796080821E+02  0.00000000000E+00 0.  1.
</event>
<event>
12    1  0.8417180E-002  0.1958671E+03  0.7818608E-02  0.1153605E+00
         21   -1    0    0  501  502  0.00000000000E+00  0.00000000000E+00  0.18338167070E+03  0.18338167070E+03  0.00000000000E+00 0.  1.
         21   -1    0    0  502  503 -0.00000000000E+00 -0.00000000000E+00 -0.49342399736E+03  0.49342399736E+03  0.00000000000E+00 0. -1.
         -6    2    1    2    0  503 -0.80999872468E+02  0.38275355767E+02 -0.41284022733E+03  0.45694746790E+03  0.17417793466E+03 0.  0.
        -24    2    3    3    0    0  0.24334291391E+01 -0.28786399496E+02 -0.22513062041E+03  0.24081005475E+03  0.80443196403E+02 0.  0.
          6    2    1    2  501    0  0.80999872468E+02 -0.38275355767E+02  0.10279790067E+03  0.21985820015E+03  0.17246517791E+03 0.  0.
         24    2    5    5    0    0  0.74910294401E+02 -0.90195215974E+02  0.72051372933E+02  0.15902898173E+03  0.79699984304E+02 0.  0.
          5    1    5    5  501    0  0.60895780671E+01  0.51919860207E+02  0.30746527742E+02  0.60829218417E+02  0.47000000000E+01 0. -1.
        -11    1    6    6    0    0  0.88114498828E+02 -0.55367901817E+02  0.47319787354E+02  0.11431942849E+03  0.00000000000E+00 0.  1.
         12    1    6    6    0    0 -0.13204204427E+02 -0.34827314157E+02  0.24731585578E+02  0.44709553243E+02  0.00000000000E+00 0. -1.
         -5    1    3    3    0  503 -0.83433301607E+02  0.67061755262E+02 -0.18770960692E+03  0.21613741315E+03  0.47000000000E+01 0.  1.
         11    1    4    4    0    0 -0.36977028568E+02 -0.23614074153E+02 -0.14277327617E+03  0.14936242341E+03  0.00000000000E+00 0. -1.
        -12    1    4    4    0    0  0.39410457707E+02 -0.51723253425E+01 -0.82357344243E+02  0.91447631335E+02  0.00000000000E+00 0.  1.
</event>
<event>
12    1  0.8417180E-002  0.1996361E+03  0.7818608E-02  0.1150061E+00
         21   -1    0    0  503  502  0.00000000000E+00  0.00000000000E+00  0.37016782586E+03  0.37016782586E+03  0.00000000000E+00 0.  1.
         21   -1    0    0  501  503 -0.00000000000E+00 -0.00000000000E+00 -0.13006260970E+03  0.13006260970E+03  0.00000000000E+00 0.  1.
          6    2    1    2  501    0 -0.77318869163E+02 -0.63831996940E+02  0.16192172328E+02  0.20029173040E+03  0.17263215072E+03 0.  0.
         24    2    3    3    0    0 -0.11374040911E+03 -0.42222240606E+02 -0.16156700174E+02  0.14679360246E+03  0.81041498620E+02 0.  0.
         -6    2    1    2    0  502  0.77318869163E+02  0.63831996940E+02  0.22391304383E+03  0.29993870516E+03  0.17254983133E+03 0.  0.
        -24    2    5    5    0    0  0.14307581392E+02 -0.31252149514E+02  0.93090619311E+02  0.12630687037E+03  0.78141911706E+02 0.  0.
          5    1    3    3  501    0  0.36421539944E+02 -0.21609756334E+02  0.32348872502E+02  0.53498127937E+02  0.47000000000E+01 0. -1.
        -11    1    4    4    0    0 -0.88157580440E+01  0.12380797626E+02 -0.23828336006E+02  0.28262896818E+02  0.00000000000E+00 0.  1.
         12    1    4    4    0    0 -0.10492465106E+03 -0.54603038233E+02  0.76716358314E+01  0.11853070565E+03  0.00000000000E+00 0. -1.
         -5    1    5    5    0  502  0.63011287770E+02  0.95084146454E+02  0.13082242452E+03  0.17363183478E+03  0.47000000000E+01 0.  1.
         11    1    6    6    0    0 -0.19892707604E+02  0.36882468301E+01 -0.10158996511E+01  0.20257221739E+02  0.00000000000E+00 0. -1.
        -12    1    6    6    0    0  0.34200288996E+02 -0.34940396344E+02  0.94106518963E+02  0.10604964863E+03  0.00000000000E+00 0.  1.
</event>
<event>
12    1  0.8417180E-002  0.2220770E+03  0.7818608E-02  0.1132356E+00
         21   -1    0    0  503  502  0.00000000000E+00  0.00000000000E+00  0.26965394455E+03  0.26965394455E+03  0.00000000000E+00 0.  1.
         21   -1    0    0  501  503 -0.00000000000E+00 -0.00000000000E+00 -0.18301541835E+03  0.18301541835E+03  0.00000000000E+00 0.  1.
          6    2    1    2  501    0  0.12336024390E+03  0.65580796643E+02  0.50265101905E+02  0.22763337003E+03  0.17254500867E+03 0.  0.
         24    2    3    3    0    0  0.10949125962E+02  0.14968910576E+02 -0.22109753685E+02  0.84601792505E+02  0.79527796675E+02 0.  0.
         -6    2    1    2    0  502 -0.12336024390E+03 -0.65580796643E+02  0.36373424297E+02  0.22503599287E+03  0.17262555266E+03 0.  0.
        -24    2    5    5    0    0 -0.37152537616E+02 -0.69170757289E+01  0.73054155179E+02  0.11439799401E+03  0.79509964512E+02 0.  0.
          5    1    3    3  501    0  0.11241111794E+03  0.50611886068E+02  0.72374855590E+02  0.14303157752E+03  0.47000000000E+01 0. -1.
        -11    1    4    4    0    0  0.36329300348E+02  0.16167641442E+02 -0.37697148990E+02  0.54793117593E+02  0.00000000000E+00 0.  1.
         12    1    4    4    0    0 -0.25380174386E+02 -0.11987308662E+01  0.15587395306E+02  0.29808674912E+02  0.00000000000E+00 0. -1.
         -5    1    5    5    0  502 -0.86207706283E+02 -0.58663720914E+02 -0.36680730882E+02  0.11063799886E+03  0.47000000000E+01 0.  1.
         11    1    6    6    0    0  0.21590987547E+02 -0.12156808601E+02  0.39259763444E+02  0.46425076890E+02  0.00000000000E+00 0. -1.
        -12    1    6    6    0    0 -0.58743525162E+02  0.52397328718E+01  0.33794391735E+02  0.67972917120E+02  0.00000000000E+00 0.  1.
</event>
<event>
12    1  0.8417180E-002  0.1971745E+03  0.7818608E-02  0.1152841E+00
         21   -1    0    0  501  502  0.00000000000E+00  0.00000000000E+00  0.30115774481E+03  0.30115774481E+03  0.00000000000E+00 0.  1.
         21   -1    0    0  502  503 -0.00000000000E+00 -0.00000000000E+00 -0.20059347491E+03  0.20059347491E+03  0.00000000000E+00 0.  1.
         -6    2    1    2    0  503 -0.72536260387E+02 -0.63294208737E+02 -0.10193026578E+03  0.21911750780E+03  0.16838954008E+03 0.  0.
        -24    2    3    3    0    0 -0.86182313089E+02 -0.79903078682E+02 -0.11034168355E+03  0.19556095321E+03  0.11071091282E+03 0.  0.
          6    2    1    2  501    0  0.72536260387E+02  0.63294208737E+02  0.20249453569E+03  0.28263371193E+03  0.17207589083E+03 0.  0.
         24    2    5    5    0    0  0.92323080486E+02  0.20544905491E+02  0.73045370103E+02  0.14479976238E+03  0.81766134550E+02 0.  0.
          5    1    5    5  501    0 -0.19786820099E+02  0.42749303246E+02  0.12944916558E+03  0.13783394955E+03  0.47000000000E+01 0. -1.
        -11    1    6    6    0    0 -0.21096702528E+01  0.25031102726E+02  0.34565934472E+02  0.42729505475E+02  0.00000000000E+00 0.  1.
         12    1    6    6    0    0  0.94432750738E+02 -0.44861972346E+01  0.38479435631E+02  0.10207025690E+03  0.00000000000E+00 0. -1.
         -5    1    3    3    0  503  0.13646052702E+02  0.16608869945E+02  0.84114177686E+01  0.23556554588E+02  0.47000000000E+01 0.  1.
         11    1    4    4    0    0  0.92517915717E+01 -0.14929612148E+02 -0.71690467952E+02  0.73810650731E+02  0.00000000000E+00 0. -1.
        -12    1    4    4    0    0 -0.95434104661E+02 -0.64973466534E+02 -0.38651215599E+02  0.12175030248E+03  0.00000000000E+00 0.  1.
</event>
<event>
12    1  0.8417180E-002  0.2446377E+03  0.7818608E-02  0.1117129E+00
         21   -1    0    0  501  502  0.00000000000E+00  0.00000000000E+00  0.30435854269E+03  0.30435854269E+03  0.00000000000E+00 0. -1.
         21   -1    0    0  502  503 -0.00000000000E+00 -0.00000000000E+00 -0.48733289144E+03  0.48733289144E+03  0.00000000000E+00 0. -1.
         -6    2    1    2    0  503 -0.15028005118E+03 -0.90105310336E+02 -0.39839147866E+03  0.46750763344E+03  0.17071776803E+03 0.  0.
        -24    2    3    3    0    0 -0.66746677283E+02 -0.78960966199E+02 -0.34225727452E+03  0.36614117037E+03  0.78926304648E+02 0.  0.
          6    2    1    2  501    0  0.15028005118E+03  0.90105310336E+02  0.21541712991E+03  0.32418380069E+03  0.16729475795E+03 0.  0.
         24    2    5    5    0    0  0.12920012508E+03  0.69044270291E+02  0.75069995251E+02  0.18063123576E+03  0.74379806145E+02 0.  0.
          5    1    5    5  501    0  0.21079926096E+02  0.21061040045E+02  0.14034713466E+03  0.14355256493E+03  0.47000000000E+01 0. -1.
        -11    1    6    6    0    0 -0.24404735150E+01 -0.10302806160E+02  0.48535683026E+01  0.11647353820E+02  0.00000000000E+00 0.  1.
         12    1    6    6    0    0  0.13164059860E+03  0.79347076451E+02  0.70216426948E+02  0.16898388194E+03  0.00000000000E+00 0. -1.
         -5    1    3    3    0  503 -0.83533373896E+02 -0.11144344137E+02 -0.56134204138E+02  0.10136646307E+03  0.47000000000E+01 0.  1.
         11    1    4    4    0    0 -0.68372372375E+01 -0.39567201106E+01 -0.15960271713E+03  0.15979809374E+03  0.00000000000E+00 0. -1.
        -12    1    4    4    0    0 -0.59909440046E+02 -0.75004246088E+02 -0.18265455739E+03  0.20634307663E+03  0.00000000000E+00 0.  1.
</event>
<event>
12    1  0.8417180E-002  0.2183834E+03  0.7818608E-02  0.1135591E+00
         21   -1    0    0  503  502  0.00000000000E+00  0.00000000000E+00  0.35069369153E+03  0.35069369153E+03  0.00000000000E+00 0.  1.
         21   -1    0    0  501  503 -0.00000000000E+00 -0.00000000000E+00 -0.13459336051E+03  0.13459336051E+03  0.00000000000E+00 0.  1.
          6    2    1    2  501    0 -0.13191278092E+03  0.31096778930E+02  0.11878201940E+03  0.24859703996E+03  0.17124055803E+03 0.  0.
         24    2    3    3    0    0 -0.11754143603E+03 -0.27438883766E+02  0.12048570192E+03  0.18811603554E+03  0.79384865900E+02 0.  0.
         -6    2    1    2    0  502  0.13191278092E+03 -0.31096778930E+02  0.97318311617E+02  0.23669001208E+03  0.16787887482E+03 0.  0.
        -24    2    5    5    0    0  0.12312132800E+03 -0.56874934501E+02  0.23008604132E+02  0.15740681351E+03  0.76510714884E+02 0.  0.
          5    1    3    3  501    0 -0.14371344889E+02  0.58535662696E+02 -0.17036825270E+01  0.60481004418E+02  0.47000000000E+01 0. -1.
        -11    1    4    4    0    0 -0.27211426186E+02  0.10365990785E+02  0.74391717741E+02  0.79887690845E+02  0.00000000000E+00 0.  1.
         12    1    4    4    0    0 -0.90330009847E+02 -0.37804874550E+02  0.46093984182E+02  0.10822834470E+03  0.00000000000E+00 0. -1.
         -5    1    5    5    0  502  0.87914529214E+01  0.25778155570E+02  0.74309707485E+02  0.79283198571E+02  0.47000000000E+01 0.  1.
         11    1    6    6    0    0  0.28522437308E+02 -0.88631805956E+01 -0.26874651698E+02  0.40178754387E+02  0.00000000000E+00 0. -1.
        -12    1    6    6    0    0  0.94598890693E+02 -0.48011753905E+02  0.49883255830E+02  0.11722805912E+03  0.00000000000E+00 0.  1.
</event>
<event>
12    1  0.8417180E-002  0.1921082E+03  0.7818608E-02  0.1157216E+00
         21   -1    0    0  501  502  0.00000000000E+00  0.00000000000E+00  0.55584458986E+03  0.55584458986E+03  0.00000000000E+00 0. -1.
         21   -1    0    0  502  503 -0.00000000000E+00 -0.00000000000E+00 -0.78541119697E+02  0.78541119697E+02  0.00000000000E+00 0. -1.
         -6    2    1    2    0  503  0.49920307827E+02  0.62127780818E+02  0.11044306327E+03  0.22159247145E+03  0.17479603799E+03 0.  0.
        -24    2    3    3    0    0  0.38628514726E+02  0.10942472529E+03  0.95949759110E+02  0.17063512248E+03  0.80274878363E+02 0.  0.
          6    2    1    2  501    0 -0.49920307827E+02 -0.62127780818E+02  0.36686040690E+03  0.41279323811E+03  0.17163857666E+03 0.  0.
         24    2    5    5    0    0  0.24206509232E+02 -0.19225739508E+01  0.10721440103E+03  0.13610281489E+03  0.80245853799E+02 0.  0.
          5    1    5    5  501    0 -0.74126817059E+02 -0.60205206867E+02  0.25964600587E+03  0.27669042322E+03  0.47000000000E+01 0. -1.
        -13    1    6    6    0    0 -0.14952762165E+02 -0.14302934523E+02 -0.63137134756E+00  0.20701634286E+02  0.00000000000E+00 0.  1.
         14    1    6    6    0    0  0.39159271396E+02  0.12380360572E+02  0.10784577238E+03  0.11540118060E+03  0.00000000000E+00 0. -1.
         -5    1    3    3    0  503  0.11291793101E+02 -0.47296944475E+02  0.14493304156E+02  0.50957348964E+02  0.47000000000E+01 0.  1.
         11    1    4    4    0    0  0.51743601452E+02  0.85278332960E+02  0.10181864710E+03  0.14253712240E+03  0.00000000000E+00 0. -1.
        -12    1    4    4    0    0 -0.13115086726E+02  0.24146392332E+02 -0.58688879926E+01  0.28098000085E+02  0.00000000000E+00 0.  1.
</event>
<event>
12    1  0.8417180E-002  0.2008391E+03  0.7818608E-02  0.1149445E+00
         21   -1    0    0  503  502  0.00000000000E+00  0.00000000000E+00  0.12884254694E+04  0.12884254694E+04  0.00000000000E+00 0. -1.
         21   -1    0    0  501  503 -0.00000000000E+00 -0.00000000000E+00 -0.62412396368E+02  0.62412396368E+02  0.00000000000E+00 0. -1.
          6    2    1    2  501    0 -0.65538233326E+02  0.74197141109E+02  0.13535139753E+03  0.24219075771E+03  0.17474520459E+03 0.  0.
         24    2    3    3    0    0 -0.89054576318E+02  0.69049881220E+02  0.15747934345E+03  0.20915670463E+03  0.79045428829E+02 0.  0.
         -6    2    1    2    0  502  0.65538233326E+02 -0.74197141109E+02  0.10906616755E+04  0.11086471081E+04  0.17249650441E+03 0.  0.
        -24    2    5    5    0    0  0.35428549252E+02  0.12469783321E+02  0.77598717819E+03  0.78083637284E+03  0.78349619323E+02 0.  0.
          5    1    3    3  501    0  0.23516342992E+02  0.51472598894E+01 -0.22127945918E+02  0.33034053076E+02  0.47000000000E+01 0. -1.
        -11    1    4    4    0    0  0.11894252611E+02  0.24501336949E+02  0.33883514454E+02  0.43472765143E+02  0.00000000000E+00 0.  1.
         12    1    4    4    0    0 -0.10094882893E+03  0.44548544271E+02  0.12359582900E+03  0.16568393949E+03  0.00000000000E+00 0. -1.
         -5    1    5    5    0  502  0.30109684074E+02 -0.86666924430E+02  0.31467449735E+03  0.32781073526E+03  0.47000000000E+01 0.  1.
         11    1    6    6    0    0  0.25219873782E+02 -0.31700801317E+02  0.42691938004E+03  0.42883696190E+03  0.00000000000E+00 0. -1.
        -12    1    6    6    0    0  0.10208675470E+02  0.44170584638E+02  0.34906779814E+03  0.35199941094E+03  0.00000000000E+00 0.  1.
</event>
<event>
12    1  0.8417180E-002  0.1735166E+03  0.7818608E-02  0.1174573E+00
         21   -1    0    0  503  502  0.00000000000E+00  0.00000000000E+00  0.54555989252E+02  0.54555989252E+02  0.00000000000E+00 0.  1.
         21   -1    0    0  501  503 -0.00000000000E+00 -0.00000000000E+00 -0.87025116773E+03  0.87025116773E+03  0.00000000000E+00 0.  1.
          6    2    1    2  501    0 -0.70062267859E+01 -0.20194923941E+02 -0.68840406099E+03  0.70960717486E+03  0.17083696688E+03 0.  0.
         24    2    3    3    0    0 -0.41133162782E+02  0.40809621196E+02 -0.48466060521E+03  0.49415488765E+03  0.77044068473E+02 0.  0.
         -6    2    1    2    0  502  0.70062267859E+01  0.20194923941E+02 -0.12729111749E+03  0.21519998213E+03  0.17219489409E+03 0.  0.
        -24    2    5    5    0    0 -0.24246265589E+02  0.17958501411E+02 -0.70796912164E+01  0.90883463224E+02  0.85435898146E+02 0.  0.
          5    1    3    3  501    0  0.34126935996E+02 -0.61004545138E+02 -0.20374345578E+03  0.21545228720E+03  0.47000000000E+01 0. -1.
        -13    1    4    4    0    0 -0.18369772810E+02  0.18703724206E+02 -0.36863059783E+02  0.45234533587E+02  0.00000000000E+00 0.  1.
         14    1    4    4    0    0 -0.22763389972E+02  0.22105896990E+02 -0.44779754543E+03  0.44892035407E+03  0.00000000000E+00 0. -1.
         -5    1    5    5    0  502  0.31252492375E+02  0.22364225309E+01 -0.12021142628E+03  0.12431651890E+03  0.47000000000E+01 0.  1.
         11    1    6    6    0    0 -0.54286160037E+02  0.28210628099E+01 -0.14866462690E+02  0.56355632192E+02  0.00000000000E+00 0. -1.
        -12    1    6    6    0    0  0.30039894447E+02  0.15137438601E+02  0.77867714732E+01  0.34527831032E+02  0.00000000000E+00 0.  1.
</event>
<event>
12    1  0.8417180E-002  0.2097301E+03  0.7818608E-02  0.1141935E+00
         21   -1    0    0  503  502  0.00000000000E+00  0.00000000000E+00  0.68487547977E+02  0.68487547977E+02  0.00000000000E+00 0. -1.
         21   -1    0    0  501  503 -0.00000000000E+00 -0.00000000000E+00 -0.91769125466E+03  0.91769125466E+03  0.00000000000E+00 0. -1.
          6    2    1    2  501    0 -0.31595835016E+02  0.11653191152E+03 -0.69535612219E+03  0.72607151258E+03  0.17053363751E+03 0.  0.
         24    2    3    3    0    0  0.20972633988E+02  0.89011102868E+02 -0.61007295295E+03  0.62207080202E+03  0.80126443767E+02 0.  0.
         -6    2    1    2    0  502  0.31595835016E+02 -0.11653191152E+03 -0.15384758450E+03  0.26010729006E+03  0.17148976615E+03 0.  0.
        -24    2    5    5    0    0 -0.25739297897E+02 -0.91732556942E+02 -0.15231965139E+03  0.19744350440E+03  0.81885821548E+02 0.  0.
          5    1    3    3  501    0 -0.52568469004E+02  0.27520808648E+02 -0.85283169235E+02  0.10400071056E+03  0.47000000000E+01 0. -1.
        -11    1    4    4    0    0  0.33952767289E+02  0.42389485508E+01 -0.22311374282E+03  0.22572217730E+03  0.00000000000E+00 0.  1.
         12    1    4    4    0    0 -0.12980133301E+02  0.84772154317E+02 -0.38695921014E+03  0.39634862472E+03  0.00000000000E+00 0. -1.
         -5    1    5    5    0  502  0.57335132913E+02 -0.24799354574E+02 -0.15279331040E+01  0.62663785658E+02  0.47000000000E+01 0.  1.
         11    1    6    6    0    0  0.18690849534E+01 -0.96605415428E+02 -0.12767949532E+03  0.16011918465E+03  0.00000000000E+00 0. -1.
        -12    1    6    6    0    0 -0.27608382851E+02  0.48728584859E+01 -0.24640156073E+02  0.37324319749E+02  0.00000000000E+00 0.  1.
</event>
<event>
12    1  0.8417180E-002  0.2163289E+03  0.7818608E-02  0.1136984E+00
         21   -1    0    0  501  502  0.00000000000E+00  0.00000000000E+00  0.40900100798E+03  0.40900100798E+03  0.00000000000E+00 0. -1.
         21   -1    0    0  502  503 -0.00000000000E+00 -0.00000000000E+00 -0.11631655080E+03  0.11631655080E+03  0.00000000000E+00 0. -1.
         -6    2    1    2    0  503 -0.89145150095E+02  0.92879775382E+02  0.10605097106E+03  0.24092529456E+03  0.17385246226E+03 0.  0.
        -24    2    3    3    0    0 -0.87651162131E+02 -0.35656947838E+01  0.71119283812E+02  0.13823024361E+03  0.79713281928E+02 0.  0.
          6    2    1    2  501    0  0.89145150095E+02 -0.92879775382E+02  0.18663348612E+03  0.28439226422E+03  0.17167816212E+03 0.  0.
         24    2    5    5    0    0  0.17016832549E+02 -0.98795197953E+02  0.67045741871E+02  0.14453231645E+03  0.79651712274E+02 0.  0.
          5    1    5    5  501    0  0.72128317546E+02  0.59154225712E+01  0.11958774424E+03  0.13985994777E+03  0.47000000000E+01 0. -1.
        -13    1    6    6    0    0 -0.99329101773E+01  0.95906894967E+01 -0.84045821859E+00  0.13832946166E+02  0.00000000000E+00 0.  1.
         14    1    6    6    0    0  0.26949742727E+02 -0.10838588745E+03  0.67886200090E+02  0.13069937029E+03  0.00000000000E+00 0. -1.
         -5    1    3    3    0  503 -0.14939879638E+01  0.96445470166E+02  0.34931687253E+02  0.10269505095E+03  0.47000000000E+01 0.  1.
         13    1    4    4    0    0 -0.20414762877E+02  0.13737906953E+01 -0.17470726563E+02  0.26904946215E+02  0.00000000000E+00 0. -1.
        -14    1    4    4    0    0 -0.67236399254E+02 -0.49394854792E+01  0.88590010375E+02  0.11132529739E+03  0.00000000000E+00 0.  1.
</event>
<event>
12    1  0.8417180E-002  0.2739311E+03  0.7818608E-02  0.1100026E+00
         21   -1    0    0  503  502  0.00000000000E+00  0.00000000000E+00  0.25293681565E+03  0.25293681565E+03  0.00000000000E+00 0.  1.
         21   -1    0    0  501  503 -0.00000000000E+00 -0.00000000000E+00 -0.43986190667E+03  0.43986190667E+03  0.00000000000E+00 0. -1.
          6    2    1    2  501    0 -0.72087221489E+02 -0.18932602311E+03 -0.29534311649E+03  0.39819265988E+03  0.17403714371E+03 0.  0.
         24    2    3    3    0    0 -0.84798238592E+02 -0.14225698076E+03 -0.29699406615E+03  0.34918367766E+03  0.79347183739E+02 0.  0.
         -6    2    1    2    0  502  0.72087221489E+02  0.18932602311E+03  0.10841802548E+03  0.29460606244E+03  0.18438371200E+03 0.  0.
        -24    2    5    5    0    0  0.79708293734E+02  0.14611171109E+03  0.14710356367E+03  0.23591859895E+03  0.79473786113E+02 0.  0.
          5    1    3    3  501    0  0.12711017103E+02 -0.47069042348E+02  0.16509496638E+01  0.49008982219E+02  0.47000000000E+01 0. -1.
        -13    1    4    4    0    0 -0.85223209624E+02 -0.73956760279E+02 -0.21187412195E+03  0.24004841471E+03  0.00000000000E+00 0.  1.
         14    1    4    4    0    0  0.42497103141E+00 -0.68300220484E+02 -0.85119944198E+02  0.10913526295E+03  0.00000000000E+00 0. -1.
         -5    1    5    5    0  502 -0.76210722452E+01  0.43214312023E+02 -0.38685538193E+02  0.58687463492E+02  0.47000000000E+01 0.  1.
         13    1    6    6    0    0  0.52271474643E+01  0.61698527612E+02  0.91183936805E+02  0.11022042330E+03  0.00000000000E+00 0. -1.
        -14    1    6    6    0    0  0.74481146270E+02  0.84413183476E+02  0.55919626864E+02  0.12569817565E+03  0.00000000000E+00 0.  1.
</event>
<event>
12    1  0.8417180E-002  0.2001276E+03  0.7818608E-02  0.1149985E+00
         21   -1    0    0  501  502  0.00000000000E+00  0.00000000000E+00  0.57775443150E+03  0.57775443150E+03  0.00000000000E+00 0.  1.
         21   -1    0    0  502  503 -0.00000000000E+00 -0.00000000000E+00 -0.70623805325E+02  0.70623805325E+02  0.00000000000E+00 0. -1.
         -6    2    1    2    0  503  0.82056849816E+02  0.58567501581E+02  0.20170832682E+03  0.28414311445E+03  0.17288025202E+03 0.  0.
        -24    2    3    3    0    0  0.87393776984E+02  0.73234168559E+02  0.21969795898E+03  0.25986739043E+03  0.79138813033E+02 0.  0.
          6    2    1    2  501    0 -0.82056849816E+02 -0.58567501581E+02  0.30542229935E+03  0.36423512237E+03  0.17094140688E+03 0.  0.
         24    2    5    5    0    0  0.39985409283E+01 -0.74597448958E+02  0.19865868269E+03  0.22609371174E+03  0.77925134320E+02 0.  0.
          5    1    5    5  501    0 -0.86055390745E+02  0.16029947377E+02  0.10676361666E+03  0.13814141063E+03  0.47000000000E+01 0. -1.
        -11    1    6    6    0    0  0.18716813320E+02  0.10525775862E+02  0.35967998551E+02  0.41890428240E+02  0.00000000000E+00 0.  1.
         12    1    6    6    0    0 -0.14718272392E+02 -0.85123224820E+02  0.16269068414E+03  0.18420328350E+03  0.00000000000E+00 0. -1.
         -5    1    3    3    0  503 -0.53369271677E+01 -0.14666666978E+02 -0.17989632156E+02  0.24275724025E+02  0.47000000000E+01 0.  1.
         13    1    4    4    0    0  0.62328336283E+02  0.55156017011E+02  0.75422289519E+02  0.11231887407E+03  0.00000000000E+00 0. -1.
        -14    1    4    4    0    0  0.25065440701E+02  0.18078151548E+02  0.14427566946E+03  0.14754851636E+03  0.00000000000E+00 0.  1.
</event>
<event>
12    1  0.8417180E-002  0.1779934E+03  0.7818608E-02  0.1170128E+00
         21   -1    0    0  501  502  0.00000000000E+00  0.00000000000E+00  0.41038908409E+03  0.41038908409E+03  0.00000000000E+00 0. -1.
         21   -1    0    0  502  503 -0.00000000000E+00 -0.00000000000E+00 -0.16028689201E+03  0.16028689201E+03  0.00000000000E+00 0. -1.
         -6    2    1    2    0  503 -0.37945441990E+02  0.22599322938E+02 -0.81434402564E+02  0.19438065435E+03  0.17088502246E+03 0.  0.
        -24    2    3    3    0    0  0.13492841815E+02 -0.22428065931E+02  0.44727849061E+01  0.84492085119E+02  0.80211169555E+02 0.  0.
          6    2    1    2  501    0  0.37945441990E+02 -0.22599322938E+02  0.33153659465E+03  0.37629532175E+03  0.17242699793E+03 0.  0.
         24    2    5    5    0    0  0.21292778083E+02  0.21279347898E+01  0.33621062844E+03  0.34575542846E+03  0.77790225178E+02 0.  0.
          5    1    5    5  501    0  0.16652663907E+02 -0.24727257728E+02 -0.46740337906E+01  0.30539893285E+02  0.47000000000E+01 0. -1.
        -13    1    6    6    0    0 -0.19165022306E+02 -0.24739539862E+02  0.10848283015E+03  0.11290645398E+03  0.00000000000E+00 0.  1.
         14    1    6    6    0    0  0.40457800389E+02  0.26867474652E+02  0.22772779828E+03  0.23284897448E+03  0.00000000000E+00 0. -1.
         -5    1    3    3    0  503 -0.51438283805E+02  0.45027388869E+02 -0.85907187470E+02  0.10988856923E+03  0.47000000000E+01 0.  1.
         11    1    4    4    0    0  0.14794681423E+02  0.44637176229E+01 -0.34108272950E+02  0.37445716138E+02  0.00000000000E+00 0. -1.
        -12    1    4    4    0    0 -0.13018396085E+01 -0.26891783554E+02  0.38581057856E+02  0.47046368982E+02  0.00000000000E+00 0.  1.
</event>
<event>
12    1  0.8417180E-002  0.2988746E+03  0.7818608E-02  0.1086010E+00
         21   -1    0    0  503  502  0.00000000000E+00  0.00000000000E+00  0.31907459071E+03  0.31907459071E+03  0.00000000000E+00 0. -1.
         21   -1    0    0  501  503 -0.00000000000E+00 -0.00000000000E+00 -0.28911742644E+03  0.28911742644E+03  0.00000000000E+00 0. -1.
          6    2    1    2  501    0  0.69149120933E+02  0.23464692423E+03 -0.43541841441E+02  0.30041262846E+03  0.16885222950E+03 0.  0.
         24    2    3    3    0    0  0.10400451142E+03  0.13212997546E+03 -0.86196118073E+01  0.18654307523E+03  0.80304124402E+02 0.  0.
         -6    2    1    2    0  502 -0.69149120933E+02 -0.23464692423E+03  0.73499005711E+02  0.30777938869E+03  0.17171274935E+03 0.  0.
        -24    2    5    5    0    0 -0.10755175597E+03 -0.16572249667E+03  0.24897986538E+02  0.21499206113E+03  0.81057698593E+02 0.  0.
          5    1    3    3  501    0 -0.34855390491E+02  0.10251694876E+03 -0.34922229634E+02  0.11386955323E+03  0.47000000000E+01 0. -1.
        -11    1    4    4    0    0  0.55464998763E+02  0.17760304162E+02 -0.20478602955E+02  0.61734655346E+02  0.00000000000E+00 0.  1.
         12    1    4    4    0    0  0.48539512661E+02  0.11436967130E+03  0.11858991148E+02  0.12480841988E+03  0.00000000000E+00 0. -1.
         -5    1    5    5    0  502  0.38402635038E+02 -0.68924427558E+02  0.48601019172E+02  0.92787327565E+02  0.47000000000E+01 0.  1.
         13    1    6    6    0    0 -0.43892548539E+02 -0.10940839928E+03 -0.18880692440E+02  0.11938690965E+03  0.00000000000E+00 0. -1.
        -14    1    6    6    0    0 -0.63659207431E+02 -0.56314097389E+02  0.43778678978E+02  0.95605151475E+02  0.00000000000E+00 0.  1.
</event>
<event>
12    1  0.8417180E-002  0.1965885E+03  0.7818608E-02  0.1154517E+00
         21   -1    0    0  503  502  0.00000000000E+00  0.00000000000E+00  0.71920834516E+02  0.71920834516E+02  0.00000000000E+00 0.  1.
         21   -1    0    0  501  503 -0.00000000000E+00 -0.00000000000E+00 -0.73695019009E+03  0.73695019009E+03  0.00000000000E+00 0.  1.
          6    2    1    2  501    0 -0.75642963868E+01 -0.78625647693E+02 -0.55978222057E+03  0.59329855076E+03  0.18002173426E+03 0.  0.
         24    2    3    3    0    0  0.18233527293E+02  0.22924784883E+02 -0.34025742658E+03  0.35000604524E+03  0.76623156300E+02 0.  0.
         -6    2    1    2    0  502  0.75642963868E+01  0.78625647693E+02 -0.10524713500E+03  0.21557247385E+03  0.17074929283E+03 0.  0.
        -24    2    5    5    0    0  0.15797258072E+02 -0.16462846089E+02 -0.84003528294E+02  0.11767975638E+03  0.79191878571E+02 0.  0.
          5    1    3    3  501    0 -0.25797823680E+02 -0.10155043258E+03 -0.21952479399E+03  0.24329250551E+03  0.47000000000E+01 0. -1.
        -13    1    4    4    0    0  0.27457099165E+02  0.27431861005E+02 -0.74087760802E+02  0.83638481535E+02  0.00000000000E+00 0.  1.
         14    1    4    4    0    0 -0.92235718722E+01 -0.45070761225E+01 -0.26616966578E+03  0.26636756371E+03  0.00000000000E+00 0. -1.
         -5    1    5    5    0  502 -0.82329616850E+01  0.95088493782E+02 -0.21243606708E+02  0.97892717471E+02  0.47000000000E+01 0.  1.
         11    1    6    6    0    0 -0.25960602037E+02  0.29723501729E+01 -0.60647657732E+02  0.66037308486E+02  0.00000000000E+00 0. -1.
        -12    1    6    6    0    0  0.41757860109E+02 -0.19435196262E+02 -0.23355870562E+02  0.51642447893E+02  0.00000000000E+00 0.  1.
</event>
<event>
12    1  0.8417180E-002  0.1826453E+03  0.7818608E-02  0.1165580E+00
         21   -1    0    0  503  502  0.00000000000E+00  0.00000000000E+00  0.15619513438E+04  0.15619513438E+04  0.00000000000E+00 0. -1.
         21   -1    0    0  501  503 -0.00000000000E+00 -0.00000000000E+00 -0.24899065481E+02  0.24899065481E+02  0.00000000000E+00 0. -1.
          6    2    1    2  501    0 -0.25967242622E+02 -0.49727165886E+02  0.46051976154E+03  0.49493393985E+03  0.17243568463E+03 0.  0.
         24    2    3    3    0    0  0.48079466074E+02 -0.16000194021E+02  0.30306681145E+03  0.31763773236E+03  0.80477298349E+02 0.  0.
         -6    2    1    2    0  502  0.25967242622E+02  0.49727165886E+02  0.10765325168E+04  0.10919164694E+04  0.17381664997E+03 0.  0.
        -24    2    5    5    0    0  0.37082605168E+02  0.21757128650E+02  0.27083518062E+03  0.28564346246E+03  0.79949986441E+02 0.  0.
          5    1    3    3  501    0 -0.74046708696E+02 -0.33726971865E+02  0.15745295009E+03  0.17729620749E+03  0.47000000000E+01 0. -1.
        -13    1    4    4    0    0  0.12804003459E+02  0.17931122997E+02  0.18147106947E+02  0.28544441964E+02  0.00000000000E+00 0.  1.
         14    1    4    4    0    0  0.35275462615E+02 -0.33931317018E+02  0.28491970450E+03  0.28909329040E+03  0.00000000000E+00 0. -1.
         -5    1    5    5    0  502 -0.11115362545E+02  0.27970037237E+02  0.80569733616E+03  0.80627300697E+03  0.47000000000E+01 0.  1.
         13    1    6    6    0    0  0.22272711784E+02  0.31812459783E+02  0.26342057034E+03  0.26626772836E+03  0.00000000000E+00 0. -1.
        -14    1    6    6    0    0  0.14809893384E+02 -0.10055331134E+02  0.74146102764E+01  0.19375734097E+02  0.00000000000E+00 0.  1.
</event>
<event>
12    1  0.8417180E-002  0.2312961E+03  0.7818608E-02  0.1125754E+00
         21   -1    0    0  501  502  0.00000000000E+00  0.00000000000E+00  0.47640556131E+03  0.47640556131E+03  0.00000000000E+00 0. -1.
         21   -1    0    0  502  503 -0.00000000000E+00 -0.00000000000E+00 -0.14996139413E+03  0.14996139413E+03  0.00000000000E+00 0.  1.
         -6    2    1    2    0  503  0.13503118991E+03  0.74976793727E+02  0.61635845623E+01  0.23137816697E+03  0.17217120703E+03 0.  0.
        -24    2    3    3    0    0  0.26549993950E+02 -0.21474922101E+02  0.25725513746E+01  0.86098819220E+02  0.78995659328E+02 0.  0.
          6    2    1    2  501    0 -0.13503118991E+03 -0.74976793727E+02  0.32028058262E+03  0.39498878846E+03  0.17199287648E+03 0.  0.
         24    2    5    5    0    0 -0.48361928624E+02 -0.52942699614E+02  0.68447586593E+02  0.12770801840E+03  0.80513727220E+02 0.  0.
          5    1    5    5  501    0 -0.86669261290E+02 -0.22034094113E+02  0.25183299603E+03  0.26728077006E+03  0.47000000000E+01 0. -1.
        -13    1    6    6    0    0 -0.66743272304E+01  0.36326768633E+01 -0.16078662979E+02  0.17783880014E+02  0.00000000000E+00 0.  1.
         14    1    6    6    0    0 -0.41687601394E+02 -0.56575376478E+02  0.84526249572E+02  0.10992413839E+03  0.00000000000E+00 0. -1.
         -5    1    3    3    0  503  0.10848119596E+03  0.96451715828E+02  0.35910331877E+01  0.14527934775E+03  0.47000000000E+01 0.  1.
         13    1    4    4    0    0  0.50009020568E+02  0.28906547531E+01  0.10902007443E+02  0.51265112790E+02  0.00000000000E+00 0. -1.
        -14    1    4    4    0    0 -0.23459026618E+02 -0.24365576854E+02 -0.83294560683E+01  0.34833706430E+02  0.00000000000E+00 0.  1.
</event>
<event>
12    1  0.8417180E-002  0.1912989E+03  0.7818608E-02  0.1157994E+00
         21   -1    0    0  501  502  0.00000000000E+00  0.00000000000E+00  0.73826850961E+02  0.73826850961E+02  0.00000000000E+00 0.  1.
         21   -1    0    0  502  503 -0.00000000000E+00 -0.00000000000E+00 -0.67569070776E+03  0.67569070776E+03  0.00000000000E+00 0.  1.
         -6    2    1    2    0  503  0.75932185379E+02 -0.29753745693E+02 -0.50038166173E+03  0.53570241444E+03  0.17304417726E+03 0.  0.
        -24    2    3    3    0    0 -0.16025284332E+01  0.37275270368E+02 -0.21850213854E+03  0.23573128844E+03  0.80212479863E+02 0.  0.
          6    2    1    2  501    0 -0.75932185379E+02  0.29753745693E+02 -0.10148219507E+03  0.21381514428E+03  0.16960925048E+03 0.  0.
         24    2    5    5    0    0  0.25274655742E+02  0.13665876931E+02 -0.53572489462E+02  0.10059379425E+03  0.80146961261E+02 0.  0.
          5    1    5    5  501    0 -0.10120684112E+03  0.16087868762E+02 -0.47909705609E+02  0.11322135003E+03  0.47000000000E+01 0. -1.
        -11    1    6    6    0    0 -0.18272350940E+01  0.32472871411E+02  0.54504734904E+01  0.32977777775E+02  0.00000000000E+00 0.  1.
         12    1    6    6    0    0  0.27101890836E+02 -0.18806994480E+02 -0.59022962952E+02  0.67616016475E+02  0.00000000000E+00 0. -1.
         -5    1    3    3    0  503  0.77534713812E+02 -0.67029016061E+02 -0.28187952319E+03  0.29997112600E+03  0.47000000000E+01 0.  1.
         13    1    4    4    0    0  0.36120151353E+02  0.16623563576E+02 -0.63916391044E+02  0.75274917760E+02  0.00000000000E+00 0. -1.
        -14    1    4    4    0    0 -0.37722679786E+02  0.20651706792E+02 -0.15458574750E+03  0.16045637068E+03  0.00000000000E+00 0.  1.
</event>
<event>
12    1  0.8417180E-002  0.2978854E+03  0.7818608E-02  0.1086650E+00
         21   -1    0    0  503  502  0.00000000000E+00  0.00000000000E+00  0.14526031825E+04  0.14526031825E+04  0.00000000000E+00 0. -1.
         21   -1    0    0  501  503 -0.00000000000E+00 -0.00000000000E+00 -0.12740321689E+03  0.12740321689E+03  0.00000000000E+00 0. -1.
          6    2    1    2  501    0  0.18120864896E+03  0.16138161782E+03  0.91689069442E+02  0.31167711284E+03  0.17278638888E+03 0.  0.
         24    2    3    3    0    0  0.21136482531E+02  0.67375362830E+02  0.76589221467E+01  0.10785505786E+03  0.81165657801E+02 0.  0.
         -6    2    1    2    0  502 -0.18120864896E+03 -0.16138161782E+03  0.12335108961E+04  0.12683292865E+04  0.16801621099E+03 0.  0.
        -24    2    5    5    0    0 -0.84613372900E+02 -0.10351603234E+03  0.96215938647E+03  0.97450484041E+03  0.77678872183E+02 0.  0.
          5    1    3    3  501    0  0.16007216643E+03  0.94006254986E+02  0.84030147295E+02  0.20382205498E+03  0.47000000000E+01 0. -1.
        -11    1    4    4    0    0 -0.18161972817E+02  0.62492493619E+02  0.16802963540E+02  0.67212414025E+02  0.00000000000E+00 0.  1.
         12    1    4    4    0    0  0.39298455348E+02  0.48828692110E+01 -0.91440413935E+01  0.40642643830E+02  0.00000000000E+00 0. -1.
         -5    1    5    5    0  502 -0.96595276060E+02 -0.57865585474E+02  0.27135150965E+03  0.29382444610E+03  0.47000000000E+01 0.  1.
         13    1    6    6    0    0 -0.68180244639E+02 -0.71962587732E+02  0.43527570956E+03  0.44642144116E+03  0.00000000000E+00 0. -1.
        -14    1    6    6    0    0 -0.16433128261E+02 -0.31553444610E+02  0.52688367691E+03  0.52808339926E+03  0.00000000000E+00 0.  1.
</event>
<event>
12    1  0.8417180E-002  0.1869282E+03  0.7818608E-02  0.1163611E+00
         21   -1    0    0  503  502  0.00000000000E+00  0.00000000000E+00  0.89317341392E+03  0.89317341392E+03  0.00000000000E+00 0.  1.
         21   -1    0    0  501  503 -0.00000000000E+00 -0.00000000000E+00 -0.38020878895E+03  0.38020878895E+03  0.00000000000E+00 0.  1.
          6    2    1    2  501    0  0.33473515309E+02 -0.62833808807E+02 -0.34766702489E+03  0.39473347951E+03  0.17283979835E+03 0.  0.
         24    2    3    3    0    0 -0.27164462104E+02 -0.81161200833E+02 -0.26900427511E+03  0.29362573596E+03  0.80794333142E+02 0.  0.
         -6    2    1    2    0  502 -0.33473515309E+02  0.62833808807E+02  0.86063164986E+03  0.87864872336E+03  0.16207460804E+03 0.  0.
        -24    2    5    5    0    0  0.34457025681E+02  0.62363473303E+02  0.47502739921E+03  0.48707815791E+03  0.80731731593E+02 0.  0.
          5    1    3    3  501    0  0.60637977413E+02  0.18327392026E+02 -0.78662749779E+02  0.10110774355E+03  0.47000000000E+01 0. -1.
        -11    1    4    4    0    0  0.25851308260E+02 -0.45494674872E+02 -0.14450187543E+03  0.15368424638E+03  0.00000000000E+00 0.  1.
         12    1    4    4    0    0 -0.53015770364E+02 -0.35666525961E+02 -0.12450239967E+03  0.13994148958E+03  0.00000000000E+00 0. -1.
         -5    1    5    5    0  502 -0.67930540991E+02  0.47033550411E+00  0.38560425065E+03  0.39157056545E+03  0.47000000000E+01 0.  1.
         13    1    6    6    0    0 -0.76390647525E+01 -0.19050001524E+01  0.23764460344E+01  0.82238574664E+01  0.00000000000E+00 0. -1.
        -14    1    6    6    0    0  0.42096090434E+02  0.64268473455E+02  0.47265095318E+03  0.47885430044E+03  0.00000000000E+00 0.  1.
</event>
<event>
12    1  0.8417180E-002  0.1727659E+03  0.7818608E-02  0.1175972E+00
         21   -1    0    0  503  502  0.00000000000E+00  0.00000000000E+00  0.11229612514E+03  0.11229612514E+03  0.00000000000E+00 0. -1.
         21   -1    0    0  501  503 -0.00000000000E+00 -0.00000000000E+00 -0.51551755651E+03  0.51551755651E+03  0.00000000000E+00 0. -1.
          6    2    1    2  501    0 -0.22432034834E+02  0.87185916497E+01 -0.42147389426E+03  0.45408627919E+03  0.16725697407E+03 0.  0.
         24    2    3    3    0    0  0.28232014120E+02  0.38203909011E+01 -0.37675857691E+03  0.38617171644E+03  0.79811824290E+02 0.  0.
         -6    2    1    2    0  502  0.22432034834E+02 -0.87185916497E+01  0.18252462893E+02  0.17372740246E+03  0.17108140734E+03 0.  0.
        -24    2    5    5    0    0 -0.39441304843E+02  0.29602049769E+02 -0.12457910528E+02  0.94594610542E+02  0.79756146664E+02 0.  0.
          5    1    3    3  501    0 -0.50664048954E+02  0.48982007485E+01 -0.44715317353E+02  0.67914562746E+02  0.47000000000E+01 0. -1.
        -11    1    4    4    0    0  0.24728780244E+02 -0.36171924792E+02 -0.17032317121E+03  0.17586899489E+03  0.00000000000E+00 0.  1.
         12    1    4    4    0    0  0.35032338754E+01  0.39992315693E+02 -0.20643540570E+03  0.21030272155E+03  0.00000000000E+00 0. -1.
         -5    1    5    5    0  502  0.61873339678E+02 -0.38320641418E+02  0.30710373421E+02  0.79132791921E+02  0.47000000000E+01 0.  1.
         13    1    6    6    0    0  0.81781050921E+01  0.24382932301E+01  0.26172777900E+02  0.27528911707E+02  0.00000000000E+00 0. -1.
        -14    1    6    6    0    0 -0.47619409935E+02  0.27163756539E+02 -0.38630688428E+02  0.67065698835E+02  0.00000000000E+00 0.  1.
</event>
<event>
12    1  0.8417180E-002  0.2630164E+03  0.7818608E-02  0.1105763E+00
         21   -1    0    0  503  502  0.00000000000E+00  0.00000000000E+00  0.18453457534E+03  0.18453457534E+03  0.00000000000E+00 0. -1.
         21   -1    0    0  501  503 -0.00000000000E+00 -0.00000000000E+00 -0.42949632935E+03  0.42949632935E+03  0.00000000000E+00 0.  1.
          6    2    1    2  501    0  0.10409042157E+03 -0.16585352990E+03 -0.23646600456E+03  0.35368604446E+03  0.17560022063E+03 0.  0.
         24    2    3    3    0    0  0.64601912864E+02 -0.17093253800E+03 -0.24121051584E+03  0.31331601806E+03  0.81197749551E+02 0.  0.
         -6    2    1    2    0  502 -0.10409042157E+03  0.16585352990E+03 -0.84957494460E+01  0.26034486024E+03  0.17136236241E+03 0.  0.
        -24    2    5    5    0    0 -0.91095428310E+02  0.33106423074E+02 -0.16256323841E+02  0.12665499250E+03  0.79892469937E+02 0.  0.
          5    1    3    3  501    0  0.39488508711E+02  0.50790081043E+01  0.47445112750E+01  0.40370026391E+02  0.47000000000E+01 0. -1.
        -11    1    4    4    0    0  0.69341377269E+01 -0.35436311710E+02 -0.11107313824E+03  0.11679493351E+03  0.00000000000E+00 0.  1.
         12    1    4    4    0    0  0.57667775137E+02 -0.13549622629E+03 -0.13013737759E+03  0.19652108456E+03  0.00000000000E+00 0. -1.
         -5    1    5    5    0  502 -0.12994993265E+02  0.13274710683E+03  0.77605743947E+01  0.13368986774E+03  0.47000000000E+01 0.  1.
         11    1    6    6    0    0 -0.17426032599E+02 -0.15887246053E+01  0.28718802863E+02  0.33629753135E+02  0.00000000000E+00 0. -1.
        -12    1    6    6    0    0 -0.73669395711E+02  0.34695147679E+02 -0.44975126704E+02  0.93025239365E+02  0.00000000000E+00 0.  1.
</event>
<event>
12    1  0.8417180E-002  0.1866646E+03  0.7818608E-02  0.1162124E+00
         21   -1    0    0  501  502  0.00000000000E+00  0.00000000000E+00  0.26620020250E+03  0.26620020250E+03  0.00000000000E+00 0.  1.
         21   -1    0    0  502  503 -0.00000000000E+00 -0.00000000000E+00 -0.16524752445E+03  0.16524752445E+03  0.00000000000E+00 0. -1.
         -6    2    1    2    0  503  0.28042399556E+01  0.71223078724E+02 -0.50227830929E+02  0.19330422093E+03  0.17251984270E+03 0.  0.
        -24    2    3    3    0    0  0.54541752408E+02  0.84084830943E+02 -0.19928327010E+02  0.13180345018E+03  0.83246319513E+02 0.  0.
          6    2    1    2  501    0 -0.28042399556E+01 -0.71223078724E+02  0.15118050898E+03  0.23814350602E+03  0.16963546935E+03 0.  0.
         24    2    5    5    0    0  0.54674498612E+01 -0.84532973700E+01  0.88161246001E+01  0.82264789569E+02  0.81169084666E+02 0.  0.
          5    1    5    5  501    0 -0.82716898168E+01 -0.62769781354E+02  0.14236438438E+03  0.15587871645E+03  0.47000000000E+01 0. -1.
        -11    1    6    6    0    0  0.31567778430E+02 -0.17657300936E+02  0.30335382347E+02  0.47207418204E+02  0.00000000000E+00 0.  1.
         12    1    6    6    0    0 -0.26100328568E+02  0.92040035663E+01 -0.21519257747E+02  0.35057371365E+02  0.00000000000E+00 0. -1.
         -5    1    3    3    0  503 -0.51737512452E+02 -0.12861752219E+02 -0.30299503918E+02  0.61500770748E+02  0.47000000000E+01 0.  1.
         13    1    4    4    0    0 -0.10374232738E+02  0.82109677165E+01 -0.28661440426E+02  0.31567750364E+02  0.00000000000E+00 0. -1.
        -14    1    4    4    0    0  0.64915985146E+02  0.75873863227E+02  0.87331134158E+01  0.10023569982E+03  0.00000000000E+00 0.  1.
</event>
<event>
12    1  0.8417180E-002  0.2163067E+03  0.7818608E-02  0.1136684E+00
         21   -1    0    0  503  502  0.00000000000E+00  0.00000000000E+00  0.22536274878E+03  0.22536274878E+03  0.00000000000E+00 0.  1.
         21   -1    0    0  501  503 -0.00000000000E+00 -0.00000000000E+00 -0.20760031653E+03  0.20760031653E+03  0.00000000000E+00 0.  1.
          6    2    1    2  501    0 -0.11225323461E+03 -0.67669661446E+02  0.49107927437E+01  0.21636241973E+03  0.17207152300E+03 0.  0.
         24    2    3    3    0    0 -0.12171652314E+03  0.28234809419E+01 -0.15041752121E-01  0.14491180183E+03  0.78591004785E+02 0.  0.
         -6    2    1    2    0  502  0.11225323461E+03  0.67669661446E+02  0.12851639510E+02  0.21660064558E+03  0.17196134236E+03 0.  0.
        -24    2    5    5    0    0  0.70181172278E+02 -0.24039876960E+02  0.34352521498E+02  0.11332879177E+03  0.78485710063E+02 0.  0.
          5    1    3    3  501    0  0.94632885319E+01 -0.70493142388E+02  0.49258344958E+01  0.71450617905E+02  0.47000000000E+01 0. -1.
        -13    1    4    4    0    0 -0.17361987666E+02  0.21839237431E+02  0.23250076936E+02  0.36317447388E+02  0.00000000000E+00 0.  1.
         14    1    4    4    0    0 -0.10435453547E+03 -0.19015756489E+02 -0.23265118688E+02  0.10859435444E+03  0.00000000000E+00 0. -1.
         -5    1    5    5    0  502  0.42072062328E+02  0.91709538406E+02 -0.21500881988E+02  0.10327185381E+03  0.47000000000E+01 0.  1.
         11    1    6    6    0    0  0.33364014239E+02  0.34113949931E+01 -0.22393914576E+02  0.40327192711E+02  0.00000000000E+00 0. -1.
        -12    1    6    6    0    0  0.36817158039E+02 -0.27451271953E+02  0.56746436074E+02  0.73001599058E+02  0.00000000000E+00 0.  1.
</event>
<event>
12    1  0.8417180E-002  0.1814334E+03  0.7818608E-02  0.1167199E+00
         21   -1    0    0  503  502  0.00000000000E+00  0.00000000000E+00  0.53528506601E+03  0.53528506601E+03  0.00000000000E+00 0.  1.
         21   -1    0    0  501  503 -0.00000000000E+00 -0.00000000000E+00 -0.16739035050E+03  0.16739035050E+03  0.00000000000E+00 0. -1.
          6    2    1    2  501    0 -0.25413044681E+01 -0.45448524330E+02 -0.96325879413E+02  0.20541852221E+03  0.17563048605E+03 0.  0.
         24    2    3    3    0    0  0.40688820319E+02 -0.81399987995E+02 -0.62654102821E+02  0.13971289104E+03  0.85513842026E+02 0.  0.
         -6    2    1    2    0  502  0.25413044681E+01  0.45448524330E+02  0.46422059492E+03  0.49725689430E+03  0.17231259846E+03 0.  0.
        -24    2    5    5    0    0 -0.28312387913E+02 -0.33812842988E+02  0.28533408681E+03  0.29912363746E+03  0.78195330612E+02 0.  0.
          5    1    3    3  501    0 -0.43230124788E+02  0.35951463665E+02 -0.33671776593E+02  0.65705631172E+02  0.47000000000E+01 0. -1.
        -11    1    4    4    0    0  0.24805926764E+02  0.57993140724E+01 -0.41329198911E+02  0.48549652202E+02  0.00000000000E+00 0.  1.
         12    1    4    4    0    0  0.15882893555E+02 -0.87199302067E+02 -0.21324903910E+02  0.91163238838E+02  0.00000000000E+00 0. -1.
         -5    1    5    5    0  502  0.30853692381E+02  0.79261367318E+02  0.17888650810E+03  0.19813325683E+03  0.47000000000E+01 0.  1.
         13    1    6    6    0    0 -0.36666661777E+02 -0.52826960519E+01  0.51679934323E+02  0.63585899184E+02  0.00000000000E+00 0. -1.
        -14    1    6    6    0    0  0.83542738640E+01 -0.28530146937E+02  0.23365415249E+03  0.23553773828E+03  0.00000000000E+00 0.  1.
</event>
<event>
12    1  0.8417180E-002  0.2110548E+03  0.7818608E-02  0.1140913E+00
         21   -1    0    0  503  502  0.00000000000E+00  0.00000000000E+00  0.30011497586E+03  0.30011497586E+03  0.00000000000E+00 0.  1.
         21   -1    0    0  501  503 -0.00000000000E+00 -0.00000000000E+00 -0.35737985905E+03  0.35737985905E+03  0.00000000000E+00 0. -1.
          6    2    1    2  501    0 -0.12105336316E+03 -0.68107335116E+01 -0.28041985013E+03  0.35096925050E+03  0.17275363853E+03 0.  0.
         24    2    3    3    0    0 -0.11876731897E+03 -0.36357929910E+02 -0.12806748147E+03  0.19569015645E+03  0.80410088907E+02 0.  0.
         -6    2    1    2    0  502  0.12105336316E+03  0.68107335116E+01  0.22315496695E+03  0.30652558441E+03  0.17163767593E+03 0.  0.
        -24    2    5    5    0    0  0.33249184830E+02  0.63979032200E+02  0.11192519585E+03  0.15364674321E+03  0.76689291161E+02 0.  0.
          5    1    3    3  501    0 -0.22860441883E+01  0.29547196399E+02 -0.15235236866E+03  0.15527909405E+03  0.47000000000E+01 0. -1.
        -11    1    4    4    0    0  0.46731574769E+01 -0.22318911514E+02 -0.12458807349E+02  0.25984497158E+02  0.00000000000E+00 0.  1.
         12    1    4    4    0    0 -0.12344047645E+03 -0.14039018396E+02 -0.11560867412E+03  0.16970565929E+03  0.00000000000E+00 0. -1.
         -5    1    5    5    0  502  0.87804178332E+02 -0.57168298688E+02  0.11122977110E+03  0.15287884120E+03  0.47000000000E+01 0.  1.
         11    1    6    6    0    0  0.30077501570E+02 -0.92305284792E+01  0.40851426806E+02  0.51562562279E+02  0.00000000000E+00 0. -1.
        -12    1    6    6    0    0  0.31716832602E+01  0.73209560679E+02  0.71073769042E+02  0.10208418093E+03  0.00000000000E+00 0.  1.
</event>
<event>
12    1  0.8417180E-002  0.1980719E+03  0.7818608E-02  0.1151414E+00
         21   -1    0    0  503  502  0.00000000000E+00  0.00000000000E+00  0.38442636281E+02  0.38442636281E+02  0.00000000000E+00 0.  1.
         21   -1    0    0  501  503 -0.00000000000E+00 -0.00000000000E+00 -0.10249401595E+04  0.10249401595E+04  0.00000000000E+00 0.  1.
          6    2    1    2  501    0  0.81099712321E+02 -0.57096448554E+02 -0.53129104619E+03  0.56695011099E+03  0.17124568554E+03 0.  0.
         24    2    3    3    0    0  0.88755892197E+02 -0.43847607447E+02 -0.21380147060E+03  0.24905725248E+03  0.80735525675E+02 0.  0.
         -6    2    1    2    0  502 -0.81099712321E+02  0.57096448554E+02 -0.45520647698E+03  0.49643268474E+03  0.17145059352E+03 0.  0.
        -24    2    5    5    0    0 -0.76801104886E+02 -0.34163702382E+02 -0.26047414258E+03  0.28128235303E+03  0.64864588955E+02 0.  0.
          5    1    3    3  501    0 -0.76561798761E+01 -0.13248841107E+02 -0.31748957559E+03  0.31789285851E+03  0.47000000000E+01 0. -1.
        -13    1    4    4    0    0  0.62473933114E+02 -0.65530577520E+02 -0.17758295458E+03  0.19933126866E+03  0.00000000000E+00 0.  1.
         14    1    4    4    0    0  0.26281959083E+02  0.21682970073E+02 -0.36218516015E+02  0.49725983819E+02  0.00000000000E+00 0. -1.
         -5    1    5    5    0  502 -0.42986074351E+01  0.91260150936E+02 -0.19473233441E+03  0.21515033172E+03  0.47000000000E+01 0.  1.
         13    1    6    6    0    0  0.85983133663E+01  0.71188457735E+01 -0.32440069942E+02  0.34306954043E+02  0.00000000000E+00 0. -1.
        -14    1    6    6    0    0 -0.85399418252E+02 -0.41282548155E+02 -0.22803407264E+03  0.24697539898E+03  0.00000000000E+00 0.  1.
</event>
<event>
12    1  0.8417180E-002  0.2059974E+03  0.7818608E-02  0.1144803E+00
         21   -1    0    0  501  502  0.00000000000E+00  0.00000000000E+00  0.69842601358E+03  0.69842601358E+03  0.00000000000E+00 0.  1.
         21   -1    0    0  502  503 -0.00000000000E+00 -0.00000000000E+00 -0.63087167871E+02  0.63087167871E+02  0.00000000000E+00 0. -1.
         -6    2    1    2    0  503 -0.75037351835E+02 -0.85203991172E+02  0.39157083828E+03  0.44245075031E+03  0.17188548739E+03 0.  0.
        -24    2    3    3    0    0 -0.11295775444E+03 -0.32217783584E+02  0.23052885960E+03  0.26866322479E+03  0.72380476519E+02 0.  0.
          6    2    1    2  501    0  0.75037351835E+02  0.85203991172E+02  0.24376800743E+03  0.31906243114E+03  0.17171974039E+03 0.  0.
         24    2    5    5    0    0  0.86721647794E+02  0.75691481634E+01  0.98855540467E+02  0.15418246055E+03  0.80136614983E+02 0.  0.
          5    1    5    5  501    0 -0.11684295959E+02  0.77634843008E+02  0.14491246696E+03  0.16487997059E+03  0.47000000000E+01 0. -1.
        -11    1    6    6    0    0  0.39982151519E+01 -0.27988533650E+02  0.22941738394E+02  0.36409711628E+02  0.00000000000E+00 0.  1.
         12    1    6    6    0    0  0.82723432643E+02  0.35557681813E+02  0.75913802072E+02  0.11777274892E+03  0.00000000000E+00 0. -1.
         -5    1    3    3    0  503  0.37920402600E+02 -0.52986207588E+02  0.16104197868E+03  0.17378752552E+03  0.47000000000E+01 0.  1.
         13    1    4    4    0    0 -0.39105432179E+02  0.20235699728E+02  0.10504433697E+03  0.11389921465E+03  0.00000000000E+00 0. -1.
        -14    1    4    4    0    0 -0.73852322257E+02 -0.52453483312E+02  0.12548452263E+03  0.15476401014E+03  0.00000000000E+00 0.  1.
</event>
<event>
12    1  0.8417180E-002  0.2156611E+03  0.7818608E-02  0.1140598E+00
         21   -1    0    0  501  502  0.00000000000E+00  0.00000000000E+00  0.47440669308E+02  0.47440669308E+02  0.00000000000E+00 0. -1.
         21   -1    0    0  502  503 -0.00000000000E+00 -0.00000000000E+00 -0.12416111268E+04  0.12416111268E+04  0.00000000000E+00 0.  1.
         -6    2    1    2    0  503  0.46387225380E+02  0.80983627318E+02 -0.95112711166E+03  0.97527046861E+03  0.19442114554E+03 0.  0.
        -24    2    3    3    0    0  0.23666466113E+02 -0.16081043449E+02 -0.18726667820E+03  0.20491818879E+03  0.78127803995E+02 0.  0.
          6    2    1    2  501    0 -0.46387225380E+02 -0.80983627318E+02 -0.24304334581E+03  0.31378132748E+03  0.17515287882E+03 0.  0.
         24    2    5    5    0    0  0.32268124526E+02 -0.82123840430E+02 -0.13926575107E+03  0.18347459962E+03  0.80513491154E+02 0.  0.
          5    1    5    5  501    0 -0.78655349906E+02  0.11402131124E+01 -0.10377759474E+03  0.13030672786E+03  0.47000000000E+01 0. -1.
        -11    1    6    6    0    0  0.12009268511E+02 -0.60235151757E+02 -0.14079636455E+03  0.15361026108E+03  0.00000000000E+00 0.  1.
         12    1    6    6    0    0  0.20258856015E+02 -0.21888688673E+02  0.15306134846E+01  0.29864338541E+02  0.00000000000E+00 0. -1.
         -5    1    3    3    0  503  0.22720759267E+02  0.97064670766E+02 -0.76386043346E+03  0.77035227982E+03  0.47000000000E+01 0.  1.
         13    1    4    4    0    0 -0.27065878562E+02 -0.12852681162E+02 -0.94497599236E+02  0.99133997482E+02  0.00000000000E+00 0. -1.
        -14    1    4    4    0    0  0.50732344675E+02 -0.32283622863E+01 -0.92769078966E+02  0.10578419131E+03  0.00000000000E+00 0.  1.
</event>
<event>
12    1  0.8417180E-002  0.1968334E+03  0.7818608E-02  0.1152526E+00
         21   -1    0    0  501  502  0.00000000000E+00  0.00000000000E+00  0.16064273218E+04  0.16064273218E+04  0.00000000000E+00 0.  1.
         21   -1    0    0  502  503 -0.00000000000E+00 -0.00000000000E+00 -0.33648617307E+02  0.33648617307E+02  0.00000000000E+00 0.  1.
         -6    2    1    2    0  503 -0.91886649264E+02  0.26651035060E+02  0.34824833314E+03  0.39982675686E+03  0.17155494742E+03 0.  0.
        -24    2    3    3    0    0 -0.47035568755E+02 -0.41848937673E+02  0.26040199382E+03  0.27964799410E+03  0.80188053387E+02 0.  0.
          6    2    1    2  501    0  0.91886649264E+02 -0.26651035060E+02  0.12245303713E+04  0.12402491822E+04  0.17201735294E+03 0.  0.
         24    2    5    5    0    0 -0.26454399309E+02 -0.19968239538E+02  0.59352155578E+03  0.59818728580E+03  0.66795403183E+02 0.  0.
          5    1    5    5  501    0  0.11834104857E+03 -0.66827955217E+01  0.63100881555E+03  0.64206189642E+03  0.47000000000E+01 0. -1.
        -11    1    6    6    0    0 -0.39218479747E+01  0.20767607885E+02  0.32290173251E+03  0.32359265023E+03  0.00000000000E+00 0.  1.
         12    1    6    6    0    0 -0.22532551335E+02 -0.40735847423E+02  0.27061982328E+03  0.27459463557E+03  0.00000000000E+00 0. -1.
         -5    1    3    3    0  503 -0.44851080509E+02  0.68499972733E+02  0.87846339322E+02  0.12017876276E+03  0.47000000000E+01 0.  1.
         13    1    4    4    0    0  0.15491168278E+02  0.11600925042E+02  0.41179692970E+02  0.45500822735E+02  0.00000000000E+00 0. -1.
        -14    1    4    4    0    0 -0.62526737033E+02 -0.53449862715E+02  0.21922230085E+03  0.23414717136E+03  0.00000000000E+00 0.  1.
</event>
<event>
12    1  0.8417180E-002  0.2313520E+03  0.7818608E-02  0.1125999E+00
         21   -1    0    0  503  502  0.00000000000E+00  0.00000000000E+00  0.26472936766E+03  0.26472936766E+03  0.00000000000E+00 0. -1.
         21   -1    0    0  501  503 -0.00000000000E+00 -0.00000000000E+00 -0.10391858976E+04  0.10391858976E+04  0.00000000000E+00 0.  1.
          6    2    1    2  501    0 -0.19651443641E+02  0.15372816387E+03 -0.97315437277E+03  0.10002765580E+04  0.17177086966E+03 0.  0.
         24    2    3    3    0    0  0.36268538422E+02  0.14581936104E+03 -0.65260556018E+03  0.67475662804E+03  0.82606276836E+02 0.  0.
         -6    2    1    2    0  502  0.19651443641E+02 -0.15372816387E+03  0.19869784285E+03  0.30363870723E+03  0.16940219649E+03 0.  0.
        -24    2    5    5    0    0 -0.20315361221E+02 -0.13520264136E+03  0.79922689612E+02  0.17687054285E+03  0.78759662768E+02 0.  0.
          5    1    3    3  501    0 -0.55919982064E+02  0.79088028299E+01 -0.32054881259E+03  0.32551992998E+03  0.47000000000E+01 0. -1.
        -13    1    4    4    0    0 -0.78637426036E+01  0.17223554823E+02 -0.23093071581E+03  0.23170559940E+03  0.00000000000E+00 0.  1.
         14    1    4    4    0    0  0.44132281026E+02  0.12859580621E+03 -0.42167484437E+03  0.44305102864E+03  0.00000000000E+00 0. -1.
         -5    1    5    5    0  502  0.39966804863E+02 -0.18525522503E+02  0.11877515324E+03  0.12676816439E+03  0.47000000000E+01 0.  1.
         13    1    6    6    0    0 -0.40650833255E+01  0.10365824679E+02  0.35753286713E+01  0.11694366115E+02  0.00000000000E+00 0. -1.
        -14    1    6    6    0    0 -0.16250277896E+02 -0.14556846604E+03  0.76347360940E+02  0.16517617673E+03  0.00000000000E+00 0.  1.
</event>
<event>
12    1  0.8417180E-002  0.2271692E+03  0.7818608E-02  0.1129032E+00
         21   -1    0    0  501  502  0.00000000000E+00  0.00000000000E+00  0.24492901440E+03  0.24492901440E+03  0.00000000000E+00 0. -1.
         21   -1    0    0  502  503 -0.00000000000E+00 -0.00000000000E+00 -0.21557725596E+03  0.21557725596E+03  0.00000000000E+00 0. -1.
         -6    2    1    2    0  503  0.12749884488E+03  0.71968925888E+02 -0.26449319174E+02  0.22658408474E+03  0.17089557991E+03 0.  0.
        -24    2    3    3    0    0  0.13125330822E+03  0.16708002841E+01 -0.19152272303E+02  0.15565271402E+03  0.81429327365E+02 0.  0.
          6    2    1    2  501    0 -0.12749884488E+03 -0.71968925888E+02  0.55801077614E+02  0.23392218563E+03  0.17369613389E+03 0.  0.
         24    2    5    5    0    0 -0.97612523104E+02 -0.11244791248E+03  0.71532799332E+02  0.18099471022E+03  0.73955432931E+02 0.  0.
          5    1    5    5  501    0 -0.29886321776E+02  0.40478986594E+02 -0.15731721719E+02  0.52927475409E+02  0.47000000000E+01 0. -1.
        -13    1    6    6    0    0 -0.51243726258E+02 -0.16752463758E+02  0.47776449663E+02  0.72035780451E+02  0.00000000000E+00 0.  1.
         14    1    6    6    0    0 -0.46368796846E+02 -0.95695448724E+02  0.23756349669E+02  0.10895892977E+03  0.00000000000E+00 0. -1.
         -5    1    3    3    0  503 -0.37544633429E+01  0.70298125604E+02 -0.72970468707E+01  0.70931370714E+02  0.47000000000E+01 0.  1.
         13    1    4    4    0    0  0.78078329761E+02  0.40259465381E+02 -0.19343044880E+02  0.89951117371E+02  0.00000000000E+00 0. -1.
        -14    1    4    4    0    0  0.53174978461E+02 -0.38588665097E+02  0.19077257630E+00  0.65701596651E+02  0.00000000000E+00 0.  1.
</event>
<event>
12    1  0.8417180E-002  0.2087384E+03  0.7818608E-02  0.1142833E+00
         21   -1    0    0  503  502  0.00000000000E+00  0.00000000000E+00  0.20423973930E+03  0.20423973930E+03  0.00000000000E+00 0. -1.
         21   -1    0    0  501  503 -0.00000000000E+00 -0.00000000000E+00 -0.22815776922E+03  0.22815776922E+03  0.00000000000E+00 0.  1.
          6    2    1    2  501    0  0.52478866367E+02  0.10524119307E+03 -0.69474218596E+02  0.21874568604E+03  0.17086037568E+03 0.  0.
         24    2    3    3    0    0  0.62981642669E+01 -0.90703732559E+01 -0.51857145056E+02  0.94117267445E+02  0.77762188715E+02 0.  0.
         -6    2    1    2    0  502 -0.52478866367E+02 -0.10524119307E+03  0.45556188669E+02  0.21365182248E+03  0.17245867560E+03 0.  0.
        -24    2    5    5    0    0 -0.77174919362E+02 -0.13116698083E+03  0.29785129393E+02  0.17424550553E+03  0.79458147632E+02 0.  0.
          5    1    3    3  501    0  0.46180702100E+02  0.11431156633E+03 -0.17617073540E+02  0.12462841860E+03  0.47000000000E+01 0. -1.
        -13    1    4    4    0    0 -0.31203866878E+02  0.14322192417E+02 -0.23373200030E+02  0.41534479452E+02  0.00000000000E+00 0.  1.
         14    1    4    4    0    0  0.37502031145E+02 -0.23392565673E+02 -0.28483945027E+02  0.52582787992E+02  0.00000000000E+00 0. -1.
         -5    1    5    5    0  502  0.24696052994E+02  0.25925787764E+02  0.15771059276E+02  0.39406316947E+02  0.47000000000E+01 0.  1.
         13    1    6    6    0    0  0.37608661319E+01 -0.27541462131E+02  0.32454452339E+02  0.42731343613E+02  0.00000000000E+00 0. -1.
        -14    1    6    6    0    0 -0.80935785493E+02 -0.10362551870E+03 -0.26693229456E+01  0.13151416192E+03  0.00000000000E+00 0.  1.
</event>
<event>
12    1  0.8417180E-002  0.3405856E+03  0.7818608E-02  0.1066737E+00
         21   -1    0    0  501  502  0.00000000000E+00  0.00000000000E+00  0.54940388519E+02  0.54940388519E+02  0.00000000000E+00 0.  1.
         21   -1    0    0  502  503 -0.00000000000E+00 -0.00000000000E+00 -0.25427690050E+04  0.25427690050E+04  0.00000000000E+00 0. -1.
         -6    2    1    2    0  503  0.57437214791E+02 -0.28725886048E+03 -0.17830221036E+04  0.18149254006E+04  0.17020487938E+03 0.  0.
        -24    2    3    3    0    0  0.31823570839E+02 -0.24243591915E+03 -0.16802037207E+04  0.16997782569E+04  0.79835236443E+02 0.  0.
          6    2    1    2  501    0 -0.57437214791E+02  0.28725886048E+03 -0.70480651289E+03  0.78278399301E+03  0.17372930821E+03 0.  0.
         24    2    5    5    0    0  0.17635883911E+02  0.11593367840E+03 -0.36774840379E+03  0.39727323172E+03  0.93997286970E+02 0.  0.
          5    1    5    5  501    0 -0.75073098701E+02  0.17132518208E+03 -0.33705810909E+03  0.38551076129E+03  0.47000000000E+01 0. -1.
        -13    1    6    6    0    0  0.41299444997E+02  0.29958169786E+02 -0.71099918490E+02  0.87511910637E+02  0.00000000000E+00 0.  1.
         14    1    6    6    0    0 -0.23663561086E+02  0.85975508617E+02 -0.29664848530E+03  0.30976132108E+03  0.00000000000E+00 0. -1.
         -5    1    3    3    0  503  0.25613643952E+02 -0.44822941333E+02 -0.10281838295E+03  0.11514714369E+03  0.47000000000E+01 0.  1.
         11    1    4    4    0    0  0.27033104724E+02 -0.22292957563E+02 -0.31317009590E+03  0.31512421943E+03  0.00000000000E+00 0. -1.
        -12    1    4    4    0    0  0.47904661146E+01 -0.22014296158E+03 -0.13670336248E+04  0.13846540374E+04  0.00000000000E+00 0.  1.
</event>
<event>
12    1  0.8417180E-002  0.2707468E+03  0.7818608E-02  0.1101188E+00
         21   -1    0    0  503  502  0.00000000000E+00  0.00000000000E+00  0.10819229301E+03  0.10819229301E+03  0.00000000000E+00 0. -1.
         21   -1    0    0  501  503 -0.00000000000E+00 -0.00000000000E+00 -0.95636563845E+03  0.95636563845E+03  0.00000000000E+00 0.  1.
          6    2    1    2  501    0  0.12398688839E+03 -0.16959280926E+03 -0.71578436793E+03  0.76527842561E+03  0.17079033312E+03 0.  0.
         24    2    3    3    0    0  0.10903210920E+03 -0.10492335932E+03 -0.64817260244E+03  0.67041418572E+03  0.80190683354E+02 0.  0.
         -6    2    1    2    0  502 -0.12398688839E+03  0.16959280926E+03 -0.13238897752E+03  0.29927950585E+03  0.16705361957E+03 0.  0.
        -24    2    5    5    0    0 -0.45341104205E+02  0.22339815986E+02 -0.68221726388E+02  0.12037134641E+03  0.85323935540E+02 0.  0.
          5    1    3    3  501    0  0.14954779192E+02 -0.64669449944E+02 -0.67611765483E+02  0.94864239882E+02  0.47000000000E+01 0. -1.
        -11    1    4    4    0    0  0.36965200630E+01 -0.36468241784E+02 -0.25602932847E+03  0.25863993109E+03  0.00000000000E+00 0.  1.
         12    1    4    4    0    0  0.10533558913E+03 -0.68455117532E+02 -0.39214327397E+03  0.41177425463E+03  0.00000000000E+00 0. -1.
         -5    1    5    5    0  502 -0.78645784183E+02  0.14725299327E+03 -0.64167251127E+02  0.17890815944E+03  0.47000000000E+01 0.  1.
         13    1    6    6    0    0 -0.48907316465E+02  0.48575817487E+02 -0.33317718470E+02  0.76561125987E+02  0.00000000000E+00 0. -1.
        -14    1    6    6    0    0  0.35662122599E+01 -0.26236001501E+02 -0.34904007919E+02  0.43810220422E+02  0.00000000000E+00 0.  1.
</event>
<event>
12    1  0.8417180E-002  0.1871728E+03  0.7818608E-02  0.1161304E+00
         21   -1    0    0  503  502  0.00000000000E+00  0.00000000000E+00  0.10921402954E+03  0.10921402954E+03  0.00000000000E+00 0. -1.
         21   -1    0    0  501  503 -0.00000000000E+00 -0.00000000000E+00 -0.34067964775E+03  0.34067964775E+03  0.00000000000E+00 0. -1.
          6    2    1    2  501    0  0.67584079089E+02 -0.28208145828E+02 -0.17241034308E+03  0.25362553861E+03  0.17098912304E+03 0.  0.
         24    2    3    3    0    0  0.39151819854E+02 -0.38653647193E+02 -0.19352675611E+03  0.21640330381E+03  0.79692001667E+02 0.  0.
         -6    2    1    2    0  502 -0.67584079089E+02  0.28208145828E+02 -0.59055275134E+02  0.19626813868E+03  0.17225083310E+03 0.  0.
        -24    2    5    5    0    0  0.32315973903E+02  0.53221959125E+01 -0.36356383997E+02  0.91191419330E+02  0.76950895794E+02 0.  0.
          5    1    3    3  501    0  0.28432259235E+02  0.10445501365E+02  0.21116413035E+02  0.37222234799E+02  0.47000000000E+01 0. -1.
        -13    1    4    4    0    0 -0.11915405169E+02  0.15255173267E+02 -0.20921154732E+02  0.28502489489E+02  0.00000000000E+00 0.  1.
         14    1    4    4    0    0  0.51067225023E+02 -0.53908820460E+02 -0.17260560138E+03  0.18790081432E+03  0.00000000000E+00 0. -1.
         -5    1    5    5    0  502 -0.99900052993E+02  0.22885949915E+02 -0.22698891137E+02  0.10507671935E+03  0.47000000000E+01 0.  1.
         11    1    6    6    0    0  0.67444129864E+01  0.13435141940E+02  0.22183293844E+02  0.26797176554E+02  0.00000000000E+00 0. -1.
        -12    1    6    6    0    0  0.25571560917E+02 -0.81129460278E+01 -0.58539677841E+02  0.64394242776E+02  0.00000000000E+00 0.  1.
</event>
<event>
12    1  0.8417180E-002  0.3172204E+03  0.7818608E-02  0.1077057E+00
         21   -1    0    0  503  502  0.00000000000E+00  0.00000000000E+00  0.67302970785E+03  0.67302970785E+03  0.00000000000E+00 0. -1.
         21   -1    0    0  501  503 -0.00000000000E+00 -0.00000000000E+00 -0.14912659962E+03  0.14912659962E+03  0.00000000000E+00 0. -1.
          6    2    1    2  501    0  0.16908794914E+03 -0.20468384995E+03  0.25074768045E+03  0.40353632060E+03  0.17170017419E+03 0.  0.
         24    2    3    3    0    0  0.14027169474E+03 -0.18071153479E+03  0.26857091865E+03  0.36176544280E+03  0.80069283202E+02 0.  0.
         -6    2    1    2    0  502 -0.16908794914E+03  0.20468384995E+03  0.27315542778E+03  0.41861998687E+03  0.17361622248E+03 0.  0.
        -24    2    5    5    0    0 -0.81319397731E+02  0.38289067761E+02  0.63659888013E+02  0.13701563084E+03  0.81497267407E+02 0.  0.
          5    1    3    3  501    0  0.28816254403E+02 -0.23972315162E+02 -0.17823238198E+02  0.41770877796E+02  0.47000000000E+01 0. -1.
        -11    1    4    4    0    0  0.92139364054E+02 -0.67133414250E+02  0.16578124028E+03  0.20119636514E+03  0.00000000000E+00 0.  1.
         12    1    4    4    0    0  0.48132330685E+02 -0.11357812054E+03  0.10278967837E+03  0.16056907766E+03  0.00000000000E+00 0. -1.
         -5    1    5    5    0  502 -0.87768551411E+02  0.16639478219E+03  0.20949553976E+03  0.28160435604E+03  0.47000000000E+01 0.  1.
         13    1    6    6    0    0 -0.43701374761E+02  0.38251704352E+02  0.77574882922E+02  0.96906478123E+02  0.00000000000E+00 0. -1.
        -14    1    6    6    0    0 -0.37618022970E+02  0.37363408838E-01 -0.13914994909E+02  0.40109152715E+02  0.00000000000E+00 0.  1.
</event>
<event>
12    1  0.8417180E-002  0.2328686E+03  0.7818608E-02  0.1125104E+00
         21   -1    0    0  501  502  0.00000000000E+00  0.00000000000E+00  0.12420224571E+03  0.12420224571E+03  0.00000000000E+00 0.  1.
         21   -1    0    0  502  503 -0.00000000000E+00 -0.00000000000E+00 -0.53255346419E+03  0.53255346419E+03  0.00000000000E+00 0. -1.
         -6    2    1    2    0  503 -0.13228869302E+03  0.77027890124E+02 -0.34810229723E+03  0.41881142914E+03  0.17548279027E+03 0.  0.
        -24    2    3    3    0    0 -0.77026048415E+02  0.11598599108E+03 -0.27827118460E+03  0.32149664192E+03  0.80867028683E+02 0.  0.
          6    2    1    2  501    0  0.13228869302E+03 -0.77027890124E+02 -0.60248921249E+02  0.23794428076E+03  0.17191263502E+03 0.  0.
         24    2    5    5    0    0  0.93131285383E+02  0.21383678338E+02 -0.22525269334E+02  0.12541293716E+03  0.78040496100E+02 0.  0.
          5    1    5    5  501    0  0.39157407640E+02 -0.98411568462E+02 -0.37723651915E+02  0.11253134361E+03  0.47000000000E+01 0. -1.
        -11    1    6    6    0    0 -0.32757292060E+01  0.24377644849E+02  0.50190173934E+01  0.25103595475E+02  0.00000000000E+00 0.  1.
         12    1    6    6    0    0  0.96407014589E+02 -0.29939665107E+01 -0.27544286727E+02  0.10030934168E+03  0.00000000000E+00 0. -1.
         -5    1    3    3    0  503 -0.55262644608E+02 -0.38958100959E+02 -0.69831112634E+02  0.97314787217E+02  0.47000000000E+01 0.  1.
         13    1    4    4    0    0 -0.73906554096E+02  0.40879841999E+02 -0.16808258225E+03  0.18810926260E+03  0.00000000000E+00 0. -1.
        -14    1    4    4    0    0 -0.31194943197E+01  0.75106149085E+02 -0.11018860234E+03  0.13338737932E+03  0.00000000000E+00 0.  1.
</event>
<event>
12    1  0.8417180E-002  0.1789967E+03  0.7818608E-02  0.1169411E+00
         21   -1    0    0  501  502  0.00000000000E+00  0.00000000000E+00  0.15658674671E+03  0.15658674671E+03  0.00000000000E+00 0.  1.
         21   -1    0    0  502  503 -0.00000000000E+00 -0.00000000000E+00 -0.31305985639E+03  0.31305985639E+03  0.00000000000E+00 0. -1.
         -6    2    1    2    0  503 -0.25159950777E+02  0.40930875146E+02 -0.21793646300E+03  0.28039127560E+03  0.16974865496E+03 0.  0.
        -24    2    3    3    0    0 -0.11281080882E+02 -0.11032062819E+02 -0.20905429634E+03  0.22567607811E+03  0.83528583240E+02 0.  0.
          6    2    1    2  501    0  0.25159950777E+02 -0.40930875146E+02  0.61463353330E+02  0.18925532751E+03  0.17242817497E+03 0.  0.
         24    2    5    5    0    0  0.67875954760E+02 -0.71611528103E+02  0.47295946061E+02  0.13458573001E+03  0.78364890196E+02 0.  0.
          5    1    5    5  501    0 -0.42716003982E+02  0.30680652957E+02  0.14167407269E+02  0.54669597500E+02  0.47000000000E+01 0. -1.
        -13    1    6    6    0    0  0.21385142226E+02 -0.70562255719E+02  0.48174782554E+02  0.88074774563E+02  0.00000000000E+00 0.  1.
         14    1    6    6    0    0  0.46490812533E+02 -0.10492723835E+01 -0.87883649322E+00  0.46510955442E+02  0.00000000000E+00 0. -1.
         -5    1    3    3    0  503 -0.13878869895E+02  0.51962937964E+02 -0.88821666648E+01  0.54715197487E+02  0.47000000000E+01 0.  1.
         13    1    4    4    0    0  0.29561362458E+02  0.10612727195E+02 -0.13315576039E+03  0.13680994355E+03  0.00000000000E+00 0. -1.
        -14    1    4    4    0    0 -0.40842443341E+02 -0.21644790013E+02 -0.75898535947E+02  0.88866134560E+02  0.00000000000E+00 0.  1.
</event>
<event>
12    1  0.8417180E-002  0.2397322E+03  0.7818608E-02  0.1121641E+00
         21   -1    0    0  503  502  0.00000000000E+00  0.00000000000E+00  0.12311986545E+03  0.12311986545E+03  0.00000000000E+00 0. -1.
         21   -1    0    0  501  503 -0.00000000000E+00 -0.00000000000E+00 -0.47497725018E+03  0.47497725018E+03  0.00000000000E+00 0.  1.
          6    2    1    2  501    0  0.11676762804E+03 -0.11185096956E+03 -0.25073569498E+03  0.34690046472E+03  0.17699216179E+03 0.  0.
         24    2    3    3    0    0  0.14909341193E+03 -0.98272668372E+02 -0.16946095174E+03  0.25826074193E+03  0.78071978492E+02 0.  0.
         -6    2    1    2    0  502 -0.11676762804E+03  0.11185096956E+03 -0.10112168974E+03  0.25119665091E+03  0.16348958053E+03 0.  0.
        -24    2    5    5    0    0 -0.49737084448E+02  0.10238278416E+03 -0.23219551846E+02  0.14788366335E+03  0.91511847520E+02 0.  0.
          5    1    3    3  501    0 -0.32325783894E+02 -0.13578301189E+02 -0.81274743240E+02  0.88639722790E+02  0.47000000000E+01 0. -1.
        -11    1    4    4    0    0  0.69679117504E+02 -0.87517656480E+02 -0.12014774751E+03  0.16416455416E+03  0.00000000000E+00 0.  1.
         12    1    4    4    0    0  0.79414294431E+02 -0.10755011892E+02 -0.49313204234E+02  0.94096187768E+02  0.00000000000E+00 0. -1.
         -5    1    5    5    0  502 -0.67030543591E+02  0.94681853994E+01 -0.77902137899E+02  0.10331298756E+03  0.47000000000E+01 0.  1.
         13    1    6    6    0    0  0.25600823704E+02  0.36411748979E+02  0.22093662406E+01  0.44565669940E+02  0.00000000000E+00 0. -1.
        -14    1    6    6    0    0 -0.75337908152E+02  0.65971035183E+02 -0.25428918087E+02  0.10331799341E+03  0.00000000000E+00 0.  1.
</event>
<event>
12    1  0.8417180E-002  0.2224848E+03  0.7818608E-02  0.1132044E+00
         21   -1    0    0  503  502  0.00000000000E+00  0.00000000000E+00  0.21689724974E+02  0.21689724974E+02  0.00000000000E+00 0. -1.
         21   -1    0    0  501  503 -0.00000000000E+00 -0.00000000000E+00 -0.23493981852E+04  0.23493981852E+04  0.00000000000E+00 0. -1.
          6    2    1    2  501    0  0.45742861455E+02 -0.13369915805E+03 -0.13644299530E+04  0.13824502155E+04  0.17184768636E+03 0.  0.
         24    2    3    3    0    0  0.33469213843E+02 -0.79698462746E+02 -0.12391143398E+04  0.12453633436E+04  0.89741168241E+02 0.  0.
         -6    2    1    2    0  502 -0.45742861455E+02  0.13369915805E+03 -0.96327850721E+03  0.98863769471E+03  0.17184625313E+03 0.  0.
        -24    2    5    5    0    0 -0.46383792277E+02  0.16508708186E+03 -0.78400819356E+03  0.80657850678E+03  0.80590565495E+02 0.  0.
          5    1    3    3  501    0  0.12273647611E+02 -0.54000695302E+02 -0.12531561327E+03  0.13708687190E+03  0.47000000000E+01 0. -1.
        -13    1    4    4    0    0 -0.27894010890E+01  0.18870008749E+02 -0.23426546762E+03  0.23504077797E+03  0.00000000000E+00 0.  1.
         14    1    4    4    0    0  0.36258614932E+02 -0.98568471495E+02 -0.10048488722E+04  0.10103225656E+04  0.00000000000E+00 0. -1.
         -5    1    5    5    0  502  0.64093082216E+00 -0.31387923817E+02 -0.17927031365E+03  0.18205918793E+03  0.47000000000E+01 0.  1.
         11    1    6    6    0    0  0.20169158912E+02  0.69840921096E+02 -0.33307391708E+03  0.34091462784E+03  0.00000000000E+00 0. -1.
        -12    1    6    6    0    0 -0.66552951189E+02  0.95246160769E+02 -0.45093427648E+03  0.46566387895E+03  0.00000000000E+00 0.  1.
</event>
<event>
12    1  0.8417180E-002  0.1820034E+03  0.7818608E-02  0.1166049E+00
         21   -1    0    0  501  502  0.00000000000E+00  0.00000000000E+00  0.15748064837E+03  0.15748064837E+03  0.00000000000E+00 0.  1.
         21   -1    0    0  502  503 -0.00000000000E+00 -0.00000000000E+00 -0.25640265680E+03  0.25640265680E+03  0.00000000000E+00 0. -1.
         -6    2    1    2    0  503  0.41224358256E+02  0.40872529163E+02 -0.13803313791E+03  0.22842590200E+03  0.17249705559E+03 0.  0.
        -24    2    3    3    0    0  0.93019494696E+02  0.35913653030E+02 -0.86036579710E+02  0.15471661713E+03  0.81194345245E+02 0.  0.
          6    2    1    2  501    0 -0.41224358256E+02 -0.40872529163E+02  0.39111129487E+02  0.18545740317E+03  0.17174037553E+03 0.  0.
         24    2    5    5    0    0 -0.17544760319E+02 -0.65189726113E+01  0.88288139810E+02  0.12079397803E+03  0.80287445335E+02 0.  0.
          5    1    5    5  501    0 -0.23679597937E+02 -0.34353556551E+02 -0.49177010323E+02  0.64663425137E+02  0.47000000000E+01 0. -1.
        -13    1    6    6    0    0  0.63999412930E+01  0.27961376195E+02  0.68743601273E+02  0.74488123370E+02  0.00000000000E+00 0.  1.
         14    1    6    6    0    0 -0.23944701612E+02 -0.34480348806E+02  0.19544538538E+02  0.46305854659E+02  0.00000000000E+00 0. -1.
         -5    1    3    3    0  503 -0.51795136440E+02  0.49588761324E+01 -0.51996558203E+02  0.73709284872E+02  0.47000000000E+01 0.  1.
         13    1    4    4    0    0 -0.11459821673E+02  0.18567331483E+02 -0.21830430766E+02  0.30864883259E+02  0.00000000000E+00 0. -1.
        -14    1    4    4    0    0  0.10447931637E+03  0.17346321547E+02 -0.64206148944E+02  0.12385173387E+03  0.00000000000E+00 0.  1.
</event>
<event>
12    1  0.8417180E-002  0.1921482E+03  0.7818608E-02  0.1157907E+00
         21   -1    0    0  501  502  0.00000000000E+00  0.00000000000E+00  0.14023738293E+03  0.14023738293E+03  0.00000000000E+00 0.  1.
         21   -1    0    0  502  503 -0.00000000000E+00 -0.00000000000E+00 -0.54281392803E+03  0.54281392803E+03  0.00000000000E+00 0.  1.
         -6    2    1    2    0  503  0.41846185663E+02  0.61581726237E+02 -0.45145802169E+03  0.49064780176E+03  0.17713697457E+03 0.  0.
        -24    2    3    3    0    0 -0.30754676469E+02 -0.51408665530E+01 -0.27993457447E+03  0.29274587525E+03  0.79777834362E+02 0.  0.
          6    2    1    2  501    0 -0.41846185663E+02 -0.61581726237E+02  0.48881476593E+02  0.19240350920E+03  0.17054705901E+03 0.  0.
         24    2    5    5    0    0 -0.68475384058E+02 -0.81479292586E+02  0.72264390615E+02  0.15149045478E+03  0.79996639904E+02 0.  0.
          5    1    5    5  501    0  0.26629198395E+02  0.19897566349E+02 -0.23382914022E+02  0.40913054420E+02  0.47000000000E+01 0. -1.
        -13    1    6    6    0    0  0.13848821089E+02 -0.37021481027E+02  0.23464893904E+02  0.45967174689E+02  0.00000000000E+00 0.  1.
         14    1    6    6    0    0 -0.82324205147E+02 -0.44457811560E+02  0.48799496712E+02  0.10552328009E+03  0.00000000000E+00 0. -1.
         -5    1    3    3    0  503  0.72600862131E+02  0.66722592790E+02 -0.17152344722E+03  0.19790192651E+03  0.47000000000E+01 0.  1.
         13    1    4    4    0    0 -0.42060828167E+02 -0.10308579238E+02 -0.69123603088E+02  0.81568698505E+02  0.00000000000E+00 0. -1.
        -14    1    4    4    0    0  0.11306151698E+02  0.51677126846E+01 -0.21081097139E+03  0.21117717674E+03  0.00000000000E+00 0.  1.
</event>
<event>
12    1  0.8417180E-002  0.2541728E+03  0.7818608E-02  0.1110736E+00
         21   -1    0    0  503  502  0.00000000000E+00  0.00000000000E+00  0.62850729494E+03  0.62850729494E+03  0.00000000000E+00 0.  1.
         21   -1    0    0  501  503 -0.00000000000E+00 -0.00000000000E+00 -0.13887197372E+03  0.13887197372E+03  0.00000000000E+00 0.  1.
          6    2    1    2  501    0 -0.17173841789E+03  0.72837004306E+02  0.48860447549E+02  0.25857058325E+03  0.17225588470E+03 0.  0.
         24    2    3    3    0    0 -0.13838411111E+03  0.11055380775E+03  0.12566427090E+02  0.19632580063E+03  0.83747228529E+02 0.  0.
         -6    2    1    2    0  502  0.17173841789E+03 -0.72837004306E+02  0.44077487368E+03  0.50880868541E+03  0.17263972806E+03 0.  0.
        -24    2    5    5    0    0  0.12739910561E+03 -0.98541550895E+00  0.17808447759E+03  0.23284318100E+03  0.79185621335E+02 0.  0.
          5    1    3    3  501    0 -0.33354306778E+02 -0.37716803447E+02  0.36294020459E+02  0.62244782624E+02  0.47000000000E+01 0. -1.
        -11    1    4    4    0    0 -0.67829150903E+02  0.28268542815E+02 -0.30671227223E+02  0.79628062920E+02  0.00000000000E+00 0.  1.
         12    1    4    4    0    0 -0.70554960206E+02  0.82285264937E+02  0.43237654313E+02  0.11669773771E+03  0.00000000000E+00 0. -1.
         -5    1    5    5    0  502  0.44339312279E+02 -0.71851588797E+02  0.26269039609E+03  0.27596550441E+03  0.47000000000E+01 0.  1.
         11    1    6    6    0    0  0.15326615525E+01  0.81087648765E+01  0.58198940057E+02  0.58781100220E+02  0.00000000000E+00 0. -1.
        -12    1    6    6    0    0  0.12586644406E+03 -0.90941803855E+01  0.11988553753E+03  0.17406208078E+03  0.00000000000E+00 0.  1.
</event>
<event>
12    1  0.8417180E-002  0.1787490E+03  0.7818608E-02  0.1169328E+00
         21   -1    0    0  501  502  0.00000000000E+00  0.00000000000E+00  0.98419783441E+03  0.98419783441E+03  0.00000000000E+00 0. -1.
         21   -1    0    0  502  503 -0.00000000000E+00 -0.00000000000E+00 -0.32550362042E+02  0.32550362042E+02  0.00000000000E+00 0. -1.
         -6    2    1    2    0  503  0.37565369330E+02  0.29509513660E+02  0.42752466897E+03  0.46338812982E+03  0.17224763542E+03 0.  0.
        -24    2    3    3    0    0  0.53418436148E+01  0.42317398499E+02  0.41761855789E+03  0.42702030667E+03  0.78241836068E+02 0.  0.
          6    2    1    2  501    0 -0.37565369330E+02 -0.29509513660E+02  0.52412280340E+03  0.55336006664E+03  0.17094058012E+03 0.  0.
         24    2    5    5    0    0  0.16694449814E+02  0.36684786103E+02  0.22933092089E+03  0.24635818181E+03  0.80468654026E+02 0.  0.
          5    1    5    5  501    0 -0.54259819143E+02 -0.66194299763E+02  0.29479188251E+03  0.30700188483E+03  0.47000000000E+01 0. -1.
        -13    1    6    6    0    0 -0.89129419927E+01  0.41306252098E+02  0.20929197178E+03  0.21351528387E+03  0.00000000000E+00 0.  1.
         14    1    6    6    0    0  0.25607391806E+02 -0.46214659951E+01  0.20038949112E+02  0.32842897932E+02  0.00000000000E+00 0. -1.
         -5    1    3    3    0  503  0.32223525715E+02 -0.12807884839E+02  0.99061110837E+01  0.36367823145E+02  0.47000000000E+01 0.  1.
         11    1    4    4    0    0 -0.17666124669E+02  0.53598002805E+02  0.19716829151E+03  0.20508576997E+03  0.00000000000E+00 0. -1.
        -12    1    4    4    0    0  0.23007968284E+02 -0.11280604306E+02  0.22045026638E+03  0.22193453671E+03  0.00000000000E+00 0.  1.
</event>
<event>
12    1  0.8417180E-002  0.2717329E+03  0.7818608E-02  0.1100310E+00
         21   -1    0    0  501  502  0.00000000000E+00  0.00000000000E+00  0.12158804817E+04  0.12158804817E+04  0.00000000000E+00 0. -1.
         21   -1    0    0  502  503 -0.00000000000E+00 -0.00000000000E+00 -0.73136527035E+02  0.73136527035E+02  0.00000000000E+00 0.  1.
         -6    2    1    2    0  503 -0.12565472064E+03 -0.16833654978E+03  0.30549067087E+03  0.40877168284E+03  0.17217269207E+03 0.  0.
        -24    2    3    3    0    0 -0.14396071764E+03 -0.13968271318E+03  0.30570595856E+03  0.37444547964E+03  0.80730016306E+02 0.  0.
          6    2    1    2  501    0  0.12565472064E+03  0.16833654978E+03  0.83725328384E+03  0.88024532594E+03  0.17237305396E+03 0.  0.
         24    2    5    5    0    0  0.75523708819E+02  0.22910485320E+02  0.26166694037E+03  0.28444033489E+03  0.78790833855E+02 0.  0.
          5    1    5    5  501    0  0.50131011819E+02  0.14542606446E+03  0.57558634347E+03  0.59580499105E+03  0.47000000000E+01 0. -1.
        -13    1    6    6    0    0  0.25209986694E+02 -0.29203902436E+02  0.10412316786E+03  0.11104073771E+03  0.00000000000E+00 0.  1.
         14    1    6    6    0    0  0.50313722125E+02  0.52114387756E+02  0.15754377251E+03  0.17339959718E+03  0.00000000000E+00 0. -1.
         -5    1    3    3    0  503  0.18305997002E+02 -0.28653836593E+02 -0.21528769210E+00  0.34326203205E+02  0.47000000000E+01 0.  1.
         13    1    4    4    0    0  0.87012199053E+00 -0.39315531307E+02  0.44818690166E+02  0.59625356203E+02  0.00000000000E+00 0. -1.
        -14    1    4    4    0    0 -0.14483083963E+03 -0.10036718188E+03  0.26088726840E+03  0.31482012343E+03  0.00000000000E+00 0.  1.
</event>
<event>
12    1  0.8417180E-002  0.1741808E+03  0.7818608E-02  0.1175870E+00
         21   -1    0    0  503  502  0.00000000000E+00  0.00000000000E+00  0.97294459042E+02  0.97294459042E+02  0.00000000000E+00 0.  1.
         21   -1    0    0  501  503 -0.00000000000E+00 -0.00000000000E+00 -0.29616191611E+03  0.29616191611E+03  0.00000000000E+00 0.  1.
          6    2    1    2  501    0 -0.18926507928E+02 -0.27228282945E+02 -0.99911263579E+02  0.19312848813E+03  0.16191590485E+03 0.  0.
         24    2    3    3    0    0 -0.46432361955E+01  0.12610646436E+02  0.28086697372E+01  0.81932144459E+02  0.80773755788E+02 0.  0.
         -6    2    1    2    0  502  0.18926507928E+02  0.27228282945E+02 -0.98956193485E+02  0.20032788702E+03  0.17099515196E+03 0.  0.
        -24    2    5    5    0    0 -0.26598890253E+01 -0.11124881366E+02  0.86064014559E+01  0.84014776936E+02  0.82786318934E+02 0.  0.
          5    1    3    3  501    0 -0.14283271733E+02 -0.39838929382E+02 -0.10271993332E+03  0.11119634367E+03  0.47000000000E+01 0. -1.
        -13    1    4    4    0    0 -0.27277305984E+02 -0.24912759761E+02 -0.54431775738E+01  0.37340664198E+02  0.00000000000E+00 0.  1.
         14    1    4    4    0    0  0.22634069788E+02  0.37523406198E+02  0.82518473110E+01  0.44591480261E+02  0.00000000000E+00 0. -1.
         -5    1    5    5    0  502  0.21586396954E+02  0.38353164311E+02 -0.10756259494E+03  0.11631311008E+03  0.47000000000E+01 0.  1.
         13    1    6    6    0    0 -0.20525889728E+02  0.29965458349E+02 -0.61556265999E+01  0.36839280422E+02  0.00000000000E+00 0. -1.
        -14    1    6    6    0    0  0.17866000703E+02 -0.41090339715E+02  0.14762028056E+02  0.47175496514E+02  0.00000000000E+00 0.  1.
</event>
<event>
12    1  0.8417180E-002  0.2711886E+03  0.7818608E-02  0.1101606E+00
         21   -1    0    0  503  502  0.00000000000E+00  0.00000000000E+00  0.50312934967E+02  0.50312934967E+02  0.00000000000E+00 0.  1.
         21   -1    0    0  501  503 -0.00000000000E+00 -0.00000000000E+00 -0.15056795438E+04  0.15056795438E+04  0.00000000000E+00 0.  1.
          6    2    1    2  501    0 -0.60901360246E+02 -0.19093360593E+03 -0.89945845699E+03  0.93746428183E+03  0.17218927465E+03 0.  0.
         24    2    3    3    0    0 -0.10382930968E+03 -0.15857426879E+03 -0.77315174023E+03  0.80011286305E+03  0.80564607145E+02 0.  0.
         -6    2    1    2    0  502  0.60901360246E+02  0.19093360593E+03 -0.55590815186E+03  0.61852819696E+03  0.18269821994E+03 0.  0.
        -24    2    5    5    0    0 -0.77791666139E+01  0.76022223402E+02 -0.12480779876E+03  0.16709576009E+03  0.80648078255E+02 0.  0.
          5    1    3    3  501    0  0.42927949435E+02 -0.32359337143E+02 -0.12630671676E+03  0.13735141878E+03  0.47000000000E+01 0. -1.
        -13    1    4    4    0    0 -0.77652190956E+02 -0.14901387551E+03 -0.54636466258E+03  0.57161992824E+03  0.00000000000E+00 0.  1.
         14    1    4    4    0    0 -0.26177118725E+02 -0.95603932780E+01 -0.22678707765E+03  0.22849293480E+03  0.00000000000E+00 0. -1.
         -5    1    5    5    0  502  0.68680526860E+02  0.11491138253E+03 -0.43110035311E+03  0.45143243686E+03  0.47000000000E+01 0.  1.
         11    1    6    6    0    0  0.90349306267E+01  0.44528445957E+02 -0.95409827388E+01  0.46426746843E+02  0.00000000000E+00 0. -1.
        -12    1    6    6    0    0 -0.16814097241E+02  0.31493777445E+02 -0.11526681602E+03  0.12066901325E+03  0.00000000000E+00 0.  1.
</event>
<event>
12    1  0.8417180E-002  0.2311375E+03  0.7818608E-02  0.1125910E+00
         21   -1    0    0  501  502  0.00000000000E+00  0.00000000000E+00  0.29124476300E+03  0.29124476300E+03  0.00000000000E+00 0. -1.
         21   -1    0    0  502  503 -0.00000000000E+00 -0.00000000000E+00 -0.18840901473E+03  0.18840901473E+03  0.00000000000E+00 0. -1.
         -6    2    1    2    0  503  0.15420739911E+03 -0.19752811159E+02  0.11216500435E+02  0.23102020630E+03  0.17051225865E+03 0.  0.
        -24    2    3    3    0    0  0.15841018918E+03 -0.62116248273E+02  0.48044962601E+01  0.18771283919E+03  0.79125283425E+02 0.  0.
          6    2    1    2  501    0 -0.15420739911E+03  0.19752811159E+02  0.91619247828E+02  0.24863357143E+03  0.17103938372E+03 0.  0.
         24    2    5    5    0    0 -0.16355358467E+02 -0.76988965860E+01  0.21813222494E+01  0.81966196404E+02  0.79918260911E+02 0.  0.
          5    1    5    5  501    0 -0.13785204064E+03  0.27451707745E+02  0.89437925579E+02  0.16666737503E+03  0.47000000000E+01 0. -1.
        -11    1    6    6    0    0 -0.27307660742E+02 -0.37479739632E+02  0.13465916054E+02  0.48288405577E+02  0.00000000000E+00 0.  1.
         12    1    6    6    0    0  0.10952302275E+02  0.29780843046E+02 -0.11284593805E+02  0.33677790827E+02  0.00000000000E+00 0. -1.
         -5    1    3    3    0  503 -0.42027900707E+01  0.42363437114E+02  0.64120041749E+01  0.43307367111E+02  0.47000000000E+01 0.  1.
         11    1    4    4    0    0  0.67679985908E+01 -0.30170112168E+02 -0.87954379764E+01  0.32146558172E+02  0.00000000000E+00 0. -1.
        -12    1    4    4    0    0  0.15164219059E+03 -0.31946136106E+02  0.13599934236E+02  0.15556628102E+03  0.00000000000E+00 0.  1.
</event>
<event>
12    1  0.8417180E-002  0.2604926E+03  0.7818608E-02  0.1107072E+00
         21   -1    0    0  501  502  0.00000000000E+00  0.00000000000E+00  0.31108082708E+03  0.31108082708E+03  0.00000000000E+00 0.  1.
         21   -1    0    0  502  503 -0.00000000000E+00 -0.00000000000E+00 -0.43716983712E+03  0.43716983712E+03  0.00000000000E+00 0. -1.
         -6    2    1    2    0  503  0.17117276914E+03  0.94136968990E+02 -0.32870994693E+03  0.41941225409E+03  0.17232099072E+03 0.  0.
        -24    2    3    3    0    0  0.11661265635E+03  0.41399747103E+02 -0.30667974783E+03  0.34025772072E+03  0.80064961737E+02 0.  0.
          6    2    1    2  501    0 -0.17117276914E+03 -0.94136968990E+02  0.20262093689E+03  0.32883841012E+03  0.17005166885E+03 0.  0.
         24    2    5    5    0    0 -0.82044648965E+02 -0.10005909551E+03  0.18202933937E+03  0.23705062620E+03  0.79468056305E+02 0.  0.
          5    1    5    5  501    0 -0.89128120172E+02  0.59221265222E+01  0.20591597519E+02  0.91787783917E+02  0.47000000000E+01 0. -1.
        -13    1    6    6    0    0 -0.26816821495E+01 -0.26693838423E+01  0.65773113486E+02  0.65881860074E+02  0.00000000000E+00 0.  1.
         14    1    6    6    0    0 -0.79362966816E+02 -0.97389711670E+02  0.11625622589E+03  0.17116876613E+03  0.00000000000E+00 0. -1.
         -5    1    3    3    0  503  0.54560112788E+02  0.52737221887E+02 -0.22030199095E+02  0.79154533364E+02  0.47000000000E+01 0.  1.
         13    1    4    4    0    0  0.89796845822E+02  0.62912730382E+02 -0.26093589751E+03  0.28303538255E+03  0.00000000000E+00 0. -1.
        -14    1    4    4    0    0  0.26815810527E+02 -0.21512983279E+02 -0.45743850324E+02  0.57222338175E+02  0.00000000000E+00 0.  1.
</event>
<event>
12    1  0.8417180E-002  0.3758122E+03  0.7818608E-02  0.1052498E+00
         21   -1    0    0  503  502  0.00000000000E+00  0.00000000000E+00  0.18393059729E+03  0.18393059729E+03  0.00000000000E+00 0. -1.
         21   -1    0    0  501  503 -0.00000000000E+00 -0.00000000000E+00 -0.24824128602E+04  0.24824128602E+04  0.00000000000E+00 0.  1.
          6    2    1    2  501    0 -0.15684340037E+03  0.29506283322E+03 -0.22572597019E+04  0.22883304368E+04  0.17196772502E+03 0.  0.
         24    2    3    3    0    0 -0.17480852158E+03  0.28537400788E+03 -0.22084733995E+04  0.22352379494E+04  0.83292200145E+02 0.  0.
         -6    2    1    2    0  502  0.15684340037E+03 -0.29506283322E+03 -0.41222561046E+02  0.37801302071E+03  0.17185056444E+03 0.  0.
        -24    2    5    5    0    0  0.34452361063E+02 -0.16937713977E+03 -0.64988947250E+02  0.20091589720E+03  0.79171041585E+02 0.  0.
          5    1    3    3  501    0  0.17965121210E+02  0.96888253424E+01 -0.48786302373E+02  0.53092487377E+02  0.47000000000E+01 0. -1.
        -11    1    4    4    0    0 -0.28212669058E+02  0.15448726529E+02 -0.35823292055E+03  0.35967407915E+03  0.00000000000E+00 0.  1.
         12    1    4    4    0    0 -0.14659585252E+03  0.26992528135E+03 -0.18502404790E+04  0.18755638703E+04  0.00000000000E+00 0. -1.
         -5    1    5    5    0  502  0.12239103930E+03 -0.12568569345E+03  0.23766386204E+02  0.17709712350E+03  0.47000000000E+01 0.  1.
         13    1    6    6    0    0  0.39300841949E+02 -0.28823345718E+02 -0.90968211827E+01  0.49579164897E+02  0.00000000000E+00 0. -1.
        -14    1    6    6    0    0 -0.48484808862E+01 -0.14055379405E+03 -0.55892126067E+02  0.15133673231E+03  0.00000000000E+00 0.  1.
</event>
<event>
12    1  0.8417180E-002  0.2002608E+03  0.7818608E-02  0.1149739E+00
         21   -1    0    0  503  502  0.00000000000E+00  0.00000000000E+00  0.26022668353E+03  0.26022668353E+03  0.00000000000E+00 0.  1.
         21   -1    0    0  501  503 -0.00000000000E+00 -0.00000000000E+00 -0.48201834942E+03  0.48201834942E+03  0.00000000000E+00 0.  1.
          6    2    1    2  501    0  0.54090284440E+02 -0.85752345308E+02 -0.41745767165E+03  0.46300678935E+03  0.17269961135E+03 0.  0.
         24    2    3    3    0    0 -0.33189214187E+02 -0.55570632330E+02 -0.18709943366E+03  0.21478178156E+03  0.83279027963E+02 0.  0.
         -6    2    1    2    0  502 -0.54090284440E+02  0.85752345308E+02  0.19566600576E+03  0.27923824360E+03  0.17149223679E+03 0.  0.
        -24    2    5    5    0    0  0.17566145088E+02  0.52215198467E+02  0.17049219395E+03  0.19608059265E+03  0.79655597477E+02 0.  0.
          5    1    3    3  501    0  0.87279498627E+02 -0.30181712978E+02 -0.23035823800E+03  0.24822500779E+03  0.47000000000E+01 0. -1.
        -13    1    4    4    0    0  0.18953173125E+02 -0.45372115765E+02 -0.11626912332E+03  0.12623929934E+03  0.00000000000E+00 0.  1.
         14    1    4    4    0    0 -0.52142387312E+02 -0.10198516565E+02 -0.70830310337E+02  0.88542482217E+02  0.00000000000E+00 0. -1.
         -5    1    5    5    0  502 -0.71656429528E+02  0.33537146841E+02  0.25173811808E+02  0.83157650952E+02  0.47000000000E+01 0.  1.
         13    1    6    6    0    0  0.34563373614E+02  0.90452747690E+01  0.12893889815E+03  0.13379717204E+03  0.00000000000E+00 0. -1.
        -14    1    6    6    0    0 -0.16997228526E+02  0.43169923698E+02  0.41553295803E+02  0.62283420600E+02  0.00000000000E+00 0.  1.
</event>
<event>
12    1  0.8417180E-002  0.2885809E+03  0.7818608E-02  0.1091447E+00
         21   -1    0    0  503  502  0.00000000000E+00  0.00000000000E+00  0.19852453447E+03  0.19852453447E+03  0.00000000000E+00 0.  1.
         21   -1    0    0  501  503 -0.00000000000E+00 -0.00000000000E+00 -0.43140716440E+03  0.43140716440E+03  0.00000000000E+00 0. -1.
          6    2    1    2  501    0  0.39184163502E+02 -0.22792724911E+03 -0.17727388554E+03  0.33868123600E+03  0.17260567652E+03 0.  0.
         24    2    3    3    0    0  0.75247298977E+02 -0.14671110833E+03 -0.62082643294E+02  0.19312120181E+03  0.79090066882E+02 0.  0.
         -6    2    1    2    0  502 -0.39184163502E+02  0.22792724911E+03 -0.55608744391E+02  0.29125046287E+03  0.16807221697E+03 0.  0.
        -24    2    5    5    0    0 -0.83915701345E+02  0.11409472807E+03 -0.15623549279E+02  0.16248843760E+03  0.78095743526E+02 0.  0.
          5    1    3    3  501    0 -0.36063135475E+02 -0.81216140777E+02 -0.11519124224E+03  0.14556003419E+03  0.47000000000E+01 0. -1.
        -13    1    4    4    0    0  0.23647589506E+02 -0.13169606557E+02  0.14557782466E+02  0.30733956085E+02  0.00000000000E+00 0.  1.
         14    1    4    4    0    0  0.51599709471E+02 -0.13354150177E+03 -0.76640425760E+02  0.16238724573E+03  0.00000000000E+00 0. -1.
         -5    1    5    5    0  502  0.44731537843E+02  0.11383252104E+03 -0.39985195111E+02  0.12876202527E+03  0.47000000000E+01 0.  1.
         13    1    6    6    0    0 -0.58277914880E+02  0.12173374306E+03 -0.12102179816E+02  0.13550602319E+03  0.00000000000E+00 0. -1.
        -14    1    6    6    0    0 -0.25637786465E+02 -0.76390149941E+01 -0.35213694637E+01  0.26982414417E+02  0.00000000000E+00 0.  1.
</event>
<event>
12    1  0.8417180E-002  0.1751916E+03  0.7818608E-02  0.1174387E+00
         21   -1    0    0  503  502  0.00000000000E+00  0.00000000000E+00  0.20862837144E+03  0.20862837144E+03  0.00000000000E+00 0. -1.
         21   -1    0    0  501  503 -0.00000000000E+00 -0.00000000000E+00 -0.15312452314E+03  0.15312452314E+03  0.00000000000E+00 0. -1.
          6    2    1    2  501    0  0.29968690534E+01 -0.90700684085E+01 -0.22336406520E+02  0.17660977677E+03  0.17493098876E+03 0.  0.
         24    2    3    3    0    0 -0.42164061755E+02 -0.12234576296E+02  0.45970897904E+02  0.94527491111E+02  0.69961633491E+02 0.  0.
         -6    2    1    2    0  502 -0.29968690534E+01  0.90700684085E+01  0.77840254820E+02  0.18514311781E+03  0.16771291374E+03 0.  0.
        -24    2    5    5    0    0  0.35780946573E+02  0.20699600773E+02  0.10316735644E+03  0.13715856734E+03  0.80375490974E+02 0.  0.
          5    1    3    3  501    0  0.45160930809E+02  0.31645078877E+01 -0.68307304424E+02  0.82082285661E+02  0.47000000000E+01 0. -1.
        -11    1    4    4    0    0  0.64531510316E+01 -0.30099848221E+02  0.16224231428E+02  0.34797553169E+02  0.00000000000E+00 0.  1.
         12    1    4    4    0    0 -0.48617212787E+02  0.17865271924E+02  0.29746666477E+02  0.59729937942E+02  0.00000000000E+00 0. -1.
         -5    1    5    5    0  502 -0.38777815627E+02 -0.11629532364E+02 -0.25327101617E+02  0.47984550473E+02  0.47000000000E+01 0.  1.
         13    1    6    6    0    0  0.60458964949E+02  0.16951302710E+02  0.57627338085E+02  0.85226423139E+02  0.00000000000E+00 0. -1.
        -14    1    6    6    0    0 -0.24678018376E+02  0.37482980634E+01  0.45540018352E+02  0.51932144196E+02  0.00000000000E+00 0.  1.
</event>
<event>
12    1  0.8417180E-002  0.2227846E+03  0.7818608E-02  0.1132057E+00
         21   -1    0    0  503  502  0.00000000000E+00  0.00000000000E+00  0.86456871937E+02  0.86456871937E+02  0.00000000000E+00 0.  1.
         21   -1    0    0  501  503 -0.00000000000E+00 -0.00000000000E+00 -0.64765981370E+03  0.64765981370E+03  0.00000000000E+00 0.  1.
          6    2    1    2  501    0 -0.61082051289E+02 -0.12624865271E+03 -0.15345714230E+03  0.26947746424E+03  0.17146215299E+03 0.  0.
         24    2    3    3    0    0 -0.23955088573E+02 -0.14832279496E+02 -0.10948341707E+03  0.14398723318E+03  0.89173213031E+02 0.  0.
         -6    2    1    2    0  502  0.61082051289E+02  0.12624865271E+03 -0.40774579946E+03  0.46463922140E+03  0.17309890175E+03 0.  0.
        -24    2    5    5    0    0  0.54132253229E+02  0.77109719957E+00 -0.19131633829E+03  0.21432598106E+03  0.80017432032E+02 0.  0.
          5    1    3    3  501    0 -0.37126962716E+02 -0.11141637321E+03 -0.43973725233E+02  0.12549023106E+03  0.47000000000E+01 0. -1.
        -13    1    4    4    0    0 -0.36520592742E+02 -0.46683759397E+02 -0.70203193599E+02  0.91878264444E+02  0.00000000000E+00 0.  1.
         14    1    4    4    0    0  0.12565504169E+02  0.31851479902E+02 -0.39280223473E+02  0.52108968739E+02  0.00000000000E+00 0. -1.
         -5    1    5    5    0  502  0.69497980599E+01  0.12547755551E+03 -0.21642946117E+03  0.25031324034E+03  0.47000000000E+01 0.  1.
         11    1    6    6    0    0 -0.15918330355E+02  0.10570123219E+02 -0.81436323381E+02  0.83648045476E+02  0.00000000000E+00 0. -1.
        -12    1    6    6    0    0  0.70050583584E+02 -0.97990260199E+01 -0.10988001491E+03  0.13067793559E+03  0.00000000000E+00 0.  1.
</event>
<event>
12    1  0.8417180E-002  0.1994664E+03  0.7818608E-02  0.1150264E+00
         21   -1    0    0  503  502  0.00000000000E+00  0.00000000000E+00  0.28415887801E+03  0.28415887801E+03  0.00000000000E+00 0.  1.
         21   -1    0    0  501  503 -0.00000000000E+00 -0.00000000000E+00 -0.22463877167E+03  0.22463877167E+03  0.00000000000E+00 0. -1.
          6    2    1    2  501    0  0.91633215142E+02 -0.44546537832E+02 -0.12658903456E+03  0.23624488355E+03  0.17148125607E+03 0.  0.
         24    2    3    3    0    0  0.81511921397E+01  0.17783300652E+02 -0.15270032703E+02  0.83705488301E+02  0.79942148817E+02 0.  0.
         -6    2    1    2    0  502 -0.91633215142E+02  0.44546537832E+02  0.18610914089E+03  0.27255276613E+03  0.17107705237E+03 0.  0.
        -24    2    5    5    0    0 -0.11113966560E+03 -0.12981760555E+02  0.14143596764E+03  0.19700285459E+03  0.79280769409E+02 0.  0.
          5    1    3    3  501    0  0.83482023002E+02 -0.62329838485E+02 -0.11131900185E+03  0.15253939525E+03  0.47000000000E+01 0. -1.
        -11    1    4    4    0    0  0.41817118308E+02  0.20181893409E+02 -0.18100351147E+02  0.49835759419E+02  0.00000000000E+00 0.  1.
         12    1    4    4    0    0 -0.33665926169E+02 -0.23985927571E+01  0.28303184441E+01  0.33869728882E+02  0.00000000000E+00 0. -1.
         -5    1    5    5    0  502  0.19506450454E+02  0.57528298387E+02  0.44673173251E+02  0.75549911535E+02  0.47000000000E+01 0.  1.
         11    1    6    6    0    0 -0.92093002157E+02 -0.42351998889E+02  0.95656986563E+02  0.13937385671E+03  0.00000000000E+00 0. -1.
        -12    1    6    6    0    0 -0.19046663440E+02  0.29370238334E+02  0.45778981080E+02  0.57628997880E+02  0.00000000000E+00 0.  1.
</event>
<event>
12    1  0.8417180E-002  0.1925076E+03  0.7818608E-02  0.1156616E+00
         21   -1    0    0  503  502  0.00000000000E+00  0.00000000000E+00  0.37895125960E+03  0.37895125960E+03  0.00000000000E+00 0.  1.
         21   -1    0    0  501  503 -0.00000000000E+00 -0.00000000000E+00 -0.47978481604E+03  0.47978481604E+03  0.00000000000E+00 0.  1.
          6    2    1    2  501    0 -0.51076858708E+02  0.68529494625E+02 -0.43393936103E+03  0.47400416975E+03  0.17050350954E+03 0.  0.
         24    2    3    3    0    0 -0.74831810957E+01 -0.91528044502E+01 -0.31639555895E+03  0.32644542306E+03  0.79502784156E+02 0.  0.
         -6    2    1    2    0  502  0.51076858708E+02 -0.68529494625E+02  0.33310580459E+03  0.38473190588E+03  0.17249355125E+03 0.  0.
        -24    2    5    5    0    0  0.23387355432E+02  0.31510437720E+02  0.15479363521E+03  0.17835357271E+03  0.79429536801E+02 0.  0.
          5    1    3    3  501    0 -0.43593677612E+02  0.77682299075E+02 -0.11754380208E+03  0.14755874669E+03  0.47000000000E+01 0. -1.
        -13    1    4    4    0    0 -0.30328644126E+02 -0.23862166235E+02 -0.83688477752E+02  0.92157424771E+02  0.00000000000E+00 0.  1.
         14    1    4    4    0    0  0.22845463031E+02  0.14709361785E+02 -0.23270708120E+03  0.23428799829E+03  0.00000000000E+00 0. -1.
         -5    1    5    5    0  502  0.27689503276E+02 -0.10003993235E+03  0.17831216938E+03  0.20637833317E+03  0.47000000000E+01 0.  1.
         13    1    6    6    0    0 -0.16301373815E+02  0.12089960009E+02  0.33176897615E+01  0.20564751071E+02  0.00000000000E+00 0. -1.
        -14    1    6    6    0    0  0.39688729246E+02  0.19420477712E+02  0.15147594545E+03  0.15778882164E+03  0.00000000000E+00 0.  1.
</event>
<event>
12    1  0.8417180E-002  0.1798717E+03  0.7818608E-02  0.1168039E+00
         21   -1    0    0  503  502  0.00000000000E+00  0.00000000000E+00  0.23449800492E+03  0.23449800492E+03  0.00000000000E+00 0.  1.
         21   -1    0    0  501  503 -0.00000000000E+00 -0.00000000000E+00 -0.21637241305E+03  0.21637241305E+03  0.00000000000E+00 0.  1.
          6    2    1    2  501    0 -0.51773557834E+02  0.12242702130E+02 -0.12695062671E+03  0.21978397049E+03  0.17134219275E+03 0.  0.
         24    2    3    3    0    0 -0.75215156998E+02 -0.45277244494E+02 -0.10552316676E+03  0.15391076751E+03  0.69613482329E+02 0.  0.
         -6    2    1    2    0  502  0.51773557834E+02 -0.12242702130E+02  0.14507621858E+03  0.23108644748E+03  0.17182389812E+03 0.  0.
        -24    2    5    5    0    0 -0.29272514552E+02 -0.10220193124E+02  0.32113003984E+02  0.91962997821E+02  0.80402832585E+02 0.  0.
          5    1    3    3  501    0  0.23441599164E+02  0.57519946624E+02 -0.21427459950E+02  0.65873202980E+02  0.47000000000E+01 0. -1.
        -11    1    4    4    0    0 -0.23047090653E+02  0.54550371187E+01 -0.68063531333E+02  0.72066428488E+02  0.00000000000E+00 0.  1.
         12    1    4    4    0    0 -0.52168066345E+02 -0.50732281613E+02 -0.37459635423E+02  0.81844339022E+02  0.00000000000E+00 0. -1.
         -5    1    5    5    0  502  0.81046072386E+02 -0.20225090059E+01  0.11296321460E+03  0.13912344966E+03  0.47000000000E+01 0.  1.
         13    1    6    6    0    0 -0.33630691453E+02 -0.66112440224E+01 -0.19907031690E+02  0.39636118198E+02  0.00000000000E+00 0. -1.
        -14    1    6    6    0    0  0.43581769005E+01 -0.36089491014E+01  0.52020035674E+02  0.52326879623E+02  0.00000000000E+00 0.  1.
</event>
<event>
12    1  0.8417180E-002  0.1935737E+03  0.7818608E-02  0.1155612E+00
         21   -1    0    0  501  502  0.00000000000E+00  0.00000000000E+00  0.34745529575E+02  0.34745529575E+02  0.00000000000E+00 0. -1.
         21   -1    0    0  502  503 -0.00000000000E+00 -0.00000000000E+00 -0.11087091335E+04  0.11087091335E+04  0.00000000000E+00 0. -1.
         -6    2    1    2    0  503  0.69248232115E+02  0.53874178313E+02 -0.43220664680E+03  0.47357507034E+03  0.17254859305E+03 0.  0.
        -24    2    3    3    0    0  0.20395566447E+02  0.46255360501E+02 -0.10070978457E+03  0.13837827888E+03  0.80315315190E+02 0.  0.
          6    2    1    2  501    0 -0.69248232115E+02 -0.53874178313E+02 -0.64175695710E+03  0.66987959271E+03  0.17084768658E+03 0.  0.
         24    2    5    5    0    0  0.29107460555E+02 -0.27678797480E+02 -0.33515831682E+03  0.34679313915E+03  0.79504867369E+02 0.  0.
          5    1    5    5  501    0 -0.98355692670E+02 -0.26195380833E+02 -0.30659864027E+03  0.32308645356E+03  0.47000000000E+01 0. -1.
        -11    1    6    6    0    0  0.76661195751E+01 -0.21444607853E+02 -0.18479348929E+02  0.29327920692E+02  0.00000000000E+00 0.  1.
         12    1    6    6    0    0  0.21441340980E+02 -0.62341896274E+01 -0.31667896789E+03  0.31746521846E+03  0.00000000000E+00 0. -1.
         -5    1    3    3    0  503  0.48852665669E+02  0.76188178121E+01 -0.33149686224E+03  0.33519679145E+03  0.47000000000E+01 0.  1.
         13    1    4    4    0    0 -0.24993970711E+02 -0.35692973208E+01 -0.15091742733E+02  0.29414267864E+02  0.00000000000E+00 0. -1.
        -14    1    4    4    0    0  0.45389537157E+02  0.49824657821E+02 -0.85618041832E+02  0.10896401102E+03  0.00000000000E+00 0.  1.
</event>
<event>
12    1  0.8417180E-002  0.2197274E+03  0.7818608E-02  0.1134232E+00
         21   -1    0    0  503  502  0.00000000000E+00  0.00000000000E+00  0.19840299485E+02  0.19840299485E+02  0.00000000000E+00 0. -1.
         21   -1    0    0  501  503 -0.00000000000E+00 -0.00000000000E+00 -0.24297123337E+04  0.24297123337E+04  0.00000000000E+00 0. -1.
          6    2    1    2  501    0  0.85680359666E+02 -0.10492410135E+03 -0.11521419035E+04  0.11729071102E+04  0.17300269500E+03 0.  0.
         24    2    3    3    0    0  0.82193434649E+02 -0.12333365005E+03 -0.11282595507E+04  0.11421902272E+04  0.98295226097E+02 0.  0.
         -6    2    1    2    0  502 -0.85680359666E+02  0.10492410135E+03 -0.12577301307E+04  0.12766455229E+04  0.17201313426E+03 0.  0.
        -24    2    5    5    0    0 -0.16383575058E+02  0.81492183286E+02 -0.10507055023E+04  0.10570267944E+04  0.80088663559E+02 0.  0.
          5    1    3    3  501    0  0.34869250165E+01  0.18409548695E+02 -0.23882352739E+02  0.30716883006E+02  0.47000000000E+01 0. -1.
        -13    1    4    4    0    0  0.18920690398E+02 -0.29934444961E+02 -0.75377825391E+02  0.83281931300E+02  0.00000000000E+00 0.  1.
         14    1    4    4    0    0  0.63272744251E+02 -0.93399205087E+02 -0.10528817253E+04  0.10589082959E+04  0.00000000000E+00 0. -1.
         -5    1    5    5    0  502 -0.69296784608E+02  0.23431918068E+02 -0.20702462840E+03  0.21961872849E+03  0.47000000000E+01 0.  1.
         11    1    6    6    0    0 -0.14504250786E+02  0.69170398124E+01 -0.34193079023E+02  0.37780754144E+02  0.00000000000E+00 0. -1.
        -12    1    6    6    0    0 -0.18793242716E+01  0.74575143474E+02 -0.10165124233E+04  0.10192460403E+04  0.00000000000E+00 0.  1.
</event>
<event>
12    1  0.8417180E-002  0.1740967E+03  0.7818608E-02  0.1173822E+00
         21   -1    0    0  501  502  0.00000000000E+00  0.00000000000E+00  0.16841916546E+03  0.16841916546E+03  0.00000000000E+00 0. -1.
         21   -1    0    0  502  503 -0.00000000000E+00 -0.00000000000E+00 -0.25288601096E+03  0.25288601096E+03  0.00000000000E+00 0. -1.
         -6    2    1    2    0  503 -0.38486236894E+02 -0.94294722935E+01 -0.15585903003E+03  0.23313904037E+03  0.16879475561E+03 0.  0.
        -24    2    3    3    0    0 -0.73432185097E+02  0.19303399183E+02 -0.15097715245E+03  0.18739278448E+03  0.80975601787E+02 0.  0.
          6    2    1    2  501    0  0.38486236894E+02  0.94294722935E+01  0.71392184523E+02  0.18816613605E+03  0.16952741775E+03 0.  0.
         24    2    5    5    0    0  0.33596645812E+02  0.32129824743E+02 -0.17979182693E+02  0.95707792026E+02  0.81704774624E+02 0.  0.
          5    1    5    5  501    0  0.48895910826E+01 -0.22700352449E+02  0.89371367217E+02  0.92458344028E+02  0.47000000000E+01 0. -1.
        -13    1    6    6    0    0 -0.14879525620E+02  0.32835061520E+02  0.12831216266E+02  0.38264626727E+02  0.00000000000E+00 0.  1.
         14    1    6    6    0    0  0.48476171432E+02 -0.70523677683E+00 -0.30810398959E+02  0.57443165299E+02  0.00000000000E+00 0. -1.
         -5    1    3    3    0  503  0.34945948203E+02 -0.28732871476E+02 -0.48818775809E+01  0.45746255888E+02  0.47000000000E+01 0.  1.
         11    1    4    4    0    0 -0.68141946746E+02  0.43721667916E+02 -0.13596533203E+03  0.15824500202E+03  0.00000000000E+00 0. -1.
        -12    1    4    4    0    0 -0.52902383510E+01 -0.24418268734E+02 -0.15011820423E+02  0.29147782457E+02  0.00000000000E+00 0.  1.
</event>
<event>
12    1  0.8417180E-002  0.2180140E+03  0.7818608E-02  0.1135425E+00
         21   -1    0    0  501  502  0.00000000000E+00  0.00000000000E+00  0.88040084169E+03  0.88040084169E+03  0.00000000000E+00 0. -1.
         21   -1    0    0  502  503 -0.00000000000E+00 -0.00000000000E+00 -0.54119997770E+02  0.54119997770E+02  0.00000000000E+00 0.  1.
         -6    2    1    2    0  503  0.23466043120E+02  0.13223695932E+03  0.44198933902E+03  0.49283332696E+03  0.17173480650E+03 0.  0.
        -24    2    3    3    0    0  0.73578246906E+02  0.61232434514E+02  0.32364217461E+03  0.34592853862E+03  0.75888913527E+02 0.  0.
          6    2    1    2  501    0 -0.23466043120E+02 -0.13223695932E+03  0.38429150490E+03  0.44168751250E+03  0.17137861410E+03 0.  0.
         24    2    5    5    0    0  0.89354275315E+01 -0.13310730392E+03  0.19601254182E+03  0.25058107426E+03  0.81071338963E+02 0.  0.
          5    1    5    5  501    0 -0.32401470652E+02  0.87034460431E+00  0.18827896308E+03  0.19110643825E+03  0.47000000000E+01 0. -1.
        -13    1    6    6    0    0 -0.31814705954E+02 -0.83623977610E+02  0.91488076994E+02  0.12796567266E+03  0.00000000000E+00 0.  1.
         14    1    6    6    0    0  0.40750133486E+02 -0.49483326313E+02  0.10452446483E+03  0.12261540160E+03  0.00000000000E+00 0. -1.
         -5    1    3    3    0  503 -0.50112203786E+02  0.71004524805E+02  0.11834716441E+03  0.14690478833E+03  0.47000000000E+01 0.  1.
         13    1    4    4    0    0 -0.38856582874E+01  0.10320005576E+02  0.13790073158E+03  0.13834092896E+03  0.00000000000E+00 0. -1.
        -14    1    4    4    0    0  0.77463905194E+02  0.50912428938E+02  0.18574144303E+03  0.20758760966E+03  0.00000000000E+00 0.  1.
</event>
<event>
12    1  0.8417180E-002  0.2527295E+03  0.7818608E-02  0.1111696E+00
         21   -1    0    0  501  502  0.00000000000E+00  0.00000000000E+00  0.42153660410E+03  0.42153660410E+03  0.00000000000E+00 0. -1.
         21   -1    0    0  502  503 -0.00000000000E+00 -0.00000000000E+00 -0.15307068814E+03  0.15307068814E+03  0.00000000000E+00 0.  1.
         -6    2    1    2    0  503  0.14470192841E+03 -0.11472528982E+03  0.16645984857E+03  0.30206843694E+03  0.17156899253E+03 0.  0.
        -24    2    3    3    0    0  0.56979448797E+01 -0.48274289493E+01  0.66071788111E+02  0.98354176404E+02  0.72472699589E+02 0.  0.
          6    2    1    2  501    0 -0.14470192841E+03  0.11472528982E+03  0.10200606739E+03  0.27253885531E+03  0.17254463092E+03 0.  0.
         24    2    5    5    0    0 -0.10470401269E+03  0.13942291784E+03  0.50703093806E+02  0.20279725230E+03  0.90300839005E+02 0.  0.
          5    1    5    5  501    0 -0.39997915722E+02 -0.24697628028E+02  0.51302973582E+02  0.69741603011E+02  0.47000000000E+01 0. -1.
        -13    1    6    6    0    0 -0.27465349707E+02  0.98188536097E+02  0.53610184095E+02  0.11519282050E+03  0.00000000000E+00 0.  1.
         14    1    6    6    0    0 -0.77238662982E+02  0.41234381748E+02 -0.29070902891E+01  0.87604431802E+02  0.00000000000E+00 0. -1.
         -5    1    3    3    0  503  0.13900398353E+03 -0.10989786087E+03  0.10038806046E+03  0.20371426053E+03  0.47000000000E+01 0.  1.
         11    1    4    4    0    0 -0.95942882257E+01  0.31019952776E+02  0.39746680272E+02  0.51323351697E+02  0.00000000000E+00 0. -1.
        -12    1    4    4    0    0  0.15292233105E+02 -0.35847381725E+02  0.26325107838E+02  0.47030824707E+02  0.00000000000E+00 0.  1.
</event>
<event>
12    1  0.8417180E-002  0.1742025E+03  0.7818608E-02  0.1174064E+00
         21   -1    0    0  503  502  0.00000000000E+00  0.00000000000E+00  0.59813756509E+02  0.59813756509E+02  0.00000000000E+00 0.  1.
         21   -1    0    0  501  503 -0.00000000000E+00 -0.00000000000E+00 -0.69339887494E+03  0.69339887494E+03  0.00000000000E+00 0.  1.
          6    2    1    2  501    0 -0.23906995111E+02 -0.99423808507E-01 -0.51638718657E+03  0.54497913018E+03  0.17255425691E+03 0.  0.
         24    2    3    3    0    0 -0.68115345315E+02 -0.21072093480E+02 -0.44968371472E+03  0.46211976585E+03  0.79091727189E+02 0.  0.
         -6    2    1    2    0  502  0.23906995111E+02  0.99423808507E-01 -0.11719793185E+03  0.20823350126E+03  0.17045316517E+03 0.  0.
        -24    2    5    5    0    0 -0.38670430506E+02 -0.15332868684E+02 -0.11009500965E+03  0.14322095361E+03  0.81613916377E+02 0.  0.
          5    1    3    3  501    0  0.44208350204E+02  0.20972669672E+02 -0.66703471849E+02  0.82859364333E+02  0.47000000000E+01 0. -1.
        -13    1    4    4    0    0 -0.27773274566E+02 -0.45543761888E+02 -0.31319547326E+03  0.31770582856E+03  0.00000000000E+00 0.  1.
         14    1    4    4    0    0 -0.40342070749E+02  0.24471668408E+02 -0.13648824146E+03  0.14441393729E+03  0.00000000000E+00 0. -1.
         -5    1    5    5    0  502  0.62577425616E+02  0.15432292492E+02 -0.71029222086E+01  0.65012547652E+02  0.47000000000E+01 0.  1.
         11    1    6    6    0    0 -0.51515107342E+02 -0.36013105392E+02 -0.57171175991E+02  0.84966425185E+02  0.00000000000E+00 0. -1.
        -12    1    6    6    0    0  0.12844676836E+02  0.20680236709E+02 -0.52923833655E+02  0.58254528425E+02  0.00000000000E+00 0.  1.
</event>
<event>
12    1  0.8417180E-002  0.2400416E+03  0.7818608E-02  0.1119870E+00
         21   -1    0    0  501  502  0.00000000000E+00  0.00000000000E+00  0.18152309598E+04  0.18152309598E+04  0.00000000000E+00 0.  1.
         21   -1    0    0  502  503 -0.00000000000E+00 -0.00000000000E+00 -0.31697539415E+02  0.31697539415E+02  0.00000000000E+00 0.  1.
         -6    2    1    2    0  503  0.26089236850E+02 -0.16560053305E+03  0.92257111544E+03  0.95312982638E+03  0.17092342750E+03 0.  0.
        -24    2    3    3    0    0  0.80838110208E+02 -0.84136604045E+02  0.50904878297E+03  0.52809262764E+03  0.78341507016E+02 0.  0.
          6    2    1    2  501    0 -0.26089236850E+02  0.16560053305E+03  0.86096230494E+03  0.89379867283E+03  0.17180160709E+03 0.  0.
         24    2    5    5    0    0  0.93564073943E+01  0.68554143435E+02  0.65270073982E+03  0.66127047037E+03  0.80455989699E+02 0.  0.
          5    1    5    5  501    0 -0.35445644244E+02  0.97046389616E+02  0.20826156512E+03  0.23252820246E+03  0.47000000000E+01 0. -1.
        -13    1    6    6    0    0 -0.29545602764E+01  0.79918905521E+02  0.39437945474E+03  0.40240640553E+03  0.00000000000E+00 0.  1.
         14    1    6    6    0    0  0.12310967671E+02 -0.11364762086E+02  0.25832128507E+03  0.25886406484E+03  0.00000000000E+00 0. -1.
         -5    1    3    3    0  503 -0.54748873358E+02 -0.81463929005E+02  0.41352233247E+03  0.42503719874E+03  0.47000000000E+01 0.  1.
         13    1    4    4    0    0  0.81446865149E+02 -0.38813894624E+02  0.39902523202E+03  0.40909808854E+03  0.00000000000E+00 0. -1.
        -14    1    4    4    0    0 -0.60875494103E+00 -0.45322709421E+02  0.11002355095E+03  0.11899453910E+03  0.00000000000E+00 0.  1.
</event>
<event>
12    1  0.8417180E-002  0.2029863E+03  0.7818608E-02  0.1147249E+00
         21   -1    0    0  503  502  0.00000000000E+00  0.00000000000E+00  0.35373277293E+03  0.35373277293E+03  0.00000000000E+00 0.  1.
         21   -1    0    0  501  503 -0.00000000000E+00 -0.00000000000E+00 -0.11807793154E+03  0.11807793154E+03  0.00000000000E+00 0.  1.
          6    2    1    2  501    0 -0.23504066743E+01 -0.10844410247E+03  0.14536588271E+03  0.24964963579E+03  0.17154606676E+03 0.  0.
         24    2    3    3    0    0  0.30189004994E+02  0.45539257663E+01  0.56221129025E+02  0.10201412242E+03  0.79460377310E+02 0.  0.
         -6    2    1    2    0  502  0.23504066743E+01  0.10844410247E+03  0.90288958677E+02  0.22216106867E+03  0.17157446373E+03 0.  0.
        -24    2    5    5    0    0  0.61948935276E+02  0.51517653246E+02  0.22309652010E+02  0.11522238826E+03  0.79288958919E+02 0.  0.
          5    1    3    3  501    0 -0.32539411669E+02 -0.11299802824E+03  0.89144753686E+02  0.14763551337E+03  0.47000000000E+01 0. -1.
        -13    1    4    4    0    0  0.33108028054E+02 -0.80532065614E+01 -0.92256392963E+01  0.35300256061E+02  0.00000000000E+00 0.  1.
         14    1    4    4    0    0 -0.29190230596E+01  0.12607132328E+02  0.65446768321E+02  0.66713866361E+02  0.00000000000E+00 0. -1.
         -5    1    5    5    0  502 -0.59598528602E+02  0.56926449227E+02  0.67979306667E+02  0.10693868041E+03  0.47000000000E+01 0.  1.
         11    1    6    6    0    0  0.94781068441E+00 -0.10712205045E+02 -0.16607489639E+02  0.19785307532E+02  0.00000000000E+00 0. -1.
        -12    1    6    6    0    0  0.61001124592E+02  0.62229858291E+02  0.38917141649E+02  0.95437080731E+02  0.00000000000E+00 0.  1.
</event>
<event>
12    1  0.8417180E-002  0.1928361E+03  0.7818608E-02  0.1155951E+00
         21   -1    0    0  501  502  0.00000000000E+00  0.00000000000E+00  0.50334621863E+03  0.50334621863E+03  0.00000000000E+00 0. -1.
         21   -1    0    0  502  503 -0.00000000000E+00 -0.00000000000E+00 -0.73920930559E+02  0.73920930559E+02  0.00000000000E+00 0.  1.
         -6    2    1    2    0  503  0.84222230052E+02 -0.24603028368E+02  0.20498152507E+03  0.28136046403E+03  0.17160300715E+03 0.  0.
        -24    2    3    3    0    0 -0.17250701706E+02 -0.53317316225E+01  0.57795380370E+02  0.10148831514E+03  0.81446657671E+02 0.  0.
          6    2    1    2  501    0 -0.84222230052E+02  0.24603028368E+02  0.22444376301E+03  0.29590668516E+03  0.17171799710E+03 0.  0.
         24    2    5    5    0    0  0.11729733679E+02 -0.82957676091E+01  0.15026637452E+03  0.17015500492E+03  0.78526021008E+02 0.  0.
          5    1    5    5  501    0 -0.95951963731E+02  0.32898795977E+02  0.74177388489E+02  0.12575168024E+03  0.47000000000E+01 0. -1.
        -11    1    6    6    0    0  0.33580355688E+01 -0.27450618307E+02  0.14628334072E+03  0.14887453987E+03  0.00000000000E+00 0.  1.
         12    1    6    6    0    0  0.83716981106E+01  0.19154850698E+02  0.39830337967E+01  0.21280465050E+02  0.00000000000E+00 0. -1.
         -5    1    3    3    0  503  0.10147293176E+03 -0.19271296745E+02  0.14718614470E+03  0.17987214889E+03  0.47000000000E+01 0.  1.
         11    1    4    4    0    0  0.25748462809E+02 -0.14356314969E+02  0.48225087907E+02  0.56522086127E+02  0.00000000000E+00 0. -1.
        -12    1    4    4    0    0 -0.42999164515E+02  0.90245833461E+01  0.95702924629E+01  0.44966229010E+02  0.00000000000E+00 0.  1.
</event>
<event>
12    1  0.8417180E-002  0.2016920E+03  0.7818608E-02  0.1148333E+00
         21   -1    0    0  501  502  0.00000000000E+00  0.00000000000E+00  0.93717119247E+02  0.93717119247E+02  0.00000000000E+00 0. -1.
         21   -1    0    0  502  503 -0.00000000000E+00 -0.00000000000E+00 -0.50684615525E+03  0.50684615525E+03  0.00000000000E+00 0. -1.
         -6    2    1    2    0  503  0.85892139065E+02  0.63249710040E+02 -0.32048529121E+03  0.37866936034E+03  0.17117732679E+03 0.  0.
        -24    2    3    3    0    0  0.95163595059E+01  0.75773138848E+02 -0.11251386622E+03  0.15671373508E+03  0.77895410661E+02 0.  0.
          6    2    1    2  501    0 -0.85892139065E+02 -0.63249710040E+02 -0.92643744793E+02  0.22189391416E+03  0.17110248484E+03 0.  0.
         24    2    5    5    0    0 -0.12024879451E+02 -0.16836040216E+02  0.15335666628E+02  0.82997391233E+02  0.78900787731E+02 0.  0.
          5    1    5    5  501    0 -0.73867259614E+02 -0.46413669824E+02 -0.10797941142E+03  0.13889652292E+03  0.47000000000E+01 0. -1.
        -11    1    6    6    0    0  0.24152115850E+02  0.15804633571E+02 -0.65258613217E+01  0.29592195057E+02  0.00000000000E+00 0.  1.
         12    1    6    6    0    0 -0.36176995301E+02 -0.32640673787E+02  0.21861527949E+02  0.53405196175E+02  0.00000000000E+00 0. -1.
         -5    1    3    3    0  503  0.76375779559E+02 -0.12523428808E+02 -0.20797142499E+03  0.22195562526E+03  0.47000000000E+01 0.  1.
         13    1    4    4    0    0  0.18236125800E+02  0.65466342881E+02 -0.12238632510E+03  0.13998860992E+03  0.00000000000E+00 0. -1.
        -14    1    4    4    0    0 -0.87197662939E+01  0.10306795968E+02  0.98724588831E+01  0.16725125164E+02  0.00000000000E+00 0.  1.
</event>
<event>
12    1  0.8417180E-002  0.1829811E+03  0.7818608E-02  0.1164973E+00
         21   -1    0    0  501  502  0.00000000000E+00  0.00000000000E+00  0.71500359004E+02  0.71500359004E+02  0.00000000000E+00 0. -1.
         21   -1    0    0  502  503 -0.00000000000E+00 -0.00000000000E+00 -0.89312404598E+03  0.89312404598E+03  0.00000000000E+00 0. -1.
         -6    2    1    2    0  503  0.51385472735E+02  0.27528393830E+02 -0.74362346585E+03  0.76580541233E+03  0.17344679679E+03 0.  0.
        -24    2    3    3    0    0  0.10584126925E+02 -0.38391354106E+02 -0.26258660539E+03  0.27853883836E+03  0.83941880676E+02 0.  0.
          6    2    1    2  501    0 -0.51385472735E+02 -0.27528393830E+02 -0.78000221117E+02  0.19881899265E+03  0.17333977636E+03 0.  0.
         24    2    5    5    0    0 -0.86846226566E+02  0.10359049695E+02 -0.19437849849E+02  0.12043171838E+03  0.80476032487E+02 0.  0.
          5    1    5    5  501    0  0.35460753830E+02 -0.37887443525E+02 -0.58562371268E+02  0.78387274271E+02  0.47000000000E+01 0. -1.
        -13    1    6    6    0    0  0.41623522636E+01 -0.21569833876E+02  0.37395002004E+00  0.21970952379E+02  0.00000000000E+00 0.  1.
         14    1    6    6    0    0 -0.91008578829E+02  0.31928883571E+02 -0.19811799869E+02  0.98460765997E+02  0.00000000000E+00 0. -1.
         -5    1    3    3    0  503  0.40801345810E+02  0.65919747936E+02 -0.48103686046E+03  0.48726657397E+03  0.47000000000E+01 0.  1.
         13    1    4    4    0    0  0.39151494236E+02 -0.48278829077E+02 -0.18998821513E+03  0.19989799080E+03  0.00000000000E+00 0. -1.
        -14    1    4    4    0    0 -0.28567367310E+02  0.98874749714E+01 -0.72598390263E+02  0.78640847561E+02  0.00000000000E+00 0.  1.
</event>
<event>
12    1  0.8417180E-002  0.1868978E+03  0.7818608E-02  0.1161872E+00
         21   -1    0    0  503  502  0.00000000000E+00  0.00000000000E+00  0.30883817519E+03  0.30883817519E+03  0.00000000000E+00 0.  1.
         21   -1    0    0  501  503 -0.00000000000E+00 -0.00000000000E+00 -0.18753120211E+03  0.18753120211E+03  0.00000000000E+00 0.  1.
          6    2    1    2  501    0 -0.45160498436E+02  0.52565812201E+02 -0.97524605431E+02  0.20858814751E+03  0.17086641386E+03 0.  0.
         24    2    3    3    0    0 -0.50498854873E+01  0.49738570878E+02 -0.21664389892E+00  0.10319467550E+03  0.90275507976E+02 0.  0.
         -6    2    1    2    0  502  0.45160498436E+02 -0.52565812201E+02  0.21883157851E+03  0.28778122979E+03  0.17357459848E+03 0.  0.
        -24    2    5    5    0    0  0.28634873795E+02  0.30957466992E+02  0.49370132772E+02  0.98074861876E+02  0.73504746528E+02 0.  0.
          5    1    3    3  501    0 -0.40110612949E+02  0.28272413235E+01 -0.97307961532E+02  0.10539347201E+03  0.47000000000E+01 0. -1.
        -11    1    4    4    0    0 -0.17074988256E+02  0.33375761258E+02 -0.42267166294E+02  0.56497876155E+02  0.00000000000E+00 0.  1.
         12    1    4    4    0    0  0.12025102768E+02  0.16362809619E+02  0.42050522395E+02  0.46696799344E+02  0.00000000000E+00 0. -1.
         -5    1    5    5    0  502  0.16525624641E+02 -0.83523279193E+02  0.16946144573E+03  0.18970636791E+03  0.47000000000E+01 0.  1.
         11    1    6    6    0    0  0.37856487184E+02 -0.12661175846E+02  0.19632826085E+02  0.44484456339E+02  0.00000000000E+00 0. -1.
        -12    1    6    6    0    0 -0.92216133884E+01  0.43618642838E+02  0.29737306687E+02  0.53590405536E+02  0.00000000000E+00 0.  1.
</event>
<event>
12    1  0.8417180E-002  0.2110944E+03  0.7818608E-02  0.1140800E+00
         21   -1    0    0  503  502  0.00000000000E+00  0.00000000000E+00  0.64546265043E+02  0.64546265043E+02  0.00000000000E+00 0. -1.
         21   -1    0    0  501  503 -0.00000000000E+00 -0.00000000000E+00 -0.92144466898E+03  0.92144466898E+03  0.00000000000E+00 0. -1.
          6    2    1    2  501    0  0.12219469804E+03  0.21463051838E+01 -0.67657492240E+03  0.70874147702E+03  0.17211828713E+03 0.  0.
         24    2    3    3    0    0  0.62789055421E+02  0.66846770054E+02 -0.34235394380E+03  0.36313920117E+03  0.79075283415E+02 0.  0.
         -6    2    1    2    0  502 -0.12219469804E+03 -0.21463051838E+01 -0.18032348154E+03  0.27724945701E+03  0.17150671287E+03 0.  0.
        -24    2    5    5    0    0 -0.97765958862E+01 -0.45764430823E+02 -0.83848566391E+02  0.12275068734E+03  0.76466883030E+02 0.  0.
          5    1    3    3  501    0  0.59405642622E+02 -0.64700464870E+02 -0.33422097861E+03  0.34560227585E+03  0.47000000000E+01 0. -1.
        -13    1    4    4    0    0  0.90723956725E+01  0.55168890539E+02 -0.24537228148E+03  0.25166142209E+03  0.00000000000E+00 0.  1.
         14    1    4    4    0    0  0.53716659749E+02  0.11677879515E+02 -0.96981662311E+02  0.11147777908E+03  0.00000000000E+00 0. -1.
         -5    1    5    5    0  502 -0.11241810216E+03  0.43618125640E+02 -0.96474915145E+02  0.15449876967E+03  0.47000000000E+01 0.  1.
         11    1    6    6    0    0 -0.27422923032E+02  0.11003216718E+02 -0.21062823276E+02  0.36286774590E+02  0.00000000000E+00 0. -1.
        -12    1    6    6    0    0  0.17646327146E+02 -0.56767647541E+02 -0.62785743115E+02  0.86463912748E+02  0.00000000000E+00 0.  1.
</event>
<event>
12    1  0.8417180E-002  0.2398234E+03  0.7818608E-02  0.1119978E+00
         21   -1    0    0  501  502  0.00000000000E+00  0.00000000000E+00  0.17918059523E+03  0.17918059523E+03  0.00000000000E+00 0. -1.
         21   -1    0    0  502  503 -0.00000000000E+00 -0.00000000000E+00 -0.34951767461E+03  0.34951767461E+03  0.00000000000E+00 0.  1.
         -6    2    1    2    0  503  0.77541366316E+02  0.14697208255E+03 -0.90024790755E+01  0.23999228546E+03  0.17292135760E+03 0.  0.
        -24    2    3    3    0    0  0.47818999358E+02  0.53946472290E+02 -0.67521029805E+02  0.12604627175E+03  0.78305137661E+02 0.  0.
          6    2    1    2  501    0 -0.77541366316E+02 -0.14697208255E+03 -0.16133460031E+03  0.28870598437E+03  0.17236251222E+03 0.  0.
         24    2    5    5    0    0  0.22287716212E+02 -0.75337604354E+02 -0.10576552551E+03  0.15377134739E+03  0.79289242443E+02 0.  0.
          5    1    5    5  501    0 -0.99829082528E+02 -0.71634478191E+02 -0.55569074795E+02  0.13493463698E+03  0.47000000000E+01 0. -1.
        -11    1    6    6    0    0 -0.19466976361E+01 -0.71784613042E+02 -0.10743059866E+03  0.12922133659E+03  0.00000000000E+00 0.  1.
         12    1    6    6    0    0  0.24234413848E+02 -0.35529913119E+01  0.16650731456E+01  0.24550010803E+02  0.00000000000E+00 0. -1.
         -5    1    3    3    0  503  0.29722366958E+02  0.93025610255E+02  0.58518550729E+02  0.11394601371E+03  0.47000000000E+01 0.  1.
         11    1    4    4    0    0 -0.53892361773E+01  0.18835379959E+02  0.12874908424E+02  0.23443094328E+02  0.00000000000E+00 0. -1.
        -12    1    4    4    0    0  0.53208235535E+02  0.35111092332E+02 -0.80395938229E+02  0.10260317742E+03  0.00000000000E+00 0.  1.
</event>
<event>
12    1  0.8417180E-002  0.2356582E+03  0.7818608E-02  0.1122827E+00
         21   -1    0    0  503  502  0.00000000000E+00  0.00000000000E+00  0.16051720670E+03  0.16051720670E+03  0.00000000000E+00 0. -1.
         21   -1    0    0  501  503 -0.00000000000E+00 -0.00000000000E+00 -0.64438741072E+03  0.64438741072E+03  0.00000000000E+00 0.  1.
          6    2    1    2  501    0 -0.15714087755E+03  0.34040220446E+02 -0.51640635772E+03  0.56763572343E+03  0.17228695894E+03 0.  0.
         24    2    3    3    0    0 -0.17399829027E+03  0.61451486672E+02 -0.43128404021E+03  0.47651246176E+03  0.83704914090E+02 0.  0.
         -6    2    1    2    0  502  0.15714087755E+03 -0.34040220446E+02  0.32536153700E+02  0.23726889399E+03  0.17142326199E+03 0.  0.
        -24    2    5    5    0    0  0.15762785554E+03  0.21880417401E+02  0.13729472511E+02  0.17808159686E+03  0.78735400017E+02 0.  0.
          5    1    3    3  501    0  0.16857412718E+02 -0.27411266225E+02 -0.85122317507E+02  0.91123261670E+02  0.47000000000E+01 0. -1.
        -11    1    4    4    0    0 -0.57985017534E+02  0.59527625635E+02 -0.13771128634E+03  0.16084215510E+03  0.00000000000E+00 0.  1.
         12    1    4    4    0    0 -0.11601327274E+03  0.19238610365E+01 -0.29357275386E+03  0.31567030666E+03  0.00000000000E+00 0. -1.
         -5    1    5    5    0  502 -0.48697798748E+00 -0.55920637848E+02  0.18806681189E+02  0.59187297136E+02  0.47000000000E+01 0.  1.
         11    1    6    6    0    0  0.86462975460E+02  0.34509189093E+02  0.39800862240E+02  0.10124642657E+03  0.00000000000E+00 0. -1.
        -12    1    6    6    0    0  0.71164880082E+02 -0.12628771692E+02 -0.26071389729E+02  0.76835170293E+02  0.00000000000E+00 0.  1.
</event>
<event>
12    1  0.8417180E-002  0.1804335E+03  0.7818608E-02  0.1169969E+00
         21   -1    0    0  501  502  0.00000000000E+00  0.00000000000E+00  0.10783501634E+04  0.10783501634E+04  0.00000000000E+00 0. -1.
         21   -1    0    0  502  503 -0.00000000000E+00 -0.00000000000E+00 -0.35476736872E+02  0.35476736872E+02  0.00000000000E+00 0. -1.
         -6    2    1    2    0  503  0.69411988861E+01 -0.17987055126E+02  0.26178299867E+03  0.31216706250E+03  0.16895627283E+03 0.  0.
        -24    2    3    3    0    0 -0.16770128840E+02 -0.41108305322E+02  0.64588237441E+02  0.11215535503E+03  0.80225016410E+02 0.  0.
          6    2    1    2  501    0 -0.69411988861E+01  0.17987055126E+02  0.78109042791E+03  0.80165983782E+03  0.17940045876E+03 0.  0.
         24    2    5    5    0    0  0.25518835579E+02  0.68409737182E+02  0.34752826232E+03  0.36394492816E+03  0.79680076009E+02 0.  0.
          5    1    5    5  501    0 -0.32460034465E+02 -0.50422682056E+02  0.43356216559E+03  0.43771490966E+03  0.47000000000E+01 0. -1.
        -11    1    6    6    0    0 -0.67680815972E+01 -0.12200446698E+02  0.15979702754E+02  0.21213409161E+02  0.00000000000E+00 0.  1.
         12    1    6    6    0    0  0.32286917176E+02  0.80610183880E+02  0.33154855956E+03  0.34273151900E+03  0.00000000000E+00 0. -1.
         -5    1    3    3    0  503  0.23711327726E+02  0.23121250195E+02  0.19719476123E+03  0.20001170748E+03  0.47000000000E+01 0.  1.
         13    1    4    4    0    0 -0.17721170885E+02  0.98525366210E+01 -0.93688085190E+01  0.22335777320E+02  0.00000000000E+00 0. -1.
        -14    1    4    4    0    0  0.95104204568E+00 -0.50960841943E+02  0.73957045960E+02  0.89819577708E+02  0.00000000000E+00 0.  1.
</event>
<event>
12    1  0.8417180E-002  0.2479690E+03  0.7818608E-02  0.1115024E+00
         21   -1    0    0  501  502  0.00000000000E+00  0.00000000000E+00  0.30135928449E+03  0.30135928449E+03  0.00000000000E+00 0.  1.
         21   -1    0    0  502  503 -0.00000000000E+00 -0.00000000000E+00 -0.36247492956E+03  0.36247492956E+03  0.00000000000E+00 0. -1.
         -6    2    1    2    0  503  0.82756204093E+01 -0.17626870903E+03 -0.25160122996E+03  0.35325883758E+03  0.17421103220E+03 0.  0.
        -24    2    3    3    0    0 -0.54145632175E+02 -0.11642767069E+03 -0.20642621703E+03  0.25558471391E+03  0.78896203451E+02 0.  0.
          6    2    1    2  501    0 -0.82756204093E+01  0.17626870903E+03  0.19048558488E+03  0.31057537646E+03  0.17039120501E+03 0.  0.
         24    2    5    5    0    0 -0.31223501525E+02  0.86138889586E+02  0.27940366872E+02  0.12324404567E+03  0.77547503799E+02 0.  0.
          5    1    5    5  501    0  0.22947881116E+02  0.90129819439E+02  0.16254521801E+03  0.18733133079E+03  0.47000000000E+01 0. -1.
        -13    1    6    6    0    0  0.12422291129E+02  0.16503069653E+02  0.35123810387E+02  0.40747351828E+02  0.00000000000E+00 0.  1.
         14    1    6    6    0    0 -0.43645792654E+02  0.69635819933E+02 -0.71834435147E+01  0.82496693842E+02  0.00000000000E+00 0. -1.
         -5    1    3    3    0  503  0.62421252584E+02 -0.59841038336E+02 -0.45175012922E+02  0.97674123676E+02  0.47000000000E+01 0.  1.
         13    1    4    4    0    0  0.39557225133E+01 -0.84000145543E+02 -0.11917875217E+03  0.14586036871E+03  0.00000000000E+00 0. -1.
        -14    1    4    4    0    0 -0.58101354688E+02 -0.32427525147E+02 -0.87247464863E+02  0.10972434520E+03  0.00000000000E+00 0.  1.
</event>
<event>
12    1  0.8417180E-002  0.1820749E+03  0.7818608E-02  0.1165976E+00
         21   -1    0    0  503  502  0.00000000000E+00  0.00000000000E+00  0.60830741220E+03  0.60830741220E+03  0.00000000000E+00 0.  1.
         21   -1    0    0  501  503 -0.00000000000E+00 -0.00000000000E+00 -0.11538018160E+03  0.11538018160E+03  0.00000000000E+00 0.  1.
          6    2    1    2  501    0 -0.51431515388E+02  0.27511715399E+02 -0.17052932166E+02  0.18217949070E+03  0.17174536116E+03 0.  0.
         24    2    3    3    0    0 -0.50005444037E+02  0.17436557796E+02 -0.77569788847E+02  0.12063339072E+03  0.75701815267E+02 0.  0.
         -6    2    1    2    0  502  0.51431515388E+02 -0.27511715399E+02  0.50998016277E+03  0.54150810310E+03  0.17247945976E+03 0.  0.
        -24    2    5    5    0    0  0.14228156488E+01 -0.40537346793E+02  0.13196933701E+03  0.15995232537E+03  0.80768431895E+02 0.  0.
          5    1    3    3  501    0 -0.14260713511E+01  0.10075157603E+02  0.60516856680E+02  0.61546099979E+02  0.47000000000E+01 0. -1.
        -11    1    4    4    0    0 -0.16757467066E+02  0.37429700254E+02 -0.92090747379E+01  0.42030967406E+02  0.00000000000E+00 0.  1.
         12    1    4    4    0    0 -0.33247976971E+02 -0.19993142458E+02 -0.68360714109E+02  0.78602423318E+02  0.00000000000E+00 0. -1.
         -5    1    5    5    0  502  0.50008699739E+02  0.13025631394E+02  0.37801082576E+03  0.38155577773E+03  0.47000000000E+01 0.  1.
         13    1    6    6    0    0 -0.18237092660E+02  0.19618722852E+02  0.45467676369E+02  0.52771160963E+02  0.00000000000E+00 0. -1.
        -14    1    6    6    0    0  0.19659908309E+02 -0.60156069645E+02  0.86501660641E+02  0.10718116441E+03  0.00000000000E+00 0.  1.
</event>
<event>
12    1  0.8417180E-002  0.1876602E+03  0.7818608E-02  0.1162439E+00
         21   -1    0    0  503  502  0.00000000000E+00  0.00000000000E+00  0.18314904158E+03  0.18314904158E+03  0.00000000000E+00 0.  1.
         21   -1    0    0  501  503 -0.00000000000E+00 -0.00000000000E+00 -0.52250090057E+03  0.52250090057E+03  0.00000000000E+00 0.  1.
          6    2    1    2  501    0  0.28168030210E+01 -0.46746681560E+02 -0.45480399572E+03  0.49199902747E+03  0.18172281610E+03 0.  0.
         24    2    3    3    0    0  0.39195141815E+02 -0.35451514173E+02 -0.44164484050E+03  0.45142541898E+03  0.77082259678E+02 0.  0.
         -6    2    1    2    0  502 -0.28168030210E+01  0.46746681560E+02  0.11545213673E+03  0.21365091469E+03  0.17356362192E+03 0.  0.
        -24    2    5    5    0    0 -0.65744842901E+02  0.35298160374E+02  0.50383320369E+02  0.12228873595E+03  0.82750900153E+02 0.  0.
          5    1    3    3  501    0 -0.36378338794E+02 -0.11295167388E+02 -0.13159155213E+02  0.40573608487E+02  0.47000000000E+01 0. -1.
        -13    1    4    4    0    0  0.47191039324E+02  0.91307144017E+01 -0.21693189597E+03  0.22219318537E+03  0.00000000000E+00 0.  1.
         14    1    4    4    0    0 -0.79958975098E+01 -0.44582228574E+02 -0.22471294453E+03  0.22923223360E+03  0.00000000000E+00 0. -1.
         -5    1    5    5    0  502  0.62928039880E+02  0.11448521187E+02  0.65068816358E+02  0.91362178732E+02  0.47000000000E+01 0.  1.
         11    1    6    6    0    0  0.32757022025E+00  0.42162030668E+02  0.64671032414E+01  0.42656389400E+02  0.00000000000E+00 0. -1.
        -12    1    6    6    0    0 -0.66072413121E+02 -0.68638702939E+01  0.43916217127E+02  0.79632346555E+02  0.00000000000E+00 0.  1.
</event>
<event>
12    1  0.8417180E-002  0.1753964E+03  0.7818608E-02  0.1175813E+00
         21   -1    0    0  503  502  0.00000000000E+00  0.00000000000E+00  0.70874117040E+02  0.70874117040E+02  0.00000000000E+00 0. -1.
         21   -1    0    0  501  503 -0.00000000000E+00 -0.00000000000E+00 -0.63231165899E+03  0.63231165899E+03  0.00000000000E+00 0. -1.
          6    2    1    2  501    0  0.35394731258E+02 -0.77517228237E+01 -0.48589608903E+03  0.51221352976E+03  0.15797092938E+03 0.  0.
         24    2    3    3    0    0  0.72909329899E+02  0.12426200682E+02 -0.24665354139E+03  0.26916295826E+03  0.78361647296E+02 0.  0.
         -6    2    1    2    0  502 -0.35394731258E+02  0.77517228237E+01 -0.75541452919E+02  0.19097224627E+03  0.17161297016E+03 0.  0.
        -24    2    5    5    0    0 -0.71961089666E+02  0.42723973298E+02 -0.79236415463E+02  0.14002227454E+03  0.79524156789E+02 0.  0.
          5    1    3    3  501    0 -0.37514598640E+02 -0.20177923505E+02 -0.23924254764E+03  0.24305057150E+03  0.47000000000E+01 0. -1.
        -13    1    4    4    0    0  0.49192651311E+02  0.38790815660E+02 -0.97805554639E+02  0.11614891666E+03  0.00000000000E+00 0.  1.
         14    1    4    4    0    0  0.23716678588E+02 -0.26364614978E+02 -0.14884798675E+03  0.15301404160E+03  0.00000000000E+00 0. -1.
         -5    1    5    5    0  502  0.36566358407E+02 -0.34972250474E+02  0.36949625435E+01  0.50949971723E+02  0.47000000000E+01 0.  1.
         13    1    6    6    0    0 -0.70402951587E+02  0.15964538175E+02 -0.86093342977E+02  0.11235437587E+03  0.00000000000E+00 0. -1.
        -14    1    6    6    0    0 -0.15581380791E+01  0.26759435123E+02  0.68569275140E+01  0.27667898679E+02  0.00000000000E+00 0.  1.
</event>
<event>
12    1  0.8417180E-002  0.1825722E+03  0.7818608E-02  0.1165981E+00
         21   -1    0    0  501  502  0.00000000000E+00  0.00000000000E+00  0.25591644709E+03  0.25591644709E+03  0.00000000000E+00 0.  1.
         21   -1    0    0  502  503 -0.00000000000E+00 -0.00000000000E+00 -0.27787111835E+03  0.27787111835E+03  0.00000000000E+00 0.  1.
         -6    2    1    2    0  503  0.35771028776E+02 -0.39461853091E+02 -0.20680146225E+03  0.27586128580E+03  0.17463046660E+03 0.  0.
        -24    2    3    3    0    0  0.72534176570E+02 -0.59650107321E+01 -0.67152105773E+02  0.12754540584E+03  0.80384308900E+02 0.  0.
          6    2    1    2  501    0 -0.35771028776E+02  0.39461853091E+02  0.18484679099E+03  0.25792627964E+03  0.17181625429E+03 0.  0.
         24    2    5    5    0    0 -0.18700976340E+02  0.81734192710E+02  0.71781391931E+02  0.13592541140E+03  0.79328081169E+02 0.  0.
          5    1    5    5  501    0 -0.17070052436E+02 -0.42272339618E+02  0.11306539906E+03  0.12200086824E+03  0.47000000000E+01 0. -1.
        -13    1    6    6    0    0  0.24127997387E+02  0.17681262299E+01  0.20566068907E+02  0.31752948187E+02  0.00000000000E+00 0.  1.
         14    1    6    6    0    0 -0.42828973728E+02  0.79966066480E+02  0.51215323024E+02  0.10417246321E+03  0.00000000000E+00 0. -1.
         -5    1    3    3    0  503 -0.36763147794E+02 -0.33496842359E+02 -0.13964935648E+03  0.14831587996E+03  0.47000000000E+01 0.  1.
         13    1    4    4    0    0  0.23762102928E+02 -0.39028407614E+02 -0.12970651526E+02  0.47498336155E+02  0.00000000000E+00 0. -1.
        -14    1    4    4    0    0  0.48772073642E+02  0.33063396882E+02 -0.54181454247E+02  0.80047069685E+02  0.00000000000E+00 0.  1.
</event>
<event>
12    1  0.8417180E-002  0.1961756E+03  0.7818608E-02  0.1153945E+00
         21   -1    0    0  501  502  0.00000000000E+00  0.00000000000E+00  0.13225368906E+03  0.13225368906E+03  0.00000000000E+00 0.  1.
         21   -1    0    0  502  503 -0.00000000000E+00 -0.00000000000E+00 -0.28574597635E+03  0.28574597635E+03  0.00000000000E+00 0.  1.
         -6    2    1    2    0  503  0.52699151499E+02  0.69528409284E+02 -0.90424897075E+02  0.21601275211E+03  0.17570841413E+03 0.  0.
        -24    2    3    3    0    0  0.81841362810E+02  0.18059559135E+02 -0.10660301215E+02  0.11660052062E+03  0.80360954729E+02 0.  0.
          6    2    1    2  501    0 -0.52699151499E+02 -0.69528409284E+02 -0.63067390219E+02  0.20198691330E+03  0.17090879781E+03 0.  0.
         24    2    5    5    0    0 -0.90308737706E+01 -0.31854703150E+02 -0.10212492609E+03  0.13217425168E+03  0.77098984977E+02 0.  0.
          5    1    5    5  501    0 -0.43668277728E+02 -0.37673706134E+02  0.39057535873E+02  0.69812661617E+02  0.47000000000E+01 0. -1.
        -13    1    6    6    0    0  0.30195236093E+02 -0.27883441124E+02 -0.33472989572E+02  0.53006410957E+02  0.00000000000E+00 0.  1.
         14    1    6    6    0    0 -0.39226109863E+02 -0.39712620254E+01 -0.68651936520E+02  0.79167840724E+02  0.00000000000E+00 0. -1.
         -5    1    3    3    0  503 -0.29142211311E+02  0.51468850149E+02 -0.79764595860E+02  0.99412231483E+02  0.47000000000E+01 0.  1.
         11    1    4    4    0    0 -0.39166642009E+01 -0.14365540256E+02  0.15262849935E+02  0.21322842058E+02  0.00000000000E+00 0. -1.
        -12    1    4    4    0    0  0.85758027011E+02  0.32425099390E+02 -0.25923151150E+02  0.95277678565E+02  0.00000000000E+00 0.  1.
</event>
<event>
12    1  0.8417180E-002  0.2410096E+03  0.7818608E-02  0.1119254E+00
         21   -1    0    0  503  502  0.00000000000E+00  0.00000000000E+00  0.12718891655E+04  0.12718891655E+04  0.00000000000E+00 0.  1.
         21   -1    0    0  501  503 -0.00000000000E+00 -0.00000000000E+00 -0.76242306626E+02  0.76242306626E+02  0.00000000000E+00 0. -1.
          6    2    1    2  501    0  0.11235373258E+03  0.12399118309E+03  0.16933595371E+03  0.29390203608E+03  0.17235593081E+03 0.  0.
         24    2    3    3    0    0  0.13078191125E+02  0.11191256963E+03  0.81138404506E+02  0.16047631247E+03  0.80459579017E+02 0.  0.
         -6    2    1    2    0  502 -0.11235373258E+03 -0.12399118309E+03  0.10263109051E+04  0.10542294360E+04  0.17346024055E+03 0.  0.
        -24    2    5    5    0    0 -0.57817686974E+02 -0.55841796874E+02  0.27787569177E+03  0.30070712200E+03  0.82150361781E+02 0.  0.
          5    1    3    3  501    0  0.99275541458E+02  0.12078613463E+02  0.88197549205E+02  0.13342572361E+03  0.47000000000E+01 0. -1.
        -11    1    4    4    0    0 -0.32726758216E+01  0.46876230765E+02  0.80735646471E+02  0.93414859786E+02  0.00000000000E+00 0.  1.
         12    1    4    4    0    0  0.16350866946E+02  0.65036338862E+02  0.40275803498E+00  0.67061452687E+02  0.00000000000E+00 0. -1.
         -5    1    5    5    0  502 -0.54536045609E+02 -0.68149386215E+02  0.74843521336E+03  0.75352231401E+03  0.47000000000E+01 0.  1.
         11    1    6    6    0    0 -0.25664945695E+02  0.19613057084E+02  0.65170106902E+02  0.72735852778E+02  0.00000000000E+00 0. -1.
        -12    1    6    6    0    0 -0.32152741279E+02 -0.75454853957E+02  0.21270558486E+03  0.22797126922E+03  0.00000000000E+00 0.  1.
</event>
<event>
12    1  0.8417180E-002  0.1858977E+03  0.7818608E-02  0.1162979E+00
         21   -1    0    0  501  502  0.00000000000E+00  0.00000000000E+00  0.77813715060E+02  0.77813715060E+02  0.00000000000E+00 0.  1.
         21   -1    0    0  502  503 -0.00000000000E+00 -0.00000000000E+00 -0.84606101660E+03  0.84606101660E+03  0.00000000000E+00 0.  1.
         -6    2    1    2    0  503  0.41981261640E+02  0.44022044726E+02 -0.70381889385E+03  0.72712881318E+03  0.17220600703E+03 0.  0.
        -24    2    3    3    0    0  0.67338820857E+02 -0.22403363675E+02 -0.33079447578E+03  0.34735961067E+03  0.78722845627E+02 0.  0.
          6    2    1    2  501    0 -0.41981261640E+02 -0.44022044726E+02 -0.64428407680E+02  0.19674591848E+03  0.17566322885E+03 0.  0.
         24    2    5    5    0    0 -0.93896663000E+02 -0.96338335553E+01 -0.43034015141E+02  0.13073404077E+03  0.79561730034E+02 0.  0.
          5    1    5    5  501    0  0.51915401359E+02 -0.34388211171E+02 -0.21394392540E+02  0.66011877704E+02  0.47000000000E+01 0. -1.
        -11    1    6    6    0    0 -0.89186167580E+02  0.19490522363E+02 -0.43727080547E+02  0.10122307308E+03  0.00000000000E+00 0.  1.
         12    1    6    6    0    0 -0.47104954192E+01 -0.29124355918E+02  0.69306540600E+00  0.29510967697E+02  0.00000000000E+00 0. -1.
         -5    1    3    3    0  503 -0.25357559217E+02  0.66425408401E+02 -0.37302441808E+03  0.37976920251E+03  0.47000000000E+01 0.  1.
         11    1    4    4    0    0  0.66825849695E+02  0.44700434016E+01 -0.29550514461E+03  0.30299994384E+03  0.00000000000E+00 0. -1.
        -12    1    4    4    0    0  0.51297116165E+00 -0.26873407077E+02 -0.35289331164E+02  0.44359666831E+02  0.00000000000E+00 0.  1.
</event>
<event>
12    1  0.8417180E-002  0.2168814E+03  0.7818608E-02  0.1136735E+00
         21   -1    0    0  503  502  0.00000000000E+00  0.00000000000E+00  0.24331339162E+03  0.24331339162E+03  0.00000000000E+00 0.  1.
         21   -1    0    0  501  503 -0.00000000000E+00 -0.00000000000E+00 -0.10197630421E+04  0.10197630421E+04  0.00000000000E+00 0.  1.
          6    2    1    2  501    0  0.12838983207E+03  0.33531123014E+02 -0.95801100433E+03  0.98225383978E+03  0.17154951516E+03 0.  0.
         24    2    3    3    0    0  0.15640786753E+03  0.36613762326E+01 -0.75928489562E+03  0.77929727209E+03  0.79459794044E+02 0.  0.
         -6    2    1    2    0  502 -0.12838983207E+03 -0.33531123014E+02  0.18156135384E+03  0.28082259395E+03  0.16819191084E+03 0.  0.
        -24    2    5    5    0    0 -0.15032818870E+03  0.19693674479E+01  0.12955043256E+03  0.21397349338E+03  0.79993115724E+02 0.  0.
          5    1    3    3  501    0 -0.28018035468E+02  0.29869746782E+02 -0.19872610871E+03  0.20295656768E+03  0.47000000000E+01 0. -1.
        -13    1    4    4    0    0  0.77672369931E+02  0.82627718301E+01 -0.55228145268E+03  0.55777779933E+03  0.00000000000E+00 0.  1.
         14    1    4    4    0    0  0.78735497603E+02 -0.46013955975E+01 -0.20700344294E+03  0.22151947277E+03  0.00000000000E+00 0. -1.
         -5    1    5    5    0  502  0.21938356636E+02 -0.35500490462E+02  0.52010921280E+02  0.66849100572E+02  0.47000000000E+01 0.  1.
         13    1    6    6    0    0  0.11046394608E+01 -0.28790510050E+00 -0.87825500872E+01  0.88564272548E+01  0.00000000000E+00 0. -1.
        -14    1    6    6    0    0 -0.15143282816E+03  0.22572725484E+01  0.13833298265E+03  0.20511706612E+03  0.00000000000E+00 0.  1.
</event>
<event>
12    1  0.8417180E-002  0.3806963E+03  0.7818608E-02  0.1050694E+00
         21   -1    0    0  501  502  0.00000000000E+00  0.00000000000E+00  0.80980746531E+03  0.80980746531E+03  0.00000000000E+00 0. -1.
         21   -1    0    0  502  503 -0.00000000000E+00 -0.00000000000E+00 -0.94034885080E+03  0.94034885080E+03  0.00000000000E+00 0.  1.
         -6    2    1    2    0  503 -0.24925030393E+03  0.23139774192E+03 -0.85273427168E+03  0.93385512026E+03  0.17105267776E+03 0.  0.
        -24    2    3    3    0    0 -0.10988155255E+03  0.41725830965E+02 -0.26281522467E+03  0.29869714409E+03  0.79581034239E+02 0.  0.
          6    2    1    2  501    0  0.24925030393E+03 -0.23139774192E+03  0.72219288619E+03  0.81630119585E+03  0.17062956515E+03 0.  0.
         24    2    5    5    0    0  0.34259097641E+02 -0.64057205606E+02  0.19140320704E+03  0.21965737633E+03  0.79606305968E+02 0.  0.
          5    1    5    5  501    0  0.21499120629E+03 -0.16734053631E+03  0.53078967915E+03  0.59664381952E+03  0.47000000000E+01 0. -1.
        -13    1    6    6    0    0  0.14499195190E+02  0.16281572345E+02  0.65243327244E+02  0.68789592302E+02  0.00000000000E+00 0.  1.
         14    1    6    6    0    0  0.19759902451E+02 -0.80338777951E+02  0.12615987980E+03  0.15086778403E+03  0.00000000000E+00 0. -1.
         -5    1    3    3    0  503 -0.13936875138E+03  0.18967191096E+03 -0.58991904701E+03  0.63515797617E+03  0.47000000000E+01 0.  1.
         13    1    4    4    0    0 -0.38061877620E+02 -0.14428429360E+02 -0.36359791396E+02  0.54579488200E+02  0.00000000000E+00 0. -1.
        -14    1    4    4    0    0 -0.71819674930E+02  0.56154260325E+02 -0.22645543327E+03  0.24411765589E+03  0.00000000000E+00 0.  1.
</event>
<event>
12    1  0.8417180E-002  0.2143764E+03  0.7818608E-02  0.1139010E+00
         21   -1    0    0  501  502  0.00000000000E+00  0.00000000000E+00  0.14133005851E+03  0.14133005851E+03  0.00000000000E+00 0.  1.
         21   -1    0    0  502  503 -0.00000000000E+00 -0.00000000000E+00 -0.38089209633E+03  0.38089209633E+03  0.00000000000E+00 0. -1.
         -6    2    1    2    0  503 -0.57607691345E+02  0.11482860455E+03 -0.22441463827E+03  0.30731126858E+03  0.16605430257E+03 0.  0.
        -24    2    3    3    0    0 -0.91538353285E+02  0.45202064877E+02 -0.10447731831E+03  0.16446101284E+03  0.75560690260E+02 0.  0.
          6    2    1    2  501    0  0.57607691345E+02 -0.11482860455E+03 -0.15147399551E+02  0.21491088625E+03  0.17161873672E+03 0.  0.
         24    2    5    5    0    0  0.15383155783E+02 -0.13586015930E+03  0.96255922829E+01  0.16142230034E+03  0.85263606846E+02 0.  0.
          5    1    5    5  501    0  0.42224535563E+02  0.21031554754E+02 -0.24772991834E+02  0.53488585916E+02  0.47000000000E+01 0. -1.
        -13    1    6    6    0    0  0.25187149941E+02 -0.12192436243E+03  0.36377887587E+02  0.12970463901E+03  0.00000000000E+00 0.  1.
         14    1    6    6    0    0 -0.98039941587E+01 -0.13935796871E+02 -0.26752295304E+02  0.31717661325E+02  0.00000000000E+00 0. -1.
         -5    1    3    3    0  503  0.33930661939E+02  0.69626539671E+02 -0.11993731996E+03  0.14285025574E+03  0.47000000000E+01 0.  1.
         13    1    4    4    0    0 -0.29449268331E+02 -0.20834295720E+02 -0.24779634004E+02  0.43764798009E+02  0.00000000000E+00 0. -1.
        -14    1    4    4    0    0 -0.62089084954E+02  0.66036360597E+02 -0.79697684308E+02  0.12069621483E+03  0.00000000000E+00 0.  1.
</event>
<event>
12    1  0.8417180E-002  0.2118079E+03  0.7818608E-02  0.1142631E+00
         21   -1    0    0  501  502  0.00000000000E+00  0.00000000000E+00  0.16350278217E+03  0.16350278217E+03  0.00000000000E+00 0.  1.
         21   -1    0    0  502  503 -0.00000000000E+00 -0.00000000000E+00 -0.28603408665E+03  0.28603408665E+03  0.00000000000E+00 0.  1.
         -6    2    1    2    0  503  0.37609928273E+02 -0.92594812561E+02 -0.12910072721E+03  0.23762712758E+03  0.17265963043E+03 0.  0.
        -24    2    3    3    0    0 -0.22507917282E+02 -0.80317927360E+02 -0.23263205679E+02  0.11519940103E+03  0.75974663306E+02 0.  0.
          6    2    1    2  501    0 -0.37609928273E+02  0.92594812561E+02  0.65694227272E+01  0.21190974125E+03  0.18674655312E+03 0.  0.
         24    2    5    5    0    0  0.16655928847E+02  0.34183156347E+02  0.67734566008E+02  0.11131168171E+03  0.79727102721E+02 0.  0.
          5    1    5    5  501    0 -0.54265857120E+02  0.58411656214E+02 -0.61165143281E+02  0.10059805954E+03  0.47000000000E+01 0. -1.
        -13    1    6    6    0    0  0.20701192616E+02  0.58774266907E+02  0.55943653292E+02  0.83741543871E+02  0.00000000000E+00 0.  1.
         14    1    6    6    0    0 -0.40452637691E+01 -0.24591110560E+02  0.11790912716E+02  0.27570137835E+02  0.00000000000E+00 0. -1.
         -5    1    3    3    0  503  0.60117845555E+02 -0.12276885201E+02 -0.10583752153E+03  0.12242772655E+03  0.47000000000E+01 0.  1.
         11    1    4    4    0    0 -0.84871918865E+01  0.14036421740E+02 -0.91155907730E+01  0.18765595022E+02  0.00000000000E+00 0. -1.
        -12    1    4    4    0    0 -0.14020725396E+02 -0.94354349100E+02 -0.14147614906E+02  0.96433806013E+02  0.00000000000E+00 0.  1.
</event>
<event>
12    1  0.8417180E-002  0.2177112E+03  0.7818608E-02  0.1135704E+00
         21   -1    0    0  501  502  0.00000000000E+00  0.00000000000E+00  0.68015463877E+03  0.68015463877E+03  0.00000000000E+00 0.  1.
         21   -1    0    0  502  503 -0.00000000000E+00 -0.00000000000E+00 -0.70112936124E+02  0.70112936124E+02  0.00000000000E+00 0.  1.
         -6    2    1    2    0  503 -0.12070562950E+03 -0.54241902366E+02  0.26995949783E+03  0.34646802014E+03  0.17219153738E+03 0.  0.
        -24    2    3    3    0    0  0.91199719421E+01  0.79585463026E+01  0.11183085916E+03  0.13257473139E+03  0.70166986504E+02 0.  0.
          6    2    1    2  501    0  0.12070562950E+03  0.54241902366E+02  0.34008220482E+03  0.40379955476E+03  0.17287608691E+03 0.  0.
         24    2    5    5    0    0  0.47724343053E+02  0.63359872837E+02  0.96098796093E+02  0.14892821606E+03  0.81563156648E+02 0.  0.
          5    1    5    5  501    0  0.72981286446E+02 -0.91179704712E+01  0.24398340872E+03  0.25487133870E+03  0.47000000000E+01 0. -1.
        -11    1    6    6    0    0  0.59209429095E+02  0.62479959983E+02  0.46152023517E+02  0.97670421152E+02  0.00000000000E+00 0.  1.
         12    1    6    6    0    0 -0.11485086042E+02  0.87991285402E+00  0.49946772576E+02  0.51257794908E+02  0.00000000000E+00 0. -1.
         -5    1    3    3    0  503 -0.12982560144E+03 -0.62200448669E+02  0.15812863867E+03  0.21389328875E+03  0.47000000000E+01 0.  1.
         13    1    4    4    0    0  0.23337414573E+02 -0.25192852799E+02  0.64420306195E+02  0.73001990393E+02  0.00000000000E+00 0. -1.
        -14    1    4    4    0    0 -0.14217442631E+02  0.33151399102E+02  0.47410552963E+02  0.59572740995E+02  0.00000000000E+00 0.  1.
</event>
<event>
12    1  0.8417180E-002  0.3374710E+03  0.7818608E-02  0.1067940E+00
         21   -1    0    0  501  502  0.00000000000E+00  0.00000000000E+00  0.79277154314E+03  0.79277154314E+03  0.00000000000E+00 0.  1.
         21   -1    0    0  502  503 -0.00000000000E+00 -0.00000000000E+00 -0.15179648749E+03  0.15179648749E+03  0.00000000000E+00 0.  1.
         -6    2    1    2    0  503  0.18381077232E+03  0.22471420679E+03  0.20923996403E+03  0.39658823194E+03  0.17093270141E+03 0.  0.
        -24    2    3    3    0    0  0.17494276772E+03  0.14095543661E+03  0.19818689852E+03  0.31150924896E+03  0.85361339939E+02 0.  0.
          6    2    1    2  501    0 -0.18381077232E+03 -0.22471420679E+03  0.43173509162E+03  0.54797979869E+03  0.17205753597E+03 0.  0.
         24    2    5    5    0    0 -0.15934828240E+02 -0.95862828465E+02  0.15390032696E+03  0.19869587872E+03  0.79694045890E+02 0.  0.
          5    1    5    5  501    0 -0.16787594408E+03 -0.12885137832E+03  0.27783476466E+03  0.34928391997E+03  0.47000000000E+01 0. -1.
        -11    1    6    6    0    0 -0.50192454820E+01 -0.44115510801E+02  0.13567858541E+03  0.14275871132E+03  0.00000000000E+00 0.  1.
         12    1    6    6    0    0 -0.10915582758E+02 -0.51747317664E+02  0.18221741556E+02  0.55937167408E+02  0.00000000000E+00 0. -1.
         -5    1    3    3    0  503  0.88680045942E+01  0.83758770174E+02  0.11053065512E+02  0.85078982973E+02  0.47000000000E+01 0.  1.
         13    1    4    4    0    0  0.77895352060E+02  0.11600862941E+03  0.10654857842E+03  0.17572218851E+03  0.00000000000E+00 0. -1.
        -14    1    4    4    0    0  0.97047415663E+02  0.24946807198E+02  0.91638320104E+02  0.13578706046E+03  0.00000000000E+00 0.  1.
</event>
<event>
12    1  0.8417180E-002  0.2608071E+03  0.7818608E-02  0.1106667E+00
         21   -1    0    0  503  502  0.00000000000E+00  0.00000000000E+00  0.43397513553E+03  0.43397513553E+03  0.00000000000E+00 0.  1.
         21   -1    0    0  501  503 -0.00000000000E+00 -0.00000000000E+00 -0.16421226404E+03  0.16421226404E+03  0.00000000000E+00 0. -1.
          6    2    1    2  501    0 -0.19614804473E+03 -0.11408243085E+02  0.19881091667E+03  0.32790136245E+03  0.17143313404E+03 0.  0.
         24    2    3    3    0    0 -0.11152607702E+03 -0.65847280420E+02  0.15801371168E+03  0.21922299229E+03  0.79476141549E+02 0.  0.
         -6    2    1    2    0  502  0.19614804473E+03  0.11408243085E+02  0.70951954819E+02  0.27028603712E+03  0.17151139469E+03 0.  0.
        -24    2    5    5    0    0  0.14459673649E+03  0.58047426652E+02  0.89324803937E+02  0.19822771068E+03  0.83890313735E+02 0.  0.
          5    1    3    3  501    0 -0.84621967709E+02  0.54439037335E+02  0.40797204995E+02  0.10867837016E+03  0.47000000000E+01 0. -1.
        -11    1    4    4    0    0 -0.11597628044E+03 -0.39762371399E+02  0.11156670993E+03  0.16576692845E+03  0.00000000000E+00 0.  1.
         12    1    4    4    0    0  0.44502034245E+01 -0.26084909021E+02  0.46447001750E+02  0.53456063835E+02  0.00000000000E+00 0. -1.
         -5    1    5    5    0  502  0.51551308231E+02 -0.46639183567E+02 -0.18372849118E+02  0.72058326436E+02  0.47000000000E+01 0.  1.
         13    1    6    6    0    0  0.30888690093E+02  0.32928272556E+02 -0.87405902253E+01  0.45986739683E+02  0.00000000000E+00 0. -1.
        -14    1    6    6    0    0  0.11370804640E+03  0.25119154097E+02  0.98065394163E+02  0.15224097100E+03  0.00000000000E+00 0.  1.
</event>
<event>
12    1  0.8417180E-002  0.2890665E+03  0.7818608E-02  0.1091179E+00
         21   -1    0    0  501  502  0.00000000000E+00  0.00000000000E+00  0.22002630989E+03  0.22002630989E+03  0.00000000000E+00 0. -1.
         21   -1    0    0  502  503 -0.00000000000E+00 -0.00000000000E+00 -0.68323502977E+03  0.68323502977E+03  0.00000000000E+00 0.  1.
         -6    2    1    2    0  503 -0.22523189623E+03 -0.51617593788E+02 -0.53485038337E+03  0.60796742638E+03  0.17368268733E+03 0.  0.
        -24    2    3    3    0    0 -0.25272523711E+02 -0.14170022006E+02 -0.13069146440E+03  0.15547146720E+03  0.79067238899E+02 0.  0.
          6    2    1    2  501    0  0.22523189623E+03  0.51617593788E+02  0.71641663490E+02  0.29529391328E+03  0.16932862783E+03 0.  0.
         24    2    5    5    0    0  0.51427526016E+02 -0.94956736142E+01 -0.28275922847E+02  0.85655165383E+02  0.61662965340E+02 0.  0.
          5    1    5    5  501    0  0.17380437022E+03  0.61113267402E+02  0.99917586337E+02  0.20963874789E+03  0.47000000000E+01 0. -1.
        -13    1    6    6    0    0  0.62501715442E+02 -0.16605867513E+02 -0.31750670005E+02  0.72043905466E+02  0.00000000000E+00 0.  1.
         14    1    6    6    0    0 -0.11074189426E+02  0.71101938990E+01  0.34747471580E+01  0.13611259917E+02  0.00000000000E+00 0. -1.
         -5    1    3    3    0  503 -0.19995937252E+03 -0.37447571782E+02 -0.40415891897E+03  0.45249595918E+03  0.47000000000E+01 0.  1.
         11    1    4    4    0    0  0.17519129049E+02 -0.25727854060E+02 -0.22076832949E+02  0.38160567478E+02  0.00000000000E+00 0. -1.
        -12    1    4    4    0    0 -0.42791652760E+02  0.11557832054E+02 -0.10861463145E+03  0.11731089972E+03  0.00000000000E+00 0.  1.
</event>
<event>
12    1  0.8417180E-002  0.2054680E+03  0.7818608E-02  0.1145244E+00
         21   -1    0    0  503  502  0.00000000000E+00  0.00000000000E+00  0.15773068240E+03  0.15773068240E+03  0.00000000000E+00 0.  1.
         21   -1    0    0  501  503 -0.00000000000E+00 -0.00000000000E+00 -0.44295284518E+03  0.44295284518E+03  0.00000000000E+00 0. -1.
          6    2    1    2  501    0  0.74694846375E+02 -0.83513131096E+02 -0.33172334484E+03  0.39020184278E+03  0.17223047774E+03 0.  0.
         24    2    3    3    0    0  0.11400590165E+03 -0.60228395700E+02 -0.20071884645E+03  0.25137891036E+03  0.79236961034E+02 0.  0.
         -6    2    1    2    0  502 -0.74694846375E+02  0.83513131096E+02  0.46501182064E+02  0.21048168480E+03  0.17200702474E+03 0.  0.
        -24    2    5    5    0    0 -0.11000023483E+03  0.28585381100E+02  0.22638408333E+02  0.14080349493E+03  0.79974689591E+02 0.  0.
          5    1    3    3  501    0 -0.39311055277E+02 -0.23284735396E+02 -0.13100449839E+03  0.13882293242E+03  0.47000000000E+01 0. -1.
        -11    1    4    4    0    0  0.24384627478E+02  0.19561249208E+02 -0.38154611942E+02  0.49325722906E+02  0.00000000000E+00 0.  1.
         12    1    4    4    0    0  0.89621274174E+02 -0.79789644908E+02 -0.16256423451E+03  0.20205318745E+03  0.00000000000E+00 0. -1.
         -5    1    5    5    0  502  0.35305388458E+02  0.54927749995E+02  0.23862773731E+02  0.69678189872E+02  0.47000000000E+01 0.  1.
         13    1    6    6    0    0  0.10687336490E+02  0.79474913025E+01 -0.66844169617E+01  0.14901785443E+02  0.00000000000E+00 0. -1.
        -14    1    6    6    0    0 -0.12068757132E+03  0.20637889798E+02  0.29322825295E+02  0.12590170948E+03  0.00000000000E+00 0.  1.
</event>
<event>
12    1  0.8417180E-002  0.1742752E+03  0.7818608E-02  0.1173577E+00
         21   -1    0    0  503  502  0.00000000000E+00  0.00000000000E+00  0.15462307386E+04  0.15462307386E+04  0.00000000000E+00 0. -1.
         21   -1    0    0  501  503 -0.00000000000E+00 -0.00000000000E+00 -0.14469792992E+03  0.14469792992E+03  0.00000000000E+00 0. -1.
          6    2    1    2  501    0  0.66665057750E+01 -0.20624017186E+02 -0.85506927889E+02  0.19371157298E+03  0.17246143454E+03 0.  0.
         24    2    3    3    0    0 -0.53758135592E+02 -0.25223370701E+02 -0.10717349890E+02  0.97338016880E+02  0.76378481065E+02 0.  0.
         -6    2    1    2    0  502 -0.66665057750E+01  0.20624017186E+02  0.14870397366E+04  0.14972170956E+04  0.17292212313E+03 0.  0.
        -24    2    5    5    0    0 -0.64687108726E+02  0.41805162767E+02  0.86588089426E+03  0.87297721483E+03  0.80046242248E+02 0.  0.
          5    1    3    3  501    0  0.60424641367E+02  0.45993535150E+01 -0.74789577999E+02  0.96373556095E+02  0.47000000000E+01 0. -1.
        -11    1    4    4    0    0 -0.25182159847E+02  0.14557518813E+02  0.23662120080E+02  0.37496112535E+02  0.00000000000E+00 0.  1.
         12    1    4    4    0    0 -0.28575975745E+02 -0.39780889515E+02 -0.34379469969E+02  0.59841904346E+02  0.00000000000E+00 0. -1.
         -5    1    5    5    0  502  0.58020602951E+02 -0.21181145580E+02  0.62115884234E+03  0.62423988075E+03  0.47000000000E+01 0.  1.
         11    1    6    6    0    0 -0.12249185073E+02 -0.17651004306E+02  0.38554887655E+03  0.38614704026E+03  0.00000000000E+00 0. -1.
        -12    1    6    6    0    0 -0.52437923653E+02  0.59456167072E+02  0.48033201770E+03  0.48683017457E+03  0.00000000000E+00 0.  1.
</event>
<event>
12    1  0.8417180E-002  0.2370237E+03  0.7818608E-02  0.1122389E+00
         21   -1    0    0  501  502  0.00000000000E+00  0.00000000000E+00  0.17234622711E+04  0.17234622711E+04  0.00000000000E+00 0. -1.
         21   -1    0    0  502  503 -0.00000000000E+00 -0.00000000000E+00 -0.32259405468E+02  0.32259405468E+02  0.00000000000E+00 0.  1.
         -6    2    1    2    0  503 -0.94803932489E+02 -0.12746124584E+03  0.91002045388E+03  0.94038154756E+03  0.17591496157E+03 0.  0.
        -24    2    3    3    0    0 -0.42885602832E+02 -0.13920416728E+03  0.80871497383E+03  0.82584640253E+03  0.82373518570E+02 0.  0.
          6    2    1    2  501    0  0.94803932489E+02  0.12746124584E+03  0.78118241171E+03  0.81534012896E+03  0.17117070640E+03 0.  0.
         24    2    5    5    0    0  0.42059732187E+02 -0.35788290452E+01  0.22290945788E+03  0.23945452152E+03  0.76602952766E+02 0.  0.
          5    1    5    5  501    0  0.52744200302E+02  0.13104007489E+03  0.55827295382E+03  0.57588560744E+03  0.47000000000E+01 0. -1.
        -11    1    6    6    0    0  0.61708934651E+02 -0.16434566148E+02  0.15722112878E+03  0.16969552415E+03  0.00000000000E+00 0.  1.
         12    1    6    6    0    0 -0.19649202464E+02  0.12855737103E+02  0.65688329104E+02  0.69758997372E+02  0.00000000000E+00 0. -1.
         -5    1    3    3    0  503 -0.51918329657E+02  0.11742921439E+02  0.10130548005E+03  0.11453514503E+03  0.47000000000E+01 0.  1.
         13    1    4    4    0    0 -0.11494927039E+02 -0.10441762823E+03  0.36960085112E+03  0.38423946125E+03  0.00000000000E+00 0. -1.
        -14    1    4    4    0    0 -0.31390675793E+02 -0.34786539047E+02  0.43911412271E+03  0.44160694128E+03  0.00000000000E+00 0.  1.
</event>
<event>
12    1  0.8417180E-002  0.1821056E+03  0.7818608E-02  0.1166770E+00
         21   -1    0    0  503  502  0.00000000000E+00  0.00000000000E+00  0.24854777349E+03  0.24854777349E+03  0.00000000000E+00 0. -1.
         21   -1    0    0  501  503 -0.00000000000E+00 -0.00000000000E+00 -0.13539787489E+03  0.13539787489E+03  0.00000000000E+00 0.  1.
          6    2    1    2  501    0 -0.37753698448E+02  0.29958458083E+02  0.92701676157E+02  0.20069557273E+03  0.17135419806E+03 0.  0.
         24    2    3    3    0    0 -0.49241134960E+02 -0.41011679367E+02  0.32975398091E+02  0.10711117286E+03  0.79238748449E+02 0.  0.
         -6    2    1    2    0  502  0.37753698448E+02 -0.29958458083E+02  0.20448222441E+02  0.18325007566E+03  0.17561209944E+03 0.  0.
        -24    2    5    5    0    0  0.13412045493E+02  0.46049975996E+02  0.40175171087E+02  0.10090300150E+03  0.79163679080E+02 0.  0.
          5    1    3    3  501    0  0.11487436512E+02  0.70970137450E+02  0.59726278066E+02  0.93584399870E+02  0.47000000000E+01 0. -1.
        -13    1    4    4    0    0 -0.55032994810E+02 -0.10985497728E+02 -0.72466120693E+01  0.56584671640E+02  0.00000000000E+00 0.  1.
         14    1    4    4    0    0  0.57918598502E+01 -0.30026181639E+02  0.40222010160E+02  0.50526501222E+02  0.00000000000E+00 0. -1.
         -5    1    5    5    0  502  0.24341652955E+02 -0.76008434079E+02 -0.19726948646E+02  0.82347074159E+02  0.47000000000E+01 0.  1.
         11    1    6    6    0    0 -0.21535824343E+02  0.47129939965E+02  0.62633678597E+01  0.52194374680E+02  0.00000000000E+00 0. -1.
        -12    1    6    6    0    0  0.34947869836E+02 -0.10799639689E+01  0.33911803227E+02  0.48708626816E+02  0.00000000000E+00 0.  1.
</event>
<event>
12    1  0.8417180E-002  0.2345609E+03  0.7818608E-02  0.1123645E+00
         21   -1    0    0  501  502  0.00000000000E+00  0.00000000000E+00  0.13585781218E+03  0.13585781218E+03  0.00000000000E+00 0.  1.
         21   -1    0    0  502  503 -0.00000000000E+00 -0.00000000000E+00 -0.42902460593E+03  0.42902460593E+03  0.00000000000E+00 0.  1.
         -6    2    1    2    0  503  0.32235633979E+02 -0.15576471351E+03 -0.21555673819E+03  0.31781533901E+03  0.17099736915E+03 0.  0.
        -24    2    3    3    0    0 -0.46972886863E+02 -0.87930937524E+02 -0.13816693405E+03  0.18786656940E+03  0.79154559928E+02 0.  0.
          6    2    1    2  501    0 -0.32235633979E+02  0.15576471351E+03 -0.77610055553E+02  0.24706707910E+03  0.17238630682E+03 0.  0.
         24    2    5    5    0    0  0.95697276707E+00  0.17729911210E+03 -0.54408933931E+02  0.20096001338E+03  0.77386716793E+02 0.  0.
          5    1    5    5  501    0 -0.33192606746E+02 -0.21534398589E+02 -0.23201121622E+02  0.46107065724E+02  0.47000000000E+01 0. -1.
        -13    1    6    6    0    0 -0.35425730227E+02  0.56250145808E+02 -0.11410903942E+02  0.67448276437E+02  0.00000000000E+00 0.  1.
         14    1    6    6    0    0  0.36382702994E+02  0.12104896630E+03 -0.42998029989E+02  0.13351173694E+03  0.00000000000E+00 0. -1.
         -5    1    3    3    0  503  0.79208520841E+02 -0.67833775990E+02 -0.77389804137E+02  0.12994876961E+03  0.47000000000E+01 0.  1.
         11    1    4    4    0    0 -0.29102219912E+01 -0.76941925775E+02 -0.60601201179E+02  0.97984870865E+02  0.00000000000E+00 0. -1.
        -12    1    4    4    0    0 -0.44062664871E+02 -0.10989011749E+02 -0.77565732873E+02  0.89881698531E+02  0.00000000000E+00 0.  1.
</event>
<event>
12    1  0.8417180E-002  0.1877742E+03  0.7818608E-02  0.1160687E+00
         21   -1    0    0  503  502  0.00000000000E+00  0.00000000000E+00  0.10489576347E+03  0.10489576347E+03  0.00000000000E+00 0. -1.
         21   -1    0    0  501  503 -0.00000000000E+00 -0.00000000000E+00 -0.38685843299E+03  0.38685843299E+03  0.00000000000E+00 0. -1.
          6    2    1    2  501    0  0.30732394718E+02 -0.66811334339E+02 -0.23110075809E+03  0.29721350685E+03  0.17181406748E+03 0.  0.
         24    2    3    3    0    0 -0.15052743127E+01 -0.68905771227E+02 -0.24099286355E+03  0.26310195865E+03  0.79967550925E+02 0.  0.
         -6    2    1    2    0  502 -0.30732394718E+02  0.66811334339E+02 -0.50861911434E+02  0.19454068962E+03  0.17277416300E+03 0.  0.
        -24    2    5    5    0    0 -0.16939907005E+02  0.99829330118E+02 -0.76118461332E+02  0.15049067173E+03  0.81243870676E+02 0.  0.
          5    1    3    3  501    0  0.32237669031E+02  0.20944368880E+01  0.98921054667E+01  0.34111548205E+02  0.47000000000E+01 0. -1.
        -13    1    4    4    0    0 -0.38753345273E+02 -0.28562006189E+02 -0.14146501069E+03  0.14943212244E+03  0.00000000000E+00 0.  1.
         14    1    4    4    0    0  0.37248070960E+02 -0.40343765039E+02 -0.99527852865E+02  0.11366983621E+03  0.00000000000E+00 0. -1.
         -5    1    5    5    0  502 -0.13792487713E+02 -0.33017995779E+02  0.25256549898E+02  0.44050017881E+02  0.47000000000E+01 0.  1.
         13    1    6    6    0    0  0.12575633291E+02  0.85104040846E+02 -0.24880907380E+02  0.89553916011E+02  0.00000000000E+00 0. -1.
        -14    1    6    6    0    0 -0.29515540295E+02  0.14725289272E+02 -0.51237553952E+02  0.60936755723E+02  0.00000000000E+00 0.  1.
</event>
<event>
12    1  0.8417180E-002  0.2073854E+03  0.7818608E-02  0.1143827E+00
         21   -1    0    0  503  502  0.00000000000E+00  0.00000000000E+00  0.23569941411E+04  0.23569941411E+04  0.00000000000E+00 0.  1.
         21   -1    0    0  501  503 -0.00000000000E+00 -0.00000000000E+00 -0.31210959402E+02  0.31210959402E+02  0.00000000000E+00 0.  1.
          6    2    1    2  501    0 -0.10138097539E+03 -0.54149169297E+02  0.38965923613E+03  0.44100592804E+03  0.17158576153E+03 0.  0.
         24    2    3    3    0    0 -0.10368940304E+03  0.66605911816E+00  0.17600525713E+03  0.22037014027E+03  0.82663246044E+02 0.  0.
         -6    2    1    2    0  502  0.10138097539E+03  0.54149169297E+02  0.19361239456E+04  0.19471991725E+04  0.17262227529E+03 0.  0.
        -24    2    5    5    0    0  0.80897759455E+02  0.52762669230E+02  0.19078455165E+04  0.19119395061E+04  0.79434335452E+02 0.  0.
          5    1    3    3  501    0  0.23084276520E+01 -0.54815228415E+02  0.21365397900E+03  0.22063578777E+03  0.47000000000E+01 0. -1.
        -11    1    4    4    0    0 -0.46896892991E+02 -0.38348276924E+02  0.58869540467E+02  0.84472076512E+02  0.00000000000E+00 0.  1.
         12    1    4    4    0    0 -0.56792510046E+02  0.39014336043E+02  0.11713571667E+03  0.13589806376E+03  0.00000000000E+00 0. -1.
         -5    1    5    5    0  502  0.20483215930E+02  0.13865000671E+01  0.28278429096E+02  0.35259666326E+02  0.47000000000E+01 0.  1.
         11    1    6    6    0    0 -0.15005159613E+02  0.36725688051E+01  0.37152205623E+03  0.37184308632E+03  0.00000000000E+00 0. -1.
        -12    1    6    6    0    0  0.95902919068E+02  0.49090100425E+02  0.15363234602E+04  0.15400964198E+04  0.00000000000E+00 0.  1.
</event>
<event>
12    1  0.8417180E-002  0.3170246E+03  0.7818608E-02  0.1077045E+00
         21   -1    0    0  503  502  0.00000000000E+00  0.00000000000E+00  0.10960643348E+03  0.10960643348E+03  0.00000000000E+00 0. -1.
         21   -1    0    0  501  503 -0.00000000000E+00 -0.00000000000E+00 -0.11111912760E+04  0.11111912760E+04  0.00000000000E+00 0.  1.
          6    2    1    2  501    0  0.12480754476E+03 -0.23545786684E+03 -0.75618988658E+03  0.81989460456E+03  0.17142545824E+03 0.  0.
         24    2    3    3    0    0  0.15154379163E+03 -0.15259952661E+03 -0.53167041993E+03  0.57903902055E+03  0.79753467582E+02 0.  0.
         -6    2    1    2    0  502 -0.12480754476E+03  0.23545786684E+03 -0.24539495590E+03  0.40090310488E+03  0.17171862110E+03 0.  0.
        -24    2    5    5    0    0 -0.94151793728E+02  0.75358060729E+02 -0.66604458039E+02  0.15891166884E+03  0.79204590050E+02 0.  0.
          5    1    3    3  501    0 -0.26736246867E+02 -0.82858340232E+02 -0.22451946665E+03  0.24085558401E+03  0.47000000000E+01 0. -1.
        -13    1    4    4    0    0  0.11218922773E+03 -0.11043076438E+03 -0.46477128083E+03  0.49070736699E+03  0.00000000000E+00 0.  1.
         14    1    4    4    0    0  0.39354563898E+02 -0.42168762233E+02 -0.66899139103E+02  0.88331653559E+02  0.00000000000E+00 0. -1.
         -5    1    5    5    0  502 -0.30655751036E+02  0.16009980611E+03 -0.17879049786E+03  0.24199143603E+03  0.47000000000E+01 0.  1.
         13    1    6    6    0    0  0.10127896744E+02  0.12298476892E+02  0.60401257305E+01  0.17038484239E+02  0.00000000000E+00 0. -1.
        -14    1    6    6    0    0 -0.10427969047E+03  0.63059583836E+02 -0.72644583769E+02  0.14187318460E+03  0.00000000000E+00 0.  1.
</event>
<event>
12    1  0.8417180E-002  0.1803484E+03  0.7818608E-02  0.1167578E+00
         21   -1    0    0  503  502  0.00000000000E+00  0.00000000000E+00  0.21019159116E+03  0.21019159116E+03  0.00000000000E+00 0.  1.
         21   -1    0    0  501  503 -0.00000000000E+00 -0.00000000000E+00 -0.19644162168E+03  0.19644162168E+03  0.00000000000E+00 0.  1.
          6    2    1    2  501    0 -0.57272861659E+02 -0.10611974713E+02  0.10098523683E+03  0.20629469894E+03  0.17019603422E+03 0.  0.
         24    2    3    3    0    0 -0.59619628854E+00 -0.64024781046E+02  0.56399173450E+02  0.11643269737E+03  0.79222334059E+02 0.  0.
         -6    2    1    2    0  502  0.57272861659E+02  0.10611974713E+02 -0.87235267346E+02  0.20033851391E+03  0.17068313799E+03 0.  0.
        -24    2    5    5    0    0  0.87230581388E+02 -0.21288020429E+02 -0.17397209373E+02  0.11778841395E+03  0.74223267402E+02 0.  0.
          5    1    3    3  501    0 -0.56676665370E+02  0.53412806333E+02  0.44586063379E+02  0.89862001566E+02  0.47000000000E+01 0. -1.
        -13    1    4    4    0    0 -0.34759618471E+02 -0.54594859555E+02  0.46312186511E+02  0.79584221963E+02  0.00000000000E+00 0.  1.
         14    1    4    4    0    0  0.34163422182E+02 -0.94299214908E+01  0.10086986939E+02  0.36848475410E+02  0.00000000000E+00 0. -1.
         -5    1    5    5    0  502 -0.29957719729E+02  0.31899995142E+02 -0.69838057974E+02  0.82550099957E+02  0.47000000000E+01 0.  1.
         13    1    6    6    0    0 -0.70983029487E+01 -0.11754684620E+02  0.12301862339E+02  0.18436223374E+02  0.00000000000E+00 0. -1.
        -14    1    6    6    0    0  0.94328884336E+02 -0.95333358088E+01 -0.29699071712E+02  0.99352190576E+02  0.00000000000E+00 0.  1.
</event>
<event>
12    1  0.8417180E-002  0.2575482E+03  0.7818608E-02  0.1108969E+00
         21   -1    0    0  503  502  0.00000000000E+00  0.00000000000E+00  0.24935532985E+03  0.24935532985E+03  0.00000000000E+00 0. -1.
         21   -1    0    0  501  503 -0.00000000000E+00 -0.00000000000E+00 -0.26507719236E+03  0.26507719236E+03  0.00000000000E+00 0. -1.
          6    2    1    2  501    0  0.15109801250E+03 -0.11254472501E+03 -0.26402641116E+02  0.25666295752E+03  0.17228421227E+03 0.  0.
         24    2    3    3    0    0  0.17725356030E+02 -0.11688255736E+02 -0.33619195023E+02  0.89228010337E+02  0.79878557737E+02 0.  0.
         -6    2    1    2    0  502 -0.15109801250E+03  0.11254472501E+03  0.10680778607E+02  0.25776956469E+03  0.17559654023E+03 0.  0.
        -24    2    5    5    0    0 -0.94326832245E+02  0.14566000823E+03  0.55949531845E+01  0.19168216414E+03  0.81217973806E+02 0.  0.
          5    1    3    3  501    0  0.13337265647E+03 -0.10085646927E+03  0.72165539065E+01  0.16743494718E+03  0.47000000000E+01 0. -1.
        -13    1    4    4    0    0  0.69983444203E+00  0.27892993726E+02  0.83033741254E+01  0.29111078460E+02  0.00000000000E+00 0.  1.
         14    1    4    4    0    0  0.17025521588E+02 -0.39581249462E+02 -0.41922569148E+02  0.60116931877E+02  0.00000000000E+00 0. -1.
         -5    1    5    5    0  502 -0.56771180254E+02 -0.33115283226E+02  0.50858254227E+01  0.66087400545E+02  0.47000000000E+01 0.  1.
         11    1    6    6    0    0 -0.10546559730E+03  0.10692884764E+03 -0.40474563005E+01  0.15024364404E+03  0.00000000000E+00 0. -1.
        -12    1    6    6    0    0  0.11138765053E+02  0.38731160594E+02  0.96424094849E+01  0.41438520106E+02  0.00000000000E+00 0.  1.
</event>
<event>
12    1  0.8417180E-002  0.2099667E+03  0.7818608E-02  0.1142968E+00
         21   -1    0    0  503  502  0.00000000000E+00  0.00000000000E+00  0.13460853547E+03  0.13460853547E+03  0.00000000000E+00 0. -1.
         21   -1    0    0  501  503 -0.00000000000E+00 -0.00000000000E+00 -0.32003811768E+03  0.32003811768E+03  0.00000000000E+00 0.  1.
          6    2    1    2  501    0  0.10304667160E+03  0.90804609554E+01 -0.68869507856E+02  0.21449613514E+03  0.17482709051E+03 0.  0.
         24    2    3    3    0    0  0.78367920218E+01  0.19911840273E+02 -0.82457183503E+02  0.11759951560E+03  0.81071340600E+02 0.  0.
         -6    2    1    2    0  502 -0.10304667160E+03 -0.90804609554E+01 -0.11656007435E+03  0.24015051802E+03  0.18271548668E+03 0.  0.
        -24    2    5    5    0    0 -0.83098250060E+02 -0.69240267439E+02 -0.38699488922E+02  0.13964428636E+03  0.79393592139E+02 0.  0.
          5    1    3    3  501    0  0.95209879578E+02 -0.10831379318E+02  0.13587675647E+02  0.96896619532E+02  0.47000000000E+01 0. -1.
        -11    1    4    4    0    0  0.37298183743E+02 -0.11700101100E+02 -0.28015446634E+02  0.48092745049E+02  0.00000000000E+00 0.  1.
         12    1    4    4    0    0 -0.29461391721E+02  0.31611941374E+02 -0.54441736869E+02  0.69506770554E+02  0.00000000000E+00 0. -1.
         -5    1    5    5    0  502 -0.19948421541E+02  0.60159806484E+02 -0.77860585428E+02  0.10050623165E+03  0.47000000000E+01 0.  1.
         11    1    6    6    0    0 -0.83905652546E+02 -0.22072841942E+02 -0.21059438668E+02  0.89279722432E+02  0.00000000000E+00 0. -1.
        -12    1    6    6    0    0  0.80740248664E+00 -0.47167425498E+02 -0.17640050254E+02  0.50364563930E+02  0.00000000000E+00 0.  1.
</event>
<event>
12    1  0.8417180E-002  0.2021681E+03  0.7818608E-02  0.1148240E+00
         21   -1    0    0  501  502  0.00000000000E+00  0.00000000000E+00  0.43636175622E+03  0.43636175622E+03  0.00000000000E+00 0. -1.
         21   -1    0    0  502  503 -0.00000000000E+00 -0.00000000000E+00 -0.18020303457E+03  0.18020303457E+03  0.00000000000E+00 0. -1.
         -6    2    1    2    0  503 -0.64017446045E+02 -0.83660154853E+02 -0.86670062521E+02  0.21856538912E+03  0.17076848268E+03 0.  0.
        -24    2    3    3    0    0 -0.56146936803E+02 -0.11582097775E+03 -0.76493797177E+02  0.18360956241E+03  0.10627414080E+03 0.  0.
          6    2    1    2  501    0  0.64017446045E+02  0.83660154853E+02  0.34282878417E+03  0.39799940166E+03  0.17255345130E+03 0.  0.
         24    2    5    5    0    0  0.69337710079E+02 -0.10956556546E+02  0.17042077204E+03  0.20120702393E+03  0.80704787746E+02 0.  0.
          5    1    5    5  501    0 -0.53202640331E+01  0.94616711400E+02  0.17240801213E+03  0.19679237773E+03  0.47000000000E+01 0. -1.
        -13    1    6    6    0    0  0.38001793791E+02 -0.88848653522E+01  0.13685623442E+02  0.41356661527E+02  0.00000000000E+00 0.  1.
         14    1    6    6    0    0  0.31335916288E+02 -0.20716911941E+01  0.15673514859E+03  0.15985036240E+03  0.00000000000E+00 0. -1.
         -5    1    3    3    0  503 -0.78705092423E+01  0.32160822896E+02 -0.10176265344E+02  0.34955826716E+02  0.47000000000E+01 0.  1.
         11    1    4    4    0    0  0.25653929997E+02 -0.43412511312E+02 -0.50394188858E+02  0.71290564125E+02  0.00000000000E+00 0. -1.
        -12    1    4    4    0    0 -0.81800866800E+02 -0.72408466437E+02 -0.26099608319E+02  0.11231899828E+03  0.00000000000E+00 0.  1.
</event>
<event>
12    1  0.8417180E-002  0.2025305E+03  0.7818608E-02  0.1148153E+00
         21   -1    0    0  503  502  0.00000000000E+00  0.00000000000E+00  0.19887694405E+02  0.19887694405E+02  0.00000000000E+00 0.  1.
         21   -1    0    0  501  503 -0.00000000000E+00 -0.00000000000E+00 -0.20496590967E+04  0.20496590967E+04  0.00000000000E+00 0.  1.
          6    2    1    2  501    0 -0.32670023351E+01  0.10433041925E+03 -0.10908609390E+04  0.11090409635E+04  0.17058358911E+03 0.  0.
         24    2    3    3    0    0  0.17715889672E+02 -0.96721423992E+01 -0.46748705237E+03  0.47496371402E+03  0.81479951002E+02 0.  0.
         -6    2    1    2    0  502  0.32670023351E+01 -0.10433041925E+03 -0.93891046334E+03  0.96050582762E+03  0.17356000988E+03 0.  0.
        -24    2    5    5    0    0 -0.24215556805E+02 -0.38797808994E+02 -0.22324387289E+03  0.24130448394E+03  0.79362232898E+02 0.  0.
          5    1    3    3  501    0 -0.20982892007E+02  0.11400256165E+03 -0.62337388659E+03  0.63407724947E+03  0.47000000000E+01 0. -1.
        -13    1    4    4    0    0 -0.25071058944E+02  0.18537815075E+02 -0.13528443337E+03  0.13883114383E+03  0.00000000000E+00 0.  1.
         14    1    4    4    0    0  0.42786948616E+02 -0.28209957474E+02 -0.33220261900E+03  0.33613257019E+03  0.00000000000E+00 0. -1.
         -5    1    5    5    0  502  0.27482559140E+02 -0.65532610258E+02 -0.71566659045E+03  0.71920134368E+03  0.47000000000E+01 0.  1.
         11    1    6    6    0    0 -0.52594143954E+02 -0.15494845348E+02 -0.13749735387E+03  0.14802620218E+03  0.00000000000E+00 0. -1.
        -12    1    6    6    0    0  0.28378587149E+02 -0.23302963646E+02 -0.85746519026E+02  0.93278281761E+02  0.00000000000E+00 0.  1.
</event>
<event>
12    1  0.8417180E-002  0.2358483E+03  0.7818608E-02  0.1123480E+00
         21   -1    0    0  503  502  0.00000000000E+00  0.00000000000E+00  0.66885154017E+02  0.66885154017E+02  0.00000000000E+00 0. -1.
         21   -1    0    0  501  503 -0.00000000000E+00 -0.00000000000E+00 -0.86104485769E+03  0.86104485769E+03  0.00000000000E+00 0.  1.
          6    2    1    2  501    0 -0.75286004948E+02 -0.13932211141E+03 -0.50191661047E+03  0.55238979074E+03  0.16773659047E+03 0.  0.
         24    2    3    3    0    0 -0.10346260940E+02 -0.12652701466E+03 -0.42550227282E+03  0.45118640221E+03  0.80005342361E+02 0.  0.
         -6    2    1    2    0  502  0.75286004948E+02  0.13932211141E+03 -0.29224309320E+03  0.37554022096E+03  0.17477356427E+03 0.  0.
        -24    2    5    5    0    0  0.11347278851E+03  0.12764380813E+03 -0.19611433339E+03  0.27134117265E+03  0.77435035521E+02 0.  0.
          5    1    3    3  501    0 -0.64939744008E+02 -0.12795096746E+02 -0.76414337645E+02  0.10120338853E+03  0.47000000000E+01 0. -1.
        -11    1    4    4    0    0  0.28814533164E+02 -0.89085427511E+02 -0.23031677369E+03  0.24862080959E+03  0.00000000000E+00 0.  1.
         12    1    4    4    0    0 -0.39160794103E+02 -0.37441587154E+02 -0.19518549913E+03  0.20256559262E+03  0.00000000000E+00 0. -1.
         -5    1    5    5    0  502 -0.38186783566E+02  0.11678303281E+02 -0.96128759815E+02  0.10419904832E+03  0.47000000000E+01 0.  1.
         11    1    6    6    0    0  0.26754690135E+02  0.22401345945E-01 -0.77609605871E+01  0.27857610365E+02  0.00000000000E+00 0. -1.
        -12    1    6    6    0    0  0.86718098379E+02  0.12762140678E+03 -0.18835337280E+03  0.24348356228E+03  0.00000000000E+00 0.  1.
</event>
<event>
12    1  0.8417180E-002  0.1933152E+03  0.7818608E-02  0.1155673E+00
         21   -1    0    0  501  502  0.00000000000E+00  0.00000000000E+00  0.50665723113E+03  0.50665723113E+03  0.00000000000E+00 0. -1.
         21   -1    0    0  502  503 -0.00000000000E+00 -0.00000000000E+00 -0.10395385258E+03  0.10395385258E+03  0.00000000000E+00 0. -1.
         -6    2    1    2    0  503  0.41924876250E+01  0.86098154378E+02  0.36301219912E+02  0.19669402705E+03  0.17303263441E+03 0.  0.
        -24    2    3    3    0    0  0.17924775040E+01  0.12120560077E+03  0.57071275281E+02  0.15556279754E+03  0.79048357867E+02 0.  0.
          6    2    1    2  501    0 -0.41924876250E+01 -0.86098154378E+02  0.36640215864E+03  0.41391705666E+03  0.17218106400E+03 0.  0.
         24    2    5    5    0    0 -0.26661939550E+02 -0.66296887991E+02  0.36986208199E+03  0.38340431358E+03  0.71377668802E+02 0.  0.
          5    1    5    5  501    0  0.22469451925E+02 -0.19801266387E+02 -0.34599233514E+01  0.30512743075E+02  0.47000000000E+01 0. -1.
        -13    1    6    6    0    0  0.16127827020E+02  0.52438268884E+01  0.47436278736E+02  0.50376632134E+02  0.00000000000E+00 0.  1.
         14    1    6    6    0    0 -0.42789766570E+02 -0.71540714879E+02  0.32242580325E+03  0.33302768145E+03  0.00000000000E+00 0. -1.
         -5    1    3    3    0  503  0.24000101210E+01 -0.35107446395E+02 -0.20770055369E+02  0.41131229510E+02  0.47000000000E+01 0.  1.
         13    1    4    4    0    0 -0.26551041811E+02  0.66126591241E+02  0.60566997513E+02  0.93520292333E+02  0.00000000000E+00 0. -1.
        -14    1    4    4    0    0  0.28343519315E+02  0.55079009532E+02 -0.34957222326E+01  0.62042505205E+02  0.00000000000E+00 0.  1.
</event>
<event>
12    1  0.8417180E-002  0.1865969E+03  0.7818608E-02  0.1161986E+00
         21   -1    0    0  501  502  0.00000000000E+00  0.00000000000E+00  0.35152008301E+03  0.35152008301E+03  0.00000000000E+00 0.  1.
         21   -1    0    0  502  503 -0.00000000000E+00 -0.00000000000E+00 -0.14967409241E+03  0.14967409241E+03  0.00000000000E+00 0.  1.
         -6    2    1    2    0  503  0.53468522369E+02  0.41921402812E+02 -0.46506260224E+02  0.19055413936E+03  0.17184807502E+03 0.  0.
        -24    2    3    3    0    0 -0.32358982966E+01  0.80743392535E+02 -0.11212841555E+02  0.11315741068E+03  0.78414955841E+02 0.  0.
          6    2    1    2  501    0 -0.53468522369E+02 -0.41921402812E+02  0.24835225082E+03  0.31064003606E+03  0.17378752722E+03 0.  0.
         24    2    5    5    0    0 -0.95181212452E+02 -0.51911093244E+02  0.13856841104E+03  0.19268104359E+03  0.78552881634E+02 0.  0.
          5    1    5    5  501    0  0.41712690084E+02  0.99896904325E+01  0.10978383978E+03  0.11795899247E+03  0.47000000000E+01 0. -1.
        -13    1    6    6    0    0 -0.44341283969E+02 -0.52734225254E+02  0.12033612084E+03  0.13866445094E+03  0.00000000000E+00 0.  1.
         14    1    6    6    0    0 -0.50839928483E+02  0.82313201017E+00  0.18232290202E+02  0.54016592640E+02  0.00000000000E+00 0. -1.
         -5    1    3    3    0  503  0.56704420665E+02 -0.38821989723E+02 -0.35293418669E+02  0.77396728680E+02  0.47000000000E+01 0.  1.
         11    1    4    4    0    0 -0.14386467269E+02  0.67791374199E+02 -0.39751551977E+02  0.79892595032E+02  0.00000000000E+00 0. -1.
        -12    1    4    4    0    0  0.11150568973E+02  0.12952018335E+02  0.28538710422E+02  0.33264815645E+02  0.00000000000E+00 0.  1.
</event>
<event>
12    1  0.8417180E-002  0.2260544E+03  0.7818608E-02  0.1129460E+00
         21   -1    0    0  501  502  0.00000000000E+00  0.00000000000E+00  0.54554176326E+03  0.54554176326E+03  0.00000000000E+00 0.  1.
         21   -1    0    0  502  503 -0.00000000000E+00 -0.00000000000E+00 -0.12515182740E+03  0.12515182740E+03  0.00000000000E+00 0.  1.
         -6    2    1    2    0  503  0.12060270106E+03 -0.82522563875E+02  0.41904370491E+02  0.22983997498E+03  0.17238170663E+03 0.  0.
        -24    2    3    3    0    0  0.69345750814E+02 -0.91047123809E+02  0.84452135939E+02  0.16251727885E+03  0.78621185114E+02 0.  0.
          6    2    1    2  501    0 -0.12060270106E+03  0.82522563875E+02  0.37848556537E+03  0.44085361568E+03  0.17246913409E+03 0.  0.
         24    2    5    5    0    0 -0.99620039223E+02  0.44289380921E+02  0.37377887383E+03  0.39673682385E+03  0.76182408740E+02 0.  0.
          5    1    5    5  501    0 -0.20982661833E+02  0.38233182954E+02  0.47066915447E+01  0.44116791834E+02  0.47000000000E+01 0. -1.
        -11    1    6    6    0    0 -0.60418831426E+02 -0.14664510539E+02  0.17905751653E+03  0.18954439397E+03  0.00000000000E+00 0.  1.
         12    1    6    6    0    0 -0.39201207797E+02  0.58953891459E+02  0.19472135729E+03  0.20719242987E+03  0.00000000000E+00 0. -1.
         -5    1    3    3    0  503  0.51256950242E+02  0.85245599347E+01 -0.42547765448E+02  0.67322696134E+02  0.47000000000E+01 0.  1.
         11    1    4    4    0    0  0.47499183406E+01  0.96851275521E+01  0.28391861332E+02  0.30372046520E+02  0.00000000000E+00 0. -1.
        -12    1    4    4    0    0  0.64595832473E+02 -0.10073225136E+03  0.56060274607E+02  0.13214523233E+03  0.00000000000E+00 0.  1.
</event>
<event>
12    1  0.8417180E-002  0.2081224E+03  0.7818608E-02  0.1143090E+00
         21   -1    0    0  503  502  0.00000000000E+00  0.00000000000E+00  0.25053010748E+02  0.25053010748E+02  0.00000000000E+00 0.  1.
         21   -1    0    0  501  503 -0.00000000000E+00 -0.00000000000E+00 -0.17813704374E+04  0.17813704374E+04  0.00000000000E+00 0.  1.
          6    2    1    2  501    0 -0.10622018822E+03 -0.48006244703E+02 -0.72113549100E+03  0.75052734879E+03  0.17224278502E+03 0.  0.
         24    2    3    3    0    0 -0.25137281201E+02 -0.75998935689E+02 -0.51530797822E+03  0.52749128987E+03  0.79353811185E+02 0.  0.
         -6    2    1    2    0  502  0.10622018822E+03  0.48006244703E+02 -0.10351819356E+04  0.10558960993E+04  0.17241695049E+03 0.  0.
        -24    2    5    5    0    0  0.11368265020E+03  0.46294240007E+02 -0.10365173912E+04  0.10468135479E+04  0.79896183549E+02 0.  0.
          5    1    3    3  501    0 -0.81082907015E+02  0.27992690986E+02 -0.20582751278E+03  0.22303605892E+03  0.47000000000E+01 0. -1.
        -13    1    4    4    0    0 -0.42855695686E+02 -0.80526554219E+02 -0.37199539544E+03  0.38301659340E+03  0.00000000000E+00 0.  1.
         14    1    4    4    0    0  0.17718414485E+02  0.45276185296E+01 -0.14331258277E+03  0.14447469648E+03  0.00000000000E+00 0. -1.
         -5    1    5    5    0  502 -0.74624619847E+01  0.17120046954E+01  0.13354555891E+01  0.90825514356E+01  0.47000000000E+01 0.  1.
         11    1    6    6    0    0  0.50757853205E+02  0.70570625285E+01 -0.71591200061E+03  0.71774379441E+03  0.00000000000E+00 0. -1.
        -12    1    6    6    0    0  0.62924796997E+02  0.39237177479E+02 -0.32060539061E+03  0.32906975349E+03  0.00000000000E+00 0.  1.
</event>
<event>
12    1  0.8417180E-002  0.2098666E+03  0.7818608E-02  0.1142140E+00
         21   -1    0    0  501  502  0.00000000000E+00  0.00000000000E+00  0.29890258457E+03  0.29890258457E+03  0.00000000000E+00 0.  1.
         21   -1    0    0  502  503 -0.00000000000E+00 -0.00000000000E+00 -0.18902931705E+03  0.18902931705E+03  0.00000000000E+00 0.  1.
         -6    2    1    2    0  503  0.11159423092E+03  0.35704641269E+02 -0.62092118176E+02  0.21660904227E+03  0.17127741319E+03 0.  0.
        -24    2    3    3    0    0  0.12092374208E+03  0.10335658942E+02  0.39128384111E+01  0.14512918961E+03  0.79484552757E+02 0.  0.
          6    2    1    2  501    0 -0.11159423092E+03 -0.35704641269E+02  0.17196538569E+03  0.27132285935E+03  0.17411463565E+03 0.  0.
         24    2    5    5    0    0  0.96321786538E+01 -0.25973673798E+02  0.46183718626E+02  0.96298141451E+02  0.79830981358E+02 0.  0.
          5    1    5    5  501    0 -0.12122640958E+03 -0.97309674717E+01  0.12578166707E+03  0.17502471790E+03  0.47000000000E+01 0. -1.
        -11    1    6    6    0    0 -0.84213504756E+01 -0.10323757157E+02  0.64708266594E+02  0.66065564943E+02  0.00000000000E+00 0.  1.
         12    1    6    6    0    0  0.18053529129E+02 -0.15649916641E+02 -0.18524547968E+02  0.30232576508E+02  0.00000000000E+00 0. -1.
         -5    1    3    3    0  503 -0.93295111578E+01  0.25368982327E+02 -0.66004956587E+02  0.71479852664E+02  0.47000000000E+01 0.  1.
         13    1    4    4    0    0  0.26941073440E+02 -0.30487076134E+02  0.11795734392E+02  0.42360625576E+02  0.00000000000E+00 0. -1.
        -14    1    4    4    0    0  0.93982668641E+02  0.40822735077E+02 -0.78828959811E+01  0.10276856403E+03  0.00000000000E+00 0.  1.
</event>
<event>
12    1  0.8417180E-002  0.2099971E+03  0.7818608E-02  0.1141763E+00
         21   -1    0    0  501  502  0.00000000000E+00  0.00000000000E+00  0.62274148062E+03  0.62274148062E+03  0.00000000000E+00 0.  1.
         21   -1    0    0  502  503 -0.00000000000E+00 -0.00000000000E+00 -0.71956647540E+02  0.71956647540E+02  0.00000000000E+00 0.  1.
         -6    2    1    2    0  503 -0.57373711354E+02  0.10464556892E+03  0.22632353261E+03  0.30874122557E+03  0.17278994503E+03 0.  0.
        -24    2    3    3    0    0 -0.71509970118E+02  0.95287184681E+02  0.24436280758E+03  0.28354363423E+03  0.80563561209E+02 0.  0.
          6    2    1    2  501    0  0.57373711354E+02 -0.10464556892E+03  0.32446130048E+03  0.38595690260E+03  0.17159591284E+03 0.  0.
         24    2    5    5    0    0  0.10542923177E+03 -0.73699241695E+02  0.22935981592E+03  0.27490110322E+03  0.80111111924E+02 0.  0.
          5    1    5    5  501    0 -0.48055520411E+02 -0.30946327229E+02  0.95101484558E+02  0.11105579938E+03  0.47000000000E+01 0. -1.
        -11    1    6    6    0    0  0.41955348933E+02 -0.32195943313E+02  0.17162135554E+03  0.17958485389E+03  0.00000000000E+00 0.  1.
         12    1    6    6    0    0  0.63473882832E+02 -0.41503298382E+02  0.57738460381E+02  0.95316249326E+02  0.00000000000E+00 0. -1.
         -5    1    3    3    0  503  0.14136258764E+02  0.93583842428E+01 -0.18039274973E+02  0.25197591334E+02  0.47000000000E+01 0.  1.
         11    1    4    4    0    0  0.18074499573E+02  0.17824036133E+02  0.43821198911E+02  0.50642682323E+02  0.00000000000E+00 0. -1.
        -12    1    4    4    0    0 -0.89584469691E+02  0.77463148549E+02  0.20054160867E+03  0.23290095191E+03  0.00000000000E+00 0.  1.
</event>
<event>
12    1  0.8417180E-002  0.1876655E+03  0.7818608E-02  0.1162700E+00
         21   -1    0    0  501  502  0.00000000000E+00  0.00000000000E+00  0.58464474457E+02  0.58464474457E+02  0.00000000000E+00 0.  1.
         21   -1    0    0  502  503 -0.00000000000E+00 -0.00000000000E+00 -0.76847661767E+03  0.76847661767E+03  0.00000000000E+00 0.  1.
         -6    2    1    2    0  503 -0.51978373757E+02 -0.21361015601E+01 -0.56954049085E+03  0.59966217470E+03  0.18031095023E+03 0.  0.
        -24    2    3    3    0    0 -0.98929186569E+02  0.30646993921E+02 -0.39153651918E+03  0.41261508409E+03  0.78893216288E+02 0.  0.
          6    2    1    2  501    0  0.51978373757E+02  0.21361015601E+01 -0.14047165237E+03  0.22727891744E+03  0.17093012293E+03 0.  0.
         24    2    5    5    0    0  0.17700919025E+02  0.23984805120E+01  0.14189009784E+01  0.81230870979E+02  0.79229829464E+02 0.  0.
          5    1    5    5  501    0  0.34277454732E+02 -0.26237895193E+00 -0.14189055334E+03  0.14604804646E+03  0.47000000000E+01 0. -1.
        -11    1    6    6    0    0 -0.76354158469E+01  0.27470017887E+02  0.25470067090E+02  0.38231214673E+02  0.00000000000E+00 0.  1.
         12    1    6    6    0    0  0.25336334872E+02 -0.25071537375E+02 -0.24051166111E+02  0.42999656305E+02  0.00000000000E+00 0. -1.
         -5    1    3    3    0  503  0.46950812812E+02 -0.32783095481E+02 -0.17800397167E+03  0.18704709060E+03  0.47000000000E+01 0.  1.
         11    1    4    4    0    0 -0.31944932698E+02 -0.22266523812E+02 -0.71795050866E+02  0.81675003132E+02  0.00000000000E+00 0. -1.
        -12    1    4    4    0    0 -0.66984253871E+02  0.52913517733E+02 -0.31974146832E+03  0.33094008096E+03  0.00000000000E+00 0.  1.
</event>
<event>
12    1  0.8417180E-002  0.2111808E+03  0.7818608E-02  0.1140718E+00
         21   -1    0    0  501  502  0.00000000000E+00  0.00000000000E+00  0.27527319377E+03  0.27527319377E+03  0.00000000000E+00 0. -1.
         21   -1    0    0  502  503 -0.00000000000E+00 -0.00000000000E+00 -0.24541512142E+03  0.24541512142E+03  0.00000000000E+00 0. -1.
         -6    2    1    2    0  503  0.88152539310E+02  0.84539737808E+02  0.16698762243E+03  0.26889104715E+03  0.17175474298E+03 0.  0.
        -24    2    3    3    0    0  0.71076645914E+02  0.11963496543E+03  0.94817985748E+02  0.18670949450E+03  0.80657116032E+02 0.  0.
          6    2    1    2  501    0 -0.88152539310E+02 -0.84539737808E+02 -0.13712955008E+03  0.25179726804E+03  0.17227743100E+03 0.  0.
         24    2    5    5    0    0 -0.10931100872E+03 -0.17799852814E+02 -0.66952217432E+02  0.15255594049E+03  0.80777374128E+02 0.  0.
          5    1    5    5  501    0  0.21158469410E+02 -0.66739884994E+02 -0.70177332647E+02  0.99241327552E+02  0.47000000000E+01 0. -1.
        -11    1    6    6    0    0 -0.83003483775E+01  0.14832368649E+02 -0.39366668156E+02  0.42879243284E+02  0.00000000000E+00 0.  1.
         12    1    6    6    0    0 -0.10101066034E+03 -0.32632221462E+02 -0.27585549276E+02  0.10967669720E+03  0.00000000000E+00 0. -1.
         -5    1    3    3    0  503  0.17075893396E+02 -0.35095227625E+02  0.72169636683E+02  0.82181552651E+02  0.47000000000E+01 0.  1.
         13    1    4    4    0    0  0.34832679908E+02  0.37239548423E+01  0.40847675989E+02  0.53811858015E+02  0.00000000000E+00 0. -1.
        -14    1    4    4    0    0  0.36243966005E+02  0.11591101059E+03  0.53970309759E+02  0.13289763649E+03  0.00000000000E+00 0.  1.
</event>
<event>
12    1  0.8417180E-002  0.2112628E+03  0.7818608E-02  0.1141896E+00
         21   -1    0    0  501  502  0.00000000000E+00  0.00000000000E+00  0.10014588586E+03  0.10014588586E+03  0.00000000000E+00 0.  1.
         21   -1    0    0  502  503 -0.00000000000E+00 -0.00000000000E+00 -0.17462589875E+04  0.17462589875E+04  0.00000000000E+00 0.  1.
         -6    2    1    2    0  503  0.11121338253E+03 -0.37086951962E+02 -0.16207596775E+04  0.16336261991E+04  0.16771633021E+03 0.  0.
        -24    2    3    3    0    0  0.39433689550E+02  0.36094208957E+02 -0.59285665327E+03  0.60061384485E+03  0.80001071863E+02 0.  0.
          6    2    1    2  501    0 -0.11121338253E+03  0.37086951962E+02 -0.25353424066E+02  0.21277867427E+03  0.17575013415E+03 0.  0.
         24    2    5    5    0    0 -0.11292638390E+03  0.26073913831E+02  0.38915467851E+02  0.14738141247E+03  0.82308261673E+02 0.  0.
          5    1    5    5  501    0  0.17130013761E+01  0.11013038131E+02 -0.64268891917E+02  0.65397261799E+02  0.47000000000E+01 0. -1.
        -11    1    6    6    0    0 -0.10078940831E+03  0.47245813874E+02  0.48160115316E+02  0.12128507106E+03  0.00000000000E+00 0.  1.
         12    1    6    6    0    0 -0.12136975594E+02 -0.21171900043E+02 -0.92446474647E+01  0.26096341405E+02  0.00000000000E+00 0. -1.
         -5    1    3    3    0  503  0.71779692977E+02 -0.73181160919E+02 -0.10279030243E+04  0.10330123542E+04  0.47000000000E+01 0.  1.
         13    1    4    4    0    0  0.37758916419E+02  0.29150709495E+02 -0.14390228330E+03  0.15160266083E+03  0.00000000000E+00 0. -1.
        -14    1    4    4    0    0  0.16747731312E+01  0.69434994623E+01 -0.44895436997E+03  0.44901118401E+03  0.00000000000E+00 0.  1.
</event>
<event>
12    1  0.8417180E-002  0.1947060E+03  0.7818608E-02  0.1154329E+00
         21   -1    0    0  501  502  0.00000000000E+00  0.00000000000E+00  0.11301824569E+03  0.11301824569E+03  0.00000000000E+00 0.  1.
         21   -1    0    0  502  503 -0.00000000000E+00 -0.00000000000E+00 -0.34395570668E+03  0.34395570668E+03  0.00000000000E+00 0.  1.
         -6    2    1    2    0  503  0.35574786128E+02 -0.83366495309E+02 -0.78828971480E+02  0.21005817603E+03  0.17232206076E+03 0.  0.
        -24    2    3    3    0    0 -0.50671545513E+01 -0.66604851697E+02  0.15672599115E+02  0.10572526232E+03  0.80438289420E+02 0.  0.
          6    2    1    2  501    0 -0.35574786128E+02  0.83366495309E+02 -0.15210848950E+03  0.24691577634E+03  0.17208971520E+03 0.  0.
         24    2    5    5    0    0 -0.83475948608E+02  0.48276833581E+02 -0.13561763647E+03  0.18511089011E+03  0.81086445596E+02 0.  0.
          5    1    5    5  501    0  0.47901162481E+02  0.35089661728E+02 -0.16490853028E+02  0.61804886221E+02  0.47000000000E+01 0. -1.
        -11    1    6    6    0    0 -0.70775814227E+02  0.49174075950E+02 -0.52265110529E+02  0.10079160384E+03  0.00000000000E+00 0.  1.
         12    1    6    6    0    0 -0.12700134381E+02 -0.89724236958E+00 -0.83352525945E+02  0.84319286279E+02  0.00000000000E+00 0. -1.
         -5    1    3    3    0  503  0.40641940679E+02 -0.16761643612E+02 -0.94501570595E+02  0.10433291371E+03  0.47000000000E+01 0.  1.
         13    1    4    4    0    0 -0.69048263456E+00 -0.61964080305E+02  0.44442149205E+02  0.76256990763E+02  0.00000000000E+00 0. -1.
        -14    1    4    4    0    0 -0.43766719167E+01 -0.46407713923E+01 -0.28769550090E+02  0.29468271557E+02  0.00000000000E+00 0.  1.
</event>
<event>
12    1  0.8417180E-002  0.2081091E+03  0.7818608E-02  0.1143232E+00
         21   -1    0    0  503  502  0.00000000000E+00  0.00000000000E+00  0.22016097001E+03  0.22016097001E+03  0.00000000000E+00 0. -1.
         21   -1    0    0  501  503 -0.00000000000E+00 -0.00000000000E+00 -0.57636830048E+03  0.57636830048E+03  0.00000000000E+00 0. -1.
          6    2    1    2  501    0 -0.58154872020E+02  0.10056496016E+03 -0.50177176874E+03  0.54321664614E+03  0.17266764717E+03 0.  0.
         24    2    3    3    0    0 -0.65839259252E+02  0.74473292393E+02 -0.18264502966E+03  0.22289838170E+03  0.80270806440E+02 0.  0.
         -6    2    1    2    0  502  0.58154872020E+02 -0.10056496016E+03  0.14556443826E+03  0.25331262435E+03  0.17170608498E+03 0.  0.
        -24    2    5    5    0    0 -0.31984561474E+02 -0.54408764648E+02  0.99402377271E+02  0.14191900815E+03  0.79226551264E+02 0.  0.
          5    1    3    3  501    0  0.76843872324E+01  0.26091667767E+02 -0.31912673908E+03  0.32031826443E+03  0.47000000000E+01 0. -1.
        -13    1    4    4    0    0 -0.11745079754E+01  0.35024325360E+02 -0.13477577337E+02  0.37546343721E+02  0.00000000000E+00 0.  1.
         14    1    4    4    0    0 -0.64664751277E+02  0.39448967033E+02 -0.16916745233E+03  0.18535203798E+03  0.00000000000E+00 0. -1.
         -5    1    5    5    0  502  0.90139433494E+02 -0.46156195512E+02  0.46162060993E+02  0.11139361620E+03  0.47000000000E+01 0.  1.
         11    1    6    6    0    0 -0.47527768470E+02 -0.58307213819E+02  0.50870138697E+02  0.90809641394E+02  0.00000000000E+00 0. -1.
        -12    1    6    6    0    0  0.15543206996E+02  0.38984491710E+01  0.48532238574E+02  0.51109366761E+02  0.00000000000E+00 0.  1.
</event>
<event>
12    1  0.8417180E-002  0.2145501E+03  0.7818608E-02  0.1138035E+00
         21   -1    0    0  501  502  0.00000000000E+00  0.00000000000E+00  0.11624811447E+03  0.11624811447E+03  0.00000000000E+00 0.  1.
         21   -1    0    0  502  503 -0.00000000000E+00 -0.00000000000E+00 -0.49510149546E+03  0.49510149546E+03  0.00000000000E+00 0.  1.
         -6    2    1    2    0  503 -0.88407806037E+02  0.93063499297E+02 -0.32630638406E+03  0.39045843400E+03  0.17177071151E+03 0.  0.
        -24    2    3    3    0    0 -0.95825845932E+01 -0.24959610245E+01 -0.69090058734E+02  0.10492848109E+03  0.78348542931E+02 0.  0.
          6    2    1    2  501    0  0.88407806037E+02 -0.93063499297E+02 -0.52546996936E+02  0.22089117594E+03  0.17191558874E+03 0.  0.
         24    2    5    5    0    0  0.28384363099E+02 -0.11957887382E+03 -0.20414790312E+02  0.14767609900E+03  0.79288633610E+02 0.  0.
          5    1    5    5  501    0  0.60023442939E+02  0.26515374524E+02 -0.32132206624E+02  0.73215076937E+02  0.47000000000E+01 0. -1.
        -13    1    6    6    0    0  0.25517298234E+02 -0.23161178896E+02 -0.36146472239E+02  0.49941367345E+02  0.00000000000E+00 0.  1.
         14    1    6    6    0    0  0.28670648647E+01 -0.96417694925E+02  0.15731681927E+02  0.97734731655E+02  0.00000000000E+00 0. -1.
         -5    1    3    3    0  503 -0.78825221444E+02  0.95559460322E+02 -0.25721632532E+03  0.28552995290E+03  0.47000000000E+01 0.  1.
         11    1    4    4    0    0 -0.40973417795E+02 -0.11501338578E+02 -0.54534522329E+02  0.69174532022E+02  0.00000000000E+00 0. -1.
        -12    1    4    4    0    0  0.31390833202E+02  0.90053775533E+01 -0.14555536406E+02  0.35753949069E+02  0.00000000000E+00 0.  1.
</event>
<event>
12    1  0.8417180E-002  0.1726942E+03  0.7818608E-02  0.1175282E+00
         21   -1    0    0  503  502  0.00000000000E+00  0.00000000000E+00  0.36762007057E+03  0.36762007057E+03  0.00000000000E+00 0.  1.
         21   -1    0    0  501  503 -0.00000000000E+00 -0.00000000000E+00 -0.81017377764E+02  0.81017377764E+02  0.00000000000E+00 0.  1.
          6    2    1    2  501    0 -0.85377329113E+01 -0.11483932668E+01  0.12961440174E+03  0.21525234888E+03  0.17163760914E+03 0.  0.
         24    2    3    3    0    0 -0.53231609841E+02  0.20179830412E+02  0.29406585368E+02  0.10337682778E+03  0.81124542629E+02 0.  0.
         -6    2    1    2    0  502  0.85377329113E+01  0.11483932668E+01  0.15698829107E+03  0.23338509945E+03  0.17247918548E+03 0.  0.
        -24    2    5    5    0    0 -0.25634024799E+01  0.35926583424E+02  0.18002824159E+02  0.89608162049E+02  0.80051424718E+02 0.  0.
          5    1    3    3  501    0  0.44693876930E+02 -0.21328223679E+02  0.10020781637E+03  0.11187552110E+03  0.47000000000E+01 0. -1.
        -13    1    4    4    0    0 -0.46980640493E+02 -0.40914736155E+01  0.51597378511E+02  0.69901432079E+02  0.00000000000E+00 0.  1.
         14    1    4    4    0    0 -0.62509693482E+01  0.24271304027E+02 -0.22190793142E+02  0.33475395700E+02  0.00000000000E+00 0. -1.
         -5    1    5    5    0  502  0.11101135391E+02 -0.34778190157E+02  0.13898546691E+03  0.14377693740E+03  0.47000000000E+01 0.  1.
         11    1    6    6    0    0  0.17344040583E+01  0.47810150897E+02  0.41236215082E+02  0.63160463270E+02  0.00000000000E+00 0. -1.
        -12    1    6    6    0    0 -0.42978065381E+01 -0.11883567472E+02 -0.23233390923E+02  0.26447698779E+02  0.00000000000E+00 0.  1.
</event>
<event>
12    1  0.8417180E-002  0.1754674E+03  0.7818608E-02  0.1172710E+00
         21   -1    0    0  501  502  0.00000000000E+00  0.00000000000E+00  0.17770348039E+03  0.17770348039E+03  0.00000000000E+00 0.  1.
         21   -1    0    0  502  503 -0.00000000000E+00 -0.00000000000E+00 -0.32074050565E+03  0.32074050565E+03  0.00000000000E+00 0.  1.
         -6    2    1    2    0  503  0.40099057657E+02 -0.45567624445E+01 -0.24131797933E+03  0.29732723455E+03  0.16893909775E+03 0.  0.
        -24    2    3    3    0    0  0.59138567243E+02 -0.53465558625E+02 -0.20386563925E+03  0.23267941133E+03  0.78883290346E+02 0.  0.
          6    2    1    2  501    0 -0.40099057657E+02  0.45567624445E+01  0.98280954062E+02  0.20111675149E+03  0.17076329609E+03 0.  0.
         24    2    5    5    0    0 -0.91708300272E+02  0.10877057868E+02  0.58611133636E+02  0.13554812553E+03  0.80058145263E+02 0.  0.
          5    1    5    5  501    0  0.51609242615E+02 -0.63202954237E+01  0.39669820426E+02  0.65568625959E+02  0.47000000000E+01 0. -1.
        -13    1    6    6    0    0 -0.17485221857E+02  0.18369339232E+02  0.55342161022E+02  0.60876271189E+02  0.00000000000E+00 0.  1.
         14    1    6    6    0    0 -0.74223078415E+02 -0.74922813640E+01  0.32689726141E+01  0.74671854345E+02  0.00000000000E+00 0. -1.
         -5    1    3    3    0  503 -0.19039509587E+02  0.48908796181E+02 -0.37452340077E+02  0.64647823214E+02  0.47000000000E+01 0.  1.
         11    1    4    4    0    0  0.31138965906E+02 -0.21270225795E+02 -0.17646698905E+02  0.41634885436E+02  0.00000000000E+00 0. -1.
        -12    1    4    4    0    0  0.27999601337E+02 -0.32195332830E+02 -0.18621894035E+03  0.19104452590E+03  0.00000000000E+00 0.  1.
</event>
<event>
12    1  0.8417180E-002  0.2048230E+03  0.7818608E-02  0.1147214E+00
         21   -1    0    0  501  502  0.00000000000E+00  0.00000000000E+00  0.12583383263E+03  0.12583383263E+03  0.00000000000E+00 0.  1.
         21   -1    0    0  502  503 -0.00000000000E+00 -0.00000000000E+00 -0.32735715259E+03  0.32735715259E+03  0.00000000000E+00 0.  1.
         -6    2    1    2    0  503 -0.72917210873E+02 -0.64954857849E+02 -0.12819497183E+03  0.23563753178E+03  0.17191580027E+03 0.  0.
        -24    2    3    3    0    0  0.25035101461E+02 -0.31754942016E+02 -0.37552325013E+02  0.98032774143E+02  0.81025397529E+02 0.  0.
          6    2    1    2  501    0  0.72917210873E+02  0.64954857849E+02 -0.73328348137E+02  0.21755345345E+03  0.18004556442E+03 0.  0.
         24    2    5    5    0    0  0.11880510848E+03  0.61007408504E+02 -0.70930218967E+02  0.17119482397E+03  0.80249698426E+02 0.  0.
          5    1    5    5  501    0 -0.45887897609E+02  0.39474493450E+01 -0.23981291703E+01  0.46358629476E+02  0.47000000000E+01 0. -1.
        -13    1    6    6    0    0  0.29612978232E+02  0.40010548966E+02  0.78028101094E+01  0.50385080669E+02  0.00000000000E+00 0.  1.
         14    1    6    6    0    0  0.89192130250E+02  0.20996859537E+02 -0.78733029076E+02  0.12080974330E+03  0.00000000000E+00 0. -1.
         -5    1    3    3    0  503 -0.97952312333E+02 -0.33199915833E+02 -0.90642646814E+02  0.13760475764E+03  0.47000000000E+01 0.  1.
         13    1    4    4    0    0  0.28906896628E+02 -0.57549051557E+02 -0.24956149036E+02  0.69067440828E+02  0.00000000000E+00 0. -1.
        -14    1    4    4    0    0 -0.38717951677E+01  0.25794109541E+02 -0.12596175977E+02  0.28965333316E+02  0.00000000000E+00 0.  1.
</event>
<event>
12    1  0.8417180E-002  0.2361599E+03  0.7818608E-02  0.1122735E+00
         21   -1    0    0  503  502  0.00000000000E+00  0.00000000000E+00  0.78382622699E+03  0.78382622699E+03  0.00000000000E+00 0. -1.
         21   -1    0    0  501  503 -0.00000000000E+00 -0.00000000000E+00 -0.98852678375E+02  0.98852678375E+02  0.00000000000E+00 0.  1.
          6    2    1    2  501    0 -0.58997296902E+02 -0.15000543868E+03  0.57765667111E+03  0.62327882218E+03  0.16972609648E+03 0.  0.
         24    2    3    3    0    0 -0.22758226129E+02 -0.83772509450E+02  0.15954468568E+03  0.19837907691E+03  0.79774565075E+02 0.  0.
         -6    2    1    2    0  502  0.58997296902E+02  0.15000543868E+03  0.10731687751E+03  0.25940008319E+03  0.17259541792E+03 0.  0.
        -24    2    5    5    0    0  0.42117732961E+02  0.17766917958E+03  0.84675356823E+02  0.21958889508E+03  0.87801628600E+02 0.  0.
          5    1    3    3  501    0 -0.36239070773E+02 -0.66232929227E+02  0.41811198544E+03  0.42489974527E+03  0.47000000000E+01 0. -1.
        -13    1    4    4    0    0 -0.30707724413E+02  0.28692214673E+01  0.44327850571E+02  0.54001436154E+02  0.00000000000E+00 0.  1.
         14    1    4    4    0    0  0.79494982836E+01 -0.86641730917E+02  0.11521683510E+03  0.14437764076E+03  0.00000000000E+00 0. -1.
         -5    1    5    5    0  502  0.16879563941E+02 -0.27663740908E+02  0.22641520685E+02  0.39811188110E+02  0.47000000000E+01 0.  1.
         13    1    6    6    0    0 -0.22554435337E+02  0.38801584514E+02  0.39739525293E+02  0.59945770365E+02  0.00000000000E+00 0. -1.
        -14    1    6    6    0    0  0.64672168298E+02  0.13886759507E+03  0.44935831530E+02  0.15964312471E+03  0.00000000000E+00 0.  1.
</event>
<event>
12    1  0.8417180E-002  0.3055505E+03  0.7818608E-02  0.1082879E+00
         21   -1    0    0  501  502  0.00000000000E+00  0.00000000000E+00  0.69531372593E+03  0.69531372593E+03  0.00000000000E+00 0. -1.
         21   -1    0    0  502  503 -0.00000000000E+00 -0.00000000000E+00 -0.20469623437E+03  0.20469623437E+03  0.00000000000E+00 0.  1.
         -6    2    1    2    0  503  0.24169055670E+03  0.70615315796E+02  0.51260779316E+03  0.59676450658E+03  0.17309037721E+03 0.  0.
        -24    2    3    3    0    0  0.21693662670E+03  0.76711181679E+02  0.51621401970E+03  0.57059178221E+03  0.78434446452E+02 0.  0.
          6    2    1    2  501    0 -0.24169055670E+03 -0.70615315796E+02 -0.21990301606E+02  0.30324545373E+03  0.16755113792E+03 0.  0.
         24    2    5    5    0    0 -0.16876304058E+03 -0.87535746332E+02 -0.66799324070E+02  0.21586890040E+03  0.77419388481E+02 0.  0.
          5    1    5    5  501    0 -0.72927516117E+02  0.16920430536E+02  0.44809022464E+02  0.87376553323E+02  0.47000000000E+01 0. -1.
        -11    1    6    6    0    0 -0.10682937429E+03 -0.42123374589E+02 -0.11581190379E+01  0.11484004153E+03  0.00000000000E+00 0.  1.
         12    1    6    6    0    0 -0.61933666285E+02 -0.45412371742E+02 -0.65641205032E+02  0.10102885887E+03  0.00000000000E+00 0. -1.
         -5    1    3    3    0  503  0.24753929993E+02 -0.60958658835E+01 -0.36062265404E+01  0.26172724367E+02  0.47000000000E+01 0.  1.
         11    1    4    4    0    0  0.73040453211E+02 -0.71572404303E+01  0.20280992197E+03  0.21568031516E+03  0.00000000000E+00 0. -1.
        -12    1    4    4    0    0  0.14389617349E+03  0.83868422109E+02  0.31340409773E+03  0.35491146706E+03  0.00000000000E+00 0.  1.
</event>
<event>
12    1  0.8417180E-002  0.3100823E+03  0.7818608E-02  0.1080334E+00
         21   -1    0    0  501  502  0.00000000000E+00  0.00000000000E+00  0.24620361266E+03  0.24620361266E+03  0.00000000000E+00 0. -1.
         21   -1    0    0  502  503 -0.00000000000E+00 -0.00000000000E+00 -0.39739877596E+03  0.39739877596E+03  0.00000000000E+00 0. -1.
         -6    2    1    2    0  503  0.13800593194E+03 -0.21781216777E+03 -0.11878935237E+03  0.33205709212E+03  0.17223014983E+03 0.  0.
        -24    2    3    3    0    0  0.11578423427E+03 -0.10083305634E+03 -0.15471924012E+02  0.17434058265E+03  0.81129305230E+02 0.  0.
          6    2    1    2  501    0 -0.13800593194E+03  0.21781216777E+03 -0.32405810930E+02  0.31154529650E+03  0.17182129528E+03 0.  0.
         24    2    5    5    0    0 -0.12430310319E+03  0.23587538544E+03 -0.40368390493E+02  0.28705979015E+03  0.98413704593E+02 0.  0.
          5    1    5    5  501    0 -0.13702828753E+02 -0.18063217663E+02  0.79625795624E+01  0.24485506355E+02  0.47000000000E+01 0. -1.
        -13    1    6    6    0    0 -0.15824414530E+02 -0.73136743866E+01  0.15190718247E+01  0.17498843032E+02  0.00000000000E+00 0.  1.
         14    1    6    6    0    0 -0.10847868866E+03  0.24318905982E+03 -0.41887462317E+02  0.26956094712E+03  0.00000000000E+00 0. -1.
         -5    1    3    3    0  503  0.22221697667E+02 -0.11697911143E+03 -0.10331742835E+03  0.15771650947E+03  0.47000000000E+01 0.  1.
         11    1    4    4    0    0  0.10772309346E+03 -0.45364169524E+02 -0.17840517129E+02  0.11823898169E+03  0.00000000000E+00 0. -1.
        -12    1    4    4    0    0  0.80611408172E+01 -0.55468886818E+02  0.23685931175E+01  0.56101600953E+02  0.00000000000E+00 0.  1.
</event>
<event>
12    1  0.8417180E-002  0.1851909E+03  0.7818608E-02  0.1166892E+00
         21   -1    0    0  501  502  0.00000000000E+00  0.00000000000E+00  0.73663685043E+02  0.73663685043E+02  0.00000000000E+00 0.  1.
         21   -1    0    0  502  503 -0.00000000000E+00 -0.00000000000E+00 -0.48003479938E+03  0.48003479938E+03  0.00000000000E+00 0.  1.
         -6    2    1    2    0  503  0.52457920263E+02  0.43850583650E+02 -0.28829843139E+03  0.33406963126E+03  0.15431080941E+03 0.  0.
        -24    2    3    3    0    0  0.25047157320E+02  0.22757145849E+02 -0.28567829138E+03  0.29906622890E+03  0.81751301663E+02 0.  0.
          6    2    1    2  501    0 -0.52457920263E+02 -0.43850583650E+02 -0.11807268294E+03  0.21962885316E+03  0.17210743040E+03 0.  0.
         24    2    5    5    0    0 -0.29029295530E+01 -0.76190287349E+02 -0.31132166646E+02  0.11435636429E+03  0.79339645621E+02 0.  0.
          5    1    5    5  501    0 -0.49554990710E+02  0.32339703699E+02 -0.86940516298E+02  0.10527248887E+03  0.47000000000E+01 0. -1.
        -13    1    6    6    0    0  0.31601781049E+02 -0.63138482880E+02 -0.31854230285E+02  0.77458586179E+02  0.00000000000E+00 0.  1.
         14    1    6    6    0    0 -0.34504710602E+02 -0.13051804469E+02  0.72206363930E+00  0.36897778111E+02  0.00000000000E+00 0. -1.
         -5    1    3    3    0  503  0.27410762943E+02  0.21093437801E+02 -0.26201400147E+01  0.35003402364E+02  0.47000000000E+01 0.  1.
         13    1    4    4    0    0  0.13599581995E+02 -0.13640218558E+02 -0.11897869170E+02  0.22639864919E+02  0.00000000000E+00 0. -1.
        -14    1    4    4    0    0  0.11447575325E+02  0.36397364407E+02 -0.27378042221E+03  0.27642636398E+03  0.00000000000E+00 0.  1.
</event>
<event>
12    1  0.8417180E-002  0.1858119E+03  0.7818608E-02  0.1162555E+00
         21   -1    0    0  503  502  0.00000000000E+00  0.00000000000E+00  0.33526103848E+03  0.33526103848E+03  0.00000000000E+00 0.  1.
         21   -1    0    0  501  503 -0.00000000000E+00 -0.00000000000E+00 -0.12844801940E+03  0.12844801940E+03  0.00000000000E+00 0.  1.
          6    2    1    2  501    0  0.27026881445E+01 -0.72552927578E+02 -0.13282080477E+01  0.18469500805E+03  0.16982122965E+03 0.  0.
         24    2    3    3    0    0  0.38631327235E+02 -0.98162219216E+02  0.22984514541E+02  0.13409953983E+03  0.79537399681E+02 0.  0.
         -6    2    1    2    0  502 -0.27026881445E+01  0.72552927578E+02  0.20814122714E+03  0.27901404983E+03  0.17104045646E+03 0.  0.
        -24    2    5    5    0    0  0.58108358953E+02  0.48015498038E+02  0.84237122829E+02  0.13874863727E+03  0.80456336285E+02 0.  0.
          5    1    3    3  501    0 -0.35928639090E+02  0.25609291638E+02 -0.24312722588E+02  0.50595468223E+02  0.47000000000E+01 0. -1.
        -13    1    4    4    0    0  0.18259861320E+02 -0.10174548204E+03  0.26038612814E+00  0.10337133767E+03  0.00000000000E+00 0.  1.
         14    1    4    4    0    0  0.20371465915E+02  0.35832628190E+01  0.22724128412E+02  0.30728202161E+02  0.00000000000E+00 0. -1.
         -5    1    5    5    0  502 -0.60811047098E+02  0.24537429540E+02  0.12390410431E+03  0.14026541256E+03  0.47000000000E+01 0.  1.
         11    1    6    6    0    0  0.32485889723E+02 -0.15111467092E+02  0.83932999615E+01  0.36798599879E+02  0.00000000000E+00 0. -1.
        -12    1    6    6    0    0  0.25622469230E+02  0.63126965130E+02  0.75843822867E+02  0.10195003739E+03  0.00000000000E+00 0.  1.
</event>
<event>
12    1  0.8417180E-002  0.2101090E+03  0.7818608E-02  0.1141731E+00
         21   -1    0    0  503  502  0.00000000000E+00  0.00000000000E+00  0.16777178044E+03  0.16777178044E+03  0.00000000000E+00 0.  1.
         21   -1    0    0  501  503 -0.00000000000E+00 -0.00000000000E+00 -0.36362743383E+03  0.36362743383E+03  0.00000000000E+00 0.  1.
          6    2    1    2  501    0 -0.11718278719E+03  0.19608457301E+02  0.43059793843E+02  0.21323830518E+03  0.17175602388E+03 0.  0.
         24    2    3    3    0    0 -0.52252990916E+02 -0.24946740883E+02 -0.33246543257E+02  0.10348498537E+03  0.79063864169E+02 0.  0.
         -6    2    1    2    0  502  0.11718278719E+03 -0.19608457301E+02 -0.23891544724E+03  0.31816090909E+03  0.17329014955E+03 0.  0.
        -24    2    5    5    0    0  0.11528828888E+03 -0.60098794459E+02 -0.10305054925E+03  0.17630035421E+03  0.59658566395E+02 0.  0.
          5    1    3    3  501    0 -0.64929796276E+02  0.44555198184E+02  0.76306337099E+02  0.10975331982E+03  0.47000000000E+01 0. -1.
        -11    1    4    4    0    0 -0.57911027264E+02 -0.44809995667E+02 -0.12633063738E+02  0.74304892772E+02  0.00000000000E+00 0.  1.
         12    1    4    4    0    0  0.56580363483E+01  0.19863254784E+02 -0.20613479518E+02  0.29180092594E+02  0.00000000000E+00 0. -1.
         -5    1    5    5    0  502  0.18944983143E+01  0.40490337158E+02 -0.13586489799E+03  0.14186055488E+03  0.47000000000E+01 0.  1.
         13    1    6    6    0    0  0.40332640010E+02 -0.46918574258E+02 -0.69724465896E+02  0.93217893160E+02  0.00000000000E+00 0. -1.
        -14    1    6    6    0    0  0.74955648867E+02 -0.13180220202E+02 -0.33326083353E+02  0.83082461045E+02  0.00000000000E+00 0.  1.
</event>
<event>
12    1  0.8417180E-002  0.2122964E+03  0.7818608E-02  0.1139956E+00
         21   -1    0    0  503  502  0.00000000000E+00  0.00000000000E+00  0.16145108078E+03  0.16145108078E+03  0.00000000000E+00 0. -1.
         21   -1    0    0  501  503 -0.00000000000E+00 -0.00000000000E+00 -0.42013152940E+03  0.42013152940E+03  0.00000000000E+00 0.  1.
          6    2    1    2  501    0  0.11574532676E+03  0.46321888574E+02 -0.29836665158E+03  0.36560864189E+03  0.17059988928E+03 0.  0.
         24    2    3    3    0    0  0.13725513252E+03  0.68384653632E+02 -0.28171669557E+03  0.33027100783E+03  0.78735060784E+02 0.  0.
         -6    2    1    2    0  502 -0.11574532676E+03 -0.46321888574E+02  0.39686202962E+02  0.21597396829E+03  0.17183440356E+03 0.  0.
        -24    2    5    5    0    0 -0.13580082069E+03 -0.63723605131E+02  0.62333385710E+02  0.18075994463E+03  0.79285218415E+02 0.  0.
          5    1    3    3  501    0 -0.21509805758E+02 -0.22062765059E+02 -0.16649956016E+02  0.35337634062E+02  0.47000000000E+01 0. -1.
        -13    1    4    4    0    0  0.14991623609E+02  0.71724292912E+01 -0.10764348764E+03  0.10891883653E+03  0.00000000000E+00 0.  1.
         14    1    4    4    0    0  0.12226350891E+03  0.61212224341E+02 -0.17407320792E+03  0.22135217129E+03  0.00000000000E+00 0. -1.
         -5    1    5    5    0  502  0.20055493928E+02  0.17401716557E+02 -0.22647182749E+02  0.35214023659E+02  0.47000000000E+01 0.  1.
         11    1    6    6    0    0 -0.70422412800E+02 -0.24270262798E+02 -0.10513044223E+02  0.75225567327E+02  0.00000000000E+00 0. -1.
        -12    1    6    6    0    0 -0.65378407889E+02 -0.39453342333E+02  0.72846429934E+02  0.10553437731E+03  0.00000000000E+00 0.  1.
</event>
<event>
12    1  0.8417180E-002  0.1782573E+03  0.7818608E-02  0.1169993E+00
         21   -1    0    0  501  502  0.00000000000E+00  0.00000000000E+00  0.94490491038E+03  0.94490491038E+03  0.00000000000E+00 0.  1.
         21   -1    0    0  502  503 -0.00000000000E+00 -0.00000000000E+00 -0.48402449804E+02  0.48402449804E+02  0.00000000000E+00 0.  1.
         -6    2    1    2    0  503 -0.37713773960E+02 -0.23838174953E+02  0.17212897807E+03  0.24779843668E+03  0.17258358207E+03 0.  0.
        -24    2    3    3    0    0 -0.69791371570E+02  0.52210814784E+01  0.47907709362E+02  0.11616855310E+03  0.79384437244E+02 0.  0.
          6    2    1    2  501    0  0.37713773960E+02  0.23838174953E+02  0.72437348251E+03  0.74550892350E+03  0.17051693618E+03 0.  0.
         24    2    5    5    0    0  0.39031757562E+02 -0.27687263470E+02  0.22082729402E+03  0.23930988969E+03  0.78831889891E+02 0.  0.
          5    1    5    5  501    0 -0.13179836018E+01  0.51525438423E+02  0.50354618849E+03  0.50619903381E+03  0.47000000000E+01 0. -1.
        -11    1    6    6    0    0  0.63101976781E+02 -0.23740045413E+02  0.17165090871E+03  0.18441660362E+03  0.00000000000E+00 0.  1.
         12    1    6    6    0    0 -0.24070219219E+02 -0.39472180568E+01  0.49176385308E+02  0.54893286070E+02  0.00000000000E+00 0. -1.
         -5    1    3    3    0  503  0.32077597610E+02 -0.29059256431E+02  0.12422126870E+03  0.13162988358E+03  0.47000000000E+01 0.  1.
         11    1    4    4    0    0 -0.46324517106E+01  0.50935665983E+01  0.50491050251E+02  0.50958318114E+02  0.00000000000E+00 0. -1.
        -12    1    4    4    0    0 -0.65158919860E+02  0.12751488013E+00 -0.25833408887E+01  0.65210234990E+02  0.00000000000E+00 0.  1.
</event>
<event>
12    1  0.8417180E-002  0.1740444E+03  0.7818608E-02  0.1173898E+00
         21   -1    0    0  501  502  0.00000000000E+00  0.00000000000E+00  0.24454328197E+02  0.24454328197E+02  0.00000000000E+00 0. -1.
         21   -1    0    0  502  503 -0.00000000000E+00 -0.00000000000E+00 -0.15648719118E+04  0.15648719118E+04  0.00000000000E+00 0. -1.
         -6    2    1    2    0  503  0.46763601640E+01 -0.18628772809E+02 -0.11375608082E+04  0.11507979964E+04  0.17298131827E+03 0.  0.
        -24    2    3    3    0    0 -0.35182250793E+02 -0.42914071714E+02 -0.39578104389E+03  0.40753640485E+03  0.79773919663E+02 0.  0.
          6    2    1    2  501    0 -0.46763601640E+01  0.18628772809E+02 -0.40285677542E+03  0.43852824369E+03  0.17217589695E+03 0.  0.
         24    2    5    5    0    0 -0.56135283213E+02 -0.27707674717E+02 -0.27037037523E+03  0.28896279525E+03  0.80501378742E+02 0.  0.
          5    1    5    5  501    0  0.51458923049E+02  0.46336447525E+02 -0.13248640019E+03  0.14956544844E+03  0.47000000000E+01 0. -1.
        -13    1    6    6    0    0  0.99863036768E+01  0.99660905660E+01 -0.89899953029E+01  0.16729292808E+02  0.00000000000E+00 0.  1.
         14    1    6    6    0    0 -0.66121586890E+02 -0.37673765283E+02 -0.26138037993E+03  0.27223350244E+03  0.00000000000E+00 0. -1.
         -5    1    3    3    0  503  0.39858610957E+02  0.24285298905E+02 -0.74177976434E+03  0.74326159150E+03  0.47000000000E+01 0.  1.
         11    1    4    4    0    0  0.23465572245E+02 -0.27968857728E+02 -0.15987092601E+03  0.16398659416E+03  0.00000000000E+00 0. -1.
        -12    1    4    4    0    0 -0.58647823038E+02 -0.14945213985E+02 -0.23591011788E+03  0.24354981069E+03  0.00000000000E+00 0.  1.
</event>
<event>
12    1  0.8417180E-002  0.1972201E+03  0.7818608E-02  0.1152645E+00
         21   -1    0    0  501  502  0.00000000000E+00  0.00000000000E+00  0.26257316587E+03  0.26257316587E+03  0.00000000000E+00 0. -1.
         21   -1    0    0  502  503 -0.00000000000E+00 -0.00000000000E+00 -0.14701756286E+03  0.14701756286E+03  0.00000000000E+00 0.  1.
         -6    2    1    2    0  503  0.22838586200E+02  0.89285862991E+02  0.42763371184E+02  0.19936589167E+03  0.17153567121E+03 0.  0.
        -24    2    3    3    0    0 -0.81991515110E+01  0.35037533888E+02  0.87287746456E+02  0.12248460418E+03  0.78028665979E+02 0.  0.
          6    2    1    2  501    0 -0.22838586200E+02 -0.89285862991E+02  0.72792231823E+02  0.21022483705E+03  0.17436228592E+03 0.  0.
         24    2    5    5    0    0  0.24737961430E+02 -0.10849203179E+03  0.24293585258E+02  0.13946740972E+03  0.80489082433E+02 0.  0.
          5    1    5    5  501    0 -0.47576547630E+02  0.19206168800E+02  0.48498646566E+02  0.70757427335E+02  0.47000000000E+01 0. -1.
        -11    1    6    6    0    0 -0.95800511323E+01 -0.25852383041E+00 -0.16280537280E+02  0.18891800031E+02  0.00000000000E+00 0.  1.
         12    1    6    6    0    0  0.34318012562E+02 -0.10823350796E+03  0.40574122538E+02  0.12057560969E+03  0.00000000000E+00 0. -1.
         -5    1    3    3    0  503  0.31037737711E+02  0.54248329104E+02 -0.44524375271E+02  0.76881287489E+02  0.47000000000E+01 0.  1.
         13    1    4    4    0    0  0.51089311621E+01  0.55447137295E+02  0.37729415508E+02  0.67260649762E+02  0.00000000000E+00 0. -1.
        -14    1    4    4    0    0 -0.13308082673E+02 -0.20409603408E+02  0.49558330947E+02  0.55223954422E+02  0.00000000000E+00 0.  1.
</event>
<event>
12    1  0.8417180E-002  0.2786305E+03  0.7818608E-02  0.1096488E+00
         21   -1    0    0  503  502  0.00000000000E+00  0.00000000000E+00  0.13413543200E+04  0.13413543200E+04  0.00000000000E+00 0.  1.
         21   -1    0    0  501  503 -0.00000000000E+00 -0.00000000000E+00 -0.65693535481E+02  0.65693535481E+02  0.00000000000E+00 0.  1.
          6    2    1    2  501    0 -0.15174452535E+03  0.15875881486E+03  0.39366992355E+03  0.48209227573E+03  0.17089819000E+03 0.  0.
         24    2    3    3    0    0 -0.51762473143E+02  0.92617822103E+02  0.10366576060E+03  0.16825227476E+03  0.79402918352E+02 0.  0.
         -6    2    1    2    0  502  0.15174452535E+03 -0.15875881486E+03  0.88199086095E+03  0.92495557973E+03  0.17147648059E+03 0.  0.
        -24    2    5    5    0    0  0.63519248239E+02 -0.15421314184E+03  0.67412329641E+03  0.69904547138E+03  0.80037268086E+02 0.  0.
          5    1    3    3  501    0 -0.99982052209E+02  0.66140992757E+02  0.29000416294E+03  0.31384000097E+03  0.47000000000E+01 0. -1.
        -11    1    4    4    0    0 -0.19128727932E+02 -0.89249907187E+00 -0.63955844673E+01  0.20189311221E+02  0.00000000000E+00 0.  1.
         12    1    4    4    0    0 -0.32633745211E+02  0.93510321175E+02  0.11006134507E+03  0.14806296354E+03  0.00000000000E+00 0. -1.
         -5    1    5    5    0  502  0.88225277114E+02 -0.45456730247E+01  0.20786756454E+03  0.22591010835E+03  0.47000000000E+01 0.  1.
         11    1    6    6    0    0 -0.14557559813E+02 -0.35021615401E+02  0.21502028228E+03  0.21833954723E+03  0.00000000000E+00 0. -1.
        -12    1    6    6    0    0  0.78076808052E+02 -0.11919152643E+03  0.45910301413E+03  0.48070592415E+03  0.00000000000E+00 0.  1.
</event>
<event>
12    1  0.8417180E-002  0.1791239E+03  0.7818608E-02  0.1173658E+00
         21   -1    0    0  501  502  0.00000000000E+00  0.00000000000E+00  0.26589376041E+03  0.26589376041E+03  0.00000000000E+00 0. -1.
         21   -1    0    0  502  503 -0.00000000000E+00 -0.00000000000E+00 -0.11079087665E+03  0.11079087665E+03  0.00000000000E+00 0. -1.
         -6    2    1    2    0  503  0.43942760530E+02 -0.20037966951E+02  0.11173313355E+03  0.21111531839E+03  0.17249028437E+03 0.  0.
        -24    2    3    3    0    0  0.30768221207E+02  0.49014489282E+02  0.24027908861E+02  0.98615955563E+02  0.76148950693E+02 0.  0.
          6    2    1    2  501    0 -0.43942760530E+02  0.20037966951E+02  0.43369750213E+02  0.16556931867E+03  0.15231473247E+03 0.  0.
         24    2    5    5    0    0 -0.83224888595E+02  0.28603168529E+02  0.37714468763E+02  0.12469731759E+03  0.79890653579E+02 0.  0.
          5    1    5    5  501    0  0.39282128065E+02 -0.85652015784E+01  0.56552814501E+01  0.40872001072E+02  0.47000000000E+01 0. -1.
        -13    1    6    6    0    0 -0.35842179288E+02  0.10074819113E+02  0.58823166742E+02  0.69615578299E+02  0.00000000000E+00 0.  1.
         14    1    6    6    0    0 -0.47382709307E+02  0.18528349416E+02 -0.21108697979E+02  0.55081739295E+02  0.00000000000E+00 0. -1.
         -5    1    3    3    0  503  0.13174539324E+02 -0.69052456233E+02  0.87705224690E+02  0.11249936283E+03  0.47000000000E+01 0.  1.
         13    1    4    4    0    0  0.49720262582E+02  0.11088059532E+02  0.23776467924E+02  0.56217168217E+02  0.00000000000E+00 0. -1.
        -14    1    4    4    0    0 -0.18952041375E+02  0.37926429750E+02  0.25144093708E+00  0.42398787346E+02  0.00000000000E+00 0.  1.
</event>
<event>
12    1  0.8417180E-002  0.2467568E+03  0.7818608E-02  0.1115475E+00
         21   -1    0    0  503  502  0.00000000000E+00  0.00000000000E+00  0.87507585179E+03  0.87507585179E+03  0.00000000000E+00 0.  1.
         21   -1    0    0  501  503 -0.00000000000E+00 -0.00000000000E+00 -0.81938416436E+02  0.81938416436E+02  0.00000000000E+00 0. -1.
          6    2    1    2  501    0 -0.77214813976E+02 -0.15943096102E+03  0.58330844038E+03  0.63310510958E+03  0.17085954563E+03 0.  0.
         24    2    3    3    0    0 -0.77958170070E+02 -0.14165213588E+03  0.58553861124E+03  0.61456588458E+03  0.93236030334E+02 0.  0.
         -6    2    1    2    0  502  0.77214813976E+02  0.15943096102E+03  0.20982899497E+03  0.32390915864E+03  0.17178060744E+03 0.  0.
        -24    2    5    5    0    0  0.15733769234E+02  0.15337742034E+02  0.67282416031E+02  0.11204979069E+03  0.86864459144E+02 0.  0.
          5    1    3    3  501    0  0.74335609391E+00 -0.17778825143E+02 -0.22301708603E+01  0.18539225006E+02  0.47000000000E+01 0. -1.
        -13    1    4    4    0    0 -0.46832920888E+02 -0.75827393565E+01  0.11770831879E+03  0.12690968729E+03  0.00000000000E+00 0.  1.
         14    1    4    4    0    0 -0.31125249182E+02 -0.13406939652E+03  0.46783029245E+03  0.48765619729E+03  0.00000000000E+00 0. -1.
         -5    1    5    5    0  502  0.61481044743E+02  0.14409321898E+03  0.14254657894E+03  0.21185936795E+03  0.47000000000E+01 0.  1.
         13    1    6    6    0    0 -0.35372176832E+02  0.15066532536E+02  0.30676891491E+02  0.49186003782E+02  0.00000000000E+00 0. -1.
        -14    1    6    6    0    0  0.51105946066E+02  0.27120949773E+00  0.36605524540E+02  0.62863786911E+02  0.00000000000E+00 0.  1.
</event>
<event>
12    1  0.8417180E-002  0.2021671E+03  0.7818608E-02  0.1148740E+00
         21   -1    0    0  503  502  0.00000000000E+00  0.00000000000E+00  0.26105899485E+03  0.26105899485E+03  0.00000000000E+00 0. -1.
         21   -1    0    0  501  503 -0.00000000000E+00 -0.00000000000E+00 -0.20427014984E+03  0.20427014984E+03  0.00000000000E+00 0. -1.
          6    2    1    2  501    0  0.98701712495E+02  0.17904447454E+02 -0.87728068143E+02  0.21682028272E+03  0.17103281489E+03 0.  0.
         24    2    3    3    0    0  0.11771980644E+02  0.50708966549E+02 -0.11641594168E+02  0.96636439066E+02  0.80579748224E+02 0.  0.
         -6    2    1    2    0  502 -0.98701712495E+02 -0.17904447454E+02  0.14451691315E+03  0.24850886197E+03  0.17552469628E+03 0.  0.
        -24    2    5    5    0    0 -0.10458469308E+03  0.14144092031E+02  0.16352137387E+03  0.21049599743E+03  0.80195460316E+02 0.  0.
          5    1    3    3  501    0  0.86929731850E+02 -0.32804519095E+02 -0.76086473974E+02  0.12018384365E+03  0.47000000000E+01 0. -1.
        -11    1    4    4    0    0 -0.15334510906E+02  0.43686841185E+02 -0.36683536813E+02  0.59070882765E+02  0.00000000000E+00 0.  1.
         12    1    4    4    0    0  0.27106491550E+02  0.70221253636E+01  0.25041942645E+02  0.37565556301E+02  0.00000000000E+00 0. -1.
         -5    1    5    5    0  502  0.58829805848E+01 -0.32048539485E+02 -0.19004460717E+02  0.38012864544E+02  0.47000000000E+01 0.  1.
         11    1    6    6    0    0 -0.10828302589E+03 -0.82888008245E+01  0.12341330136E+03  0.16439209490E+03  0.00000000000E+00 0. -1.
        -12    1    6    6    0    0  0.36983328091E+01  0.22432892856E+02  0.40108072512E+02  0.46103902525E+02  0.00000000000E+00 0.  1.
</event>
<event>
12    1  0.8417180E-002  0.2425477E+03  0.7818608E-02  0.1118161E+00
         21   -1    0    0  503  502  0.00000000000E+00  0.00000000000E+00  0.20881095435E+04  0.20881095435E+04  0.00000000000E+00 0.  1.
         21   -1    0    0  501  503 -0.00000000000E+00 -0.00000000000E+00 -0.28470570562E+02  0.28470570562E+02  0.00000000000E+00 0. -1.
          6    2    1    2  501    0 -0.16398159851E+03 -0.47031791950E+02  0.91432865794E+03  0.94586874021E+03  0.17195588058E+03 0.  0.
         24    2    3    3    0    0 -0.20131055751E+02  0.10553574484E+02  0.35413355731E+03  0.36462034765E+03  0.83790119750E+02 0.  0.
         -6    2    1    2    0  502  0.16398159851E+03  0.47031791950E+02  0.11453103150E+04  0.11707113738E+04  0.17241649900E+03 0.  0.
        -24    2    5    5    0    0  0.59518598488E+02  0.72986013334E+02  0.42970188415E+03  0.44703765160E+03  0.79558349643E+02 0.  0.
          5    1    3    3  501    0 -0.14385054276E+03 -0.57585366434E+02  0.56019510063E+03  0.58124839255E+03  0.47000000000E+01 0. -1.
        -11    1    4    4    0    0 -0.48876800487E+02  0.15917317030E+02  0.28433155086E+03  0.28894070918E+03  0.00000000000E+00 0.  1.
         12    1    4    4    0    0  0.28745744736E+02 -0.53637425459E+01  0.69802006451E+02  0.75679638471E+02  0.00000000000E+00 0. -1.
         -5    1    5    5    0  502  0.10446300002E+03 -0.25954221385E+02  0.71560843082E+03  0.72367372223E+03  0.47000000000E+01 0.  1.
         11    1    6    6    0    0 -0.98885217331E+01  0.27256273746E+02  0.45539718236E+02  0.53986602575E+02  0.00000000000E+00 0. -1.
        -12    1    6    6    0    0  0.69407120221E+02  0.45729739588E+02  0.38416216591E+03  0.39305104902E+03  0.00000000000E+00 0.  1.
</event>
<event>
12    1  0.8417180E-002  0.1744873E+03  0.7818608E-02  0.1173544E+00
         21   -1    0    0  501  502  0.00000000000E+00  0.00000000000E+00  0.14895520401E+03  0.14895520401E+03  0.00000000000E+00 0.  1.
         21   -1    0    0  502  503 -0.00000000000E+00 -0.00000000000E+00 -0.51034059673E+03  0.51034059673E+03  0.00000000000E+00 0.  1.
         -6    2    1    2    0  503  0.10307719195E+02  0.24374868443E+02 -0.43625703297E+03  0.46942324722E+03  0.17128223180E+03 0.  0.
        -24    2    3    3    0    0  0.45454495888E+02 -0.36012683933E+02 -0.21251559578E+03  0.23497864159E+03  0.81786667335E+02 0.  0.
          6    2    1    2  501    0 -0.10307719195E+02 -0.24374868443E+02  0.74871640247E+02  0.18987255352E+03  0.17246866608E+03 0.  0.
         24    2    5    5    0    0  0.23577742312E+02 -0.70687850491E+02  0.20554416319E+02  0.11071721496E+03  0.79266231890E+02 0.  0.
          5    1    5    5  501    0 -0.33885461507E+02  0.46312982047E+02  0.54317223928E+02  0.79155338562E+02  0.47000000000E+01 0. -1.
        -13    1    6    6    0    0  0.60224073844E+01 -0.67890210251E+02 -0.16052993490E+02  0.70021772604E+02  0.00000000000E+00 0.  1.
         14    1    6    6    0    0  0.17555334928E+02 -0.27976402401E+01  0.36607409810E+02  0.40695442353E+02  0.00000000000E+00 0. -1.
         -5    1    3    3    0  503 -0.35146776694E+02  0.60387552376E+02 -0.22374143719E+03  0.23444460563E+03  0.47000000000E+01 0.  1.
         11    1    4    4    0    0  0.20506729274E+02  0.21130586878E+02 -0.29699711502E+02  0.41822248991E+02  0.00000000000E+00 0. -1.
        -12    1    4    4    0    0  0.24947766614E+02 -0.57143270811E+02 -0.18281588428E+03  0.19315639260E+03  0.00000000000E+00 0.  1.
</event>
<event>
12    1  0.8417180E-002  0.1902714E+03  0.7818608E-02  0.1158555E+00
         21   -1    0    0  503  502  0.00000000000E+00  0.00000000000E+00  0.62097589643E+03  0.62097589643E+03  0.00000000000E+00 0.  1.
         21   -1    0    0  501  503 -0.00000000000E+00 -0.00000000000E+00 -0.58865936678E+02  0.58865936678E+02  0.00000000000E+00 0. -1.
          6    2    1    2  501    0  0.13016011302E+02 -0.76140667011E+02  0.23516004782E+03  0.30155692924E+03  0.17224841293E+03 0.  0.
         24    2    3    3    0    0 -0.37584079998E+02 -0.36298892210E+02  0.54525921114E+02  0.10972754152E+03  0.79604551695E+02 0.  0.
         -6    2    1    2    0  502 -0.13016011302E+02  0.76140667011E+02  0.32694991193E+03  0.37828490387E+03  0.17388618652E+03 0.  0.
        -24    2    5    5    0    0 -0.77186990616E+02  0.40407538600E+02  0.20070318385E+03  0.23215107000E+03  0.77599939412E+02 0.  0.
          5    1    3    3  501    0  0.50600091300E+02 -0.39841774801E+02  0.18063412671E+03  0.19182938771E+03  0.47000000000E+01 0. -1.
        -13    1    4    4    0    0 -0.18699424407E+02 -0.56608036892E+02  0.56219063676E+02  0.81943403850E+02  0.00000000000E+00 0.  1.
         14    1    4    4    0    0 -0.18884655592E+02  0.20309144682E+02 -0.16931425628E+01  0.27784137674E+02  0.00000000000E+00 0. -1.
         -5    1    5    5    0  502  0.64170979314E+02  0.35733128411E+02  0.12624672808E+03  0.14613383387E+03  0.47000000000E+01 0.  1.
         11    1    6    6    0    0 -0.13513494598E+00  0.12405500517E+02 -0.28319328464E+01  0.12725350611E+02  0.00000000000E+00 0. -1.
        -12    1    6    6    0    0 -0.77051855670E+02  0.28002038083E+02  0.20353511670E+03  0.21942571939E+03  0.00000000000E+00 0.  1.
</event>
<event>
12    1  0.8417180E-002  0.2052894E+03  0.7818608E-02  0.1145870E+00
         21   -1    0    0  503  502  0.00000000000E+00  0.00000000000E+00  0.22988750752E+02  0.22988750752E+02  0.00000000000E+00 0. -1.
         21   -1    0    0  501  503 -0.00000000000E+00 -0.00000000000E+00 -0.18999729884E+04  0.18999729884E+04  0.00000000000E+00 0.  1.
          6    2    1    2  501    0 -0.10953165001E+03 -0.14498655228E+02 -0.11523714001E+04  0.11705142356E+04  0.17302120839E+03 0.  0.
         24    2    3    3    0    0 -0.64646946422E+02  0.44730565069E+02 -0.91363037983E+03  0.92043004593E+03  0.79315492547E+02 0.  0.
         -6    2    1    2    0  502  0.10953165001E+03  0.14498655228E+02 -0.72461283757E+03  0.75244750360E+03  0.17001790478E+03 0.  0.
        -24    2    5    5    0    0  0.69563388093E+02 -0.37850081189E+02 -0.25939545819E+03  0.28256756974E+03  0.79288928181E+02 0.  0.
          5    1    3    3  501    0 -0.44884703591E+02 -0.59229220296E+02 -0.23874102028E+03  0.25008418966E+03  0.47000000000E+01 0. -1.
        -11    1    4    4    0    0  0.90922978662E+01  0.15910605398E+02 -0.51335424836E+02  0.54508192850E+02  0.00000000000E+00 0.  1.
         12    1    4    4    0    0 -0.73739244288E+02  0.28819959671E+02 -0.86229495500E+03  0.86592185308E+03  0.00000000000E+00 0. -1.
         -5    1    5    5    0  502  0.39968261921E+02  0.52348736417E+02 -0.46521737938E+03  0.46987993386E+03  0.47000000000E+01 0.  1.
         13    1    6    6    0    0  0.29126360473E+02  0.69029305304E+01 -0.20760009852E+02  0.36427645180E+02  0.00000000000E+00 0. -1.
        -14    1    6    6    0    0  0.40437027620E+02 -0.44753011719E+02 -0.23863544834E+03  0.24613992456E+03  0.00000000000E+00 0.  1.
</event>
<event>
12    1  0.8417180E-002  0.2032940E+03  0.7818608E-02  0.1150568E+00
         21   -1    0    0  503  502  0.00000000000E+00  0.00000000000E+00  0.11533311579E+03  0.11533311579E+03  0.00000000000E+00 0. -1.
         21   -1    0    0  501  503 -0.00000000000E+00 -0.00000000000E+00 -0.34920774962E+03  0.34920774962E+03  0.00000000000E+00 0. -1.
          6    2    1    2  501    0 -0.31587395335E+02  0.63482220703E+02 -0.17642175078E+03  0.26917112269E+03  0.19052743439E+03 0.  0.
         24    2    3    3    0    0 -0.29204467823E+02 -0.21179693961E+02 -0.18244807478E+02  0.89684762404E+02  0.80056250414E+02 0.  0.
         -6    2    1    2    0  502  0.31587395335E+02 -0.63482220703E+02 -0.57452883051E+02  0.19536974272E+03  0.17274474437E+03 0.  0.
        -24    2    5    5    0    0 -0.88184966025E+01 -0.97572892532E+02 -0.13169105327E+02  0.12624700421E+03  0.78527991809E+02 0.  0.
          5    1    3    3  501    0 -0.23829275118E+01  0.84661914664E+02 -0.15817694330E+03  0.17948636029E+03  0.47000000000E+01 0. -1.
        -11    1    4    4    0    0 -0.36991907204E+02  0.19883474275E+02  0.42657574800E+01  0.42213154759E+02  0.00000000000E+00 0.  1.
         12    1    4    4    0    0  0.77874393809E+01 -0.41063168235E+02 -0.22510564958E+02  0.47471607644E+02  0.00000000000E+00 0. -1.
         -5    1    5    5    0  502  0.40405891938E+02  0.34090671828E+02 -0.44283777724E+02  0.69122738505E+02  0.47000000000E+01 0.  1.
         13    1    6    6    0    0 -0.13068490481E+02 -0.84984721345E+02 -0.41111597795E+02  0.95306619805E+02  0.00000000000E+00 0. -1.
        -14    1    6    6    0    0  0.42499938782E+01 -0.12588171187E+02  0.27942492468E+02  0.30940384405E+02  0.00000000000E+00 0.  1.
</event>
<event>
12    1  0.8417180E-002  0.2820790E+03  0.7818608E-02  0.1096467E+00
         21   -1    0    0  501  502  0.00000000000E+00  0.00000000000E+00  0.83258407884E+03  0.83258407884E+03  0.00000000000E+00 0.  1.
         21   -1    0    0  502  503 -0.00000000000E+00 -0.00000000000E+00 -0.11656318247E+03  0.11656318247E+03  0.00000000000E+00 0. -1.
         -6    2    1    2    0  503  0.12896649171E+03 -0.15870718649E+03  0.14266323102E+03  0.31610342149E+03  0.19428908505E+03 0.  0.
        -24    2    3    3    0    0  0.12490664640E+03 -0.18704480650E+03  0.15567194207E+03  0.28431003201E+03  0.77530708763E+02 0.  0.
          6    2    1    2  501    0 -0.12896649171E+03  0.15870718649E+03  0.57335766534E+03  0.63304383981E+03  0.17373878005E+03 0.  0.
         24    2    5    5    0    0 -0.58252022847E+02  0.16885014857E+03  0.38472119552E+03  0.43127857141E+03  0.78020106625E+02 0.  0.
          5    1    5    5  501    0 -0.70714468862E+02 -0.10142962085E+02  0.18863646983E+03  0.20176526841E+03  0.47000000000E+01 0. -1.
        -13    1    6    6    0    0 -0.31067980421E+02  0.56604939954E+02  0.22563118776E+03  0.23468866936E+03  0.00000000000E+00 0.  1.
         14    1    6    6    0    0 -0.27184042427E+02  0.11224520862E+03  0.15909000775E+03  0.19658990205E+03  0.00000000000E+00 0. -1.
         -5    1    3    3    0  503  0.40598453130E+01  0.28337620011E+02 -0.13008711050E+02  0.31793389486E+02  0.47000000000E+01 0.  1.
         11    1    4    4    0    0  0.89631595743E+02 -0.17617182983E+03  0.14716351658E+03  0.24642937567E+03  0.00000000000E+00 0. -1.
        -12    1    4    4    0    0  0.35275050654E+02 -0.10872976663E+02  0.85084254919E+01  0.37880656337E+02  0.00000000000E+00 0.  1.
</event>
<event>
12    1  0.8417180E-002  0.2016254E+03  0.7818608E-02  0.1148681E+00
         21   -1    0    0  503  502  0.00000000000E+00  0.00000000000E+00  0.22765084810E+04  0.22765084810E+04  0.00000000000E+00 0. -1.
         21   -1    0    0  501  503 -0.00000000000E+00 -0.00000000000E+00 -0.26189737731E+02  0.26189737731E+02  0.00000000000E+00 0. -1.
          6    2    1    2  501    0  0.81164152402E+02 -0.63068976843E+02  0.46797608378E+03  0.50898749016E+03  0.17175952572E+03 0.  0.
         24    2    3    3    0    0  0.12169015110E+03 -0.36278748737E+02  0.32160303533E+03  0.35469156602E+03  0.79075623244E+02 0.  0.
         -6    2    1    2    0  502 -0.81164152402E+02  0.63068976843E+02  0.17823426595E+04  0.17937107286E+04  0.17345750625E+03 0.  0.
        -24    2    5    5    0    0 -0.12077068283E+03  0.31359318594E+02  0.11981436018E+04  0.12072938047E+04  0.80257557072E+02 0.  0.
          5    1    3    3  501    0 -0.40525998697E+02 -0.26790228107E+02  0.14637304845E+03  0.15429592414E+03  0.47000000000E+01 0. -1.
        -11    1    4    4    0    0  0.93679401215E+02  0.97580260629E+01  0.22793724175E+03  0.24663015927E+03  0.00000000000E+00 0.  1.
         12    1    4    4    0    0  0.28010749885E+02 -0.46036774799E+02  0.93665793573E+02  0.10806140675E+03  0.00000000000E+00 0. -1.
         -5    1    5    5    0  502  0.39606530431E+02  0.31709658250E+02  0.58419905767E+03  0.58641692392E+03  0.47000000000E+01 0.  1.
         11    1    6    6    0    0 -0.35110479748E+02  0.26483348760E+02  0.73199533161E+03  0.73331526579E+03  0.00000000000E+00 0. -1.
        -12    1    6    6    0    0 -0.85660203085E+02  0.48759698338E+01  0.46614827024E+03  0.47397853888E+03  0.00000000000E+00 0.  1.
</event>
<event>
12    1  0.8417180E-002  0.2468789E+03  0.7818608E-02  0.1115383E+00
         21   -1    0    0  503  502  0.00000000000E+00  0.00000000000E+00  0.79504880187E+03  0.79504880187E+03  0.00000000000E+00 0.  1.
         21   -1    0    0  501  503 -0.00000000000E+00 -0.00000000000E+00 -0.12503982445E+03  0.12503982445E+03  0.00000000000E+00 0. -1.
          6    2    1    2  501    0  0.16810075060E+03  0.56314190887E+02  0.48569005194E+02  0.25161110319E+03  0.17181399401E+03 0.  0.
         24    2    3    3    0    0  0.48816328254E+02 -0.16339640979E+02 -0.15611365903E+02  0.97830211229E+02  0.81713020457E+02 0.  0.
         -6    2    1    2    0  502 -0.16810075060E+03 -0.56314190887E+02  0.62143997222E+03  0.66847752313E+03  0.17101289251E+03 0.  0.
        -24    2    5    5    0    0 -0.17468933616E+03 -0.25146750904E+02  0.39740426988E+03  0.44213949120E+03  0.80052811982E+02 0.  0.
          5    1    3    3  501    0  0.11928442234E+03  0.72653831866E+02  0.64180371097E+02  0.15378089196E+03  0.47000000000E+01 0. -1.
        -13    1    4    4    0    0 -0.78497256904E+01  0.12899933549E+02 -0.28980460784E+02  0.32678641132E+02  0.00000000000E+00 0.  1.
         14    1    4    4    0    0  0.56666053945E+02 -0.29239574528E+02  0.13369094881E+02  0.65151570098E+02  0.00000000000E+00 0. -1.
         -5    1    5    5    0  502  0.65885855665E+01 -0.31167439983E+02  0.22403570234E+03  0.22633803193E+03  0.47000000000E+01 0.  1.
         11    1    6    6    0    0 -0.23082789107E+02 -0.26859031570E+02  0.37379691384E+02  0.51492368928E+02  0.00000000000E+00 0. -1.
        -12    1    6    6    0    0 -0.15160654706E+03  0.17122806664E+01  0.36002457850E+03  0.39064712227E+03  0.00000000000E+00 0.  1.
</event>
<event>
12    1  0.8417180E-002  0.1933377E+03  0.7818608E-02  0.1155922E+00
         21   -1    0    0  501  502  0.00000000000E+00  0.00000000000E+00  0.21448865226E+04  0.21448865226E+04  0.00000000000E+00 0.  1.
         21   -1    0    0  502  503 -0.00000000000E+00 -0.00000000000E+00 -0.17716985565E+02  0.17716985565E+02  0.00000000000E+00 0.  1.
         -6    2    1    2    0  503 -0.23468582038E+02 -0.76508128880E+02  0.89333172676E+03  0.91401370240E+03  0.17599774434E+03 0.  0.
        -24    2    3    3    0    0 -0.40808219129E+02 -0.30138242756E+02  0.81942844183E+03  0.82493724717E+03  0.80528666059E+02 0.  0.
          6    2    1    2  501    0  0.23468582038E+02  0.76508128880E+02  0.12338378102E+04  0.12485898057E+04  0.17382891839E+03 0.  0.
         24    2    5    5    0    0  0.20338570001E+02  0.11449105059E+03  0.74360175239E+03  0.75685208933E+03  0.79747481875E+02 0.  0.
          5    1    5    5  501    0  0.31300120361E+01 -0.37982921712E+02  0.49023605784E+03  0.49173771640E+03  0.47000000000E+01 0. -1.
        -11    1    6    6    0    0  0.19750875916E+02  0.10134636475E+03  0.73219138789E+03  0.73943587366E+03  0.00000000000E+00 0.  1.
         12    1    6    6    0    0  0.58769408562E+00  0.13144685846E+02  0.11410364501E+02  0.17416215674E+02  0.00000000000E+00 0. -1.
         -5    1    3    3    0  503  0.17339637091E+02 -0.46369886124E+02  0.73903284931E+02  0.89076455234E+02  0.47000000000E+01 0.  1.
         11    1    4    4    0    0 -0.53012105423E+02 -0.48989390736E+02  0.58524055096E+03  0.58967511921E+03  0.00000000000E+00 0. -1.
        -12    1    4    4    0    0  0.12203886295E+02  0.18851147980E+02  0.23418789087E+03  0.23526212796E+03  0.00000000000E+00 0.  1.
</event>
<event>
12    1  0.8417180E-002  0.1994459E+03  0.7818608E-02  0.1150530E+00
         21   -1    0    0  503  502  0.00000000000E+00  0.00000000000E+00  0.12964298357E+03  0.12964298357E+03  0.00000000000E+00 0.  1.
         21   -1    0    0  501  503 -0.00000000000E+00 -0.00000000000E+00 -0.41331792240E+03  0.41331792240E+03  0.00000000000E+00 0.  1.
          6    2    1    2  501    0  0.81906163667E+02  0.59960800627E+02 -0.28073554071E+03  0.34349332888E+03  0.16991558465E+03 0.  0.
         24    2    3    3    0    0  0.27487621233E+01 -0.14022894176E+02 -0.15216777575E+03  0.17529332441E+03  0.85840085932E+02 0.  0.
         -6    2    1    2    0  502 -0.81906163667E+02 -0.59960800627E+02 -0.29393981253E+01  0.19946757709E+03  0.17168213941E+03 0.  0.
        -24    2    5    5    0    0 -0.17983545979E+02 -0.69368373096E+02 -0.50799521882E+02  0.11892389380E+03  0.80168085806E+02 0.  0.
          5    1    3    3  501    0  0.79157401543E+02  0.73983694803E+02 -0.12856776497E+03  0.16820000447E+03  0.47000000000E+01 0. -1.
        -13    1    4    4    0    0 -0.16784662855E+02  0.11786336095E+02 -0.13874509281E+03  0.14025278395E+03  0.00000000000E+00 0.  1.
         14    1    4    4    0    0  0.19533424979E+02 -0.25809230271E+02 -0.13422682931E+02  0.35040540459E+02  0.00000000000E+00 0. -1.
         -5    1    5    5    0  502 -0.63922617688E+02  0.94075724686E+01  0.47860123756E+02  0.80543683289E+02  0.47000000000E+01 0.  1.
         11    1    6    6    0    0  0.27995118993E+02 -0.29182138743E+02 -0.40058659626E+02  0.56921174619E+02  0.00000000000E+00 0. -1.
        -12    1    6    6    0    0 -0.45978664972E+02 -0.40186234353E+02 -0.10740862256E+02  0.62002719183E+02  0.00000000000E+00 0.  1.
</event>
<event>
12    1  0.8417180E-002  0.2262515E+03  0.7818608E-02  0.1130038E+00
         21   -1    0    0  503  502  0.00000000000E+00  0.00000000000E+00  0.30456627897E+03  0.30456627897E+03  0.00000000000E+00 0. -1.
         21   -1    0    0  501  503 -0.00000000000E+00 -0.00000000000E+00 -0.23157424717E+03  0.23157424717E+03  0.00000000000E+00 0. -1.
          6    2    1    2  501    0  0.12713071476E+03  0.61056130364E+02 -0.10736527571E+03  0.24679904490E+03  0.17173350414E+03 0.  0.
         24    2    3    3    0    0  0.57862210629E+02  0.14093194415E+02 -0.12711494432E+03  0.16068410759E+03  0.78195395092E+02 0.  0.
         -6    2    1    2    0  502 -0.12713071476E+03 -0.61056130364E+02  0.18035730751E+03  0.28934148123E+03  0.17691711250E+03 0.  0.
        -24    2    5    5    0    0 -0.59589149108E+02  0.21642976538E+01  0.16284512211E+02  0.10092529889E+03  0.79782076575E+02 0.  0.
          5    1    3    3  501    0  0.69268504135E+02  0.46962935949E+02  0.19749668615E+02  0.86114937313E+02  0.47000000000E+01 0. -1.
        -11    1    4    4    0    0 -0.22594956139E+01 -0.23666663095E+02 -0.52807428219E+02  0.57912353929E+02  0.00000000000E+00 0.  1.
         12    1    4    4    0    0  0.60121706242E+02  0.37759857510E+02 -0.74307516105E+02  0.10277175366E+03  0.00000000000E+00 0. -1.
         -5    1    5    5    0  502 -0.67541565655E+02 -0.63220428018E+02  0.16407279530E+03  0.18841618234E+03  0.47000000000E+01 0.  1.
         11    1    6    6    0    0 -0.32412448070E+02  0.25432749960E+02  0.40461389512E+02  0.57745264755E+02  0.00000000000E+00 0. -1.
        -12    1    6    6    0    0 -0.27176701039E+02 -0.23268452306E+02 -0.24176877301E+02  0.43180034137E+02  0.00000000000E+00 0.  1.
</event>
<event>
12    1  0.8417180E-002  0.2334490E+03  0.7818608E-02  0.1124299E+00
         21   -1    0    0  503  502  0.00000000000E+00  0.00000000000E+00  0.21339800078E+03  0.21339800078E+03  0.00000000000E+00 0.  1.
         21   -1    0    0  501  503 -0.00000000000E+00 -0.00000000000E+00 -0.38544852496E+03  0.38544852496E+03  0.00000000000E+00 0. -1.
          6    2    1    2  501    0  0.23726792832E+02 -0.15682643211E+03 -0.26027305708E+03  0.34962905573E+03  0.17129192002E+03 0.  0.
         24    2    3    3    0    0  0.14628834581E+01 -0.11496620337E+03 -0.26682959668E+03  0.30153499558E+03  0.80659481460E+02 0.  0.
         -6    2    1    2    0  502 -0.23726792832E+02  0.15682643211E+03  0.88222532904E+02  0.24921747001E+03  0.17078829451E+03 0.  0.
        -24    2    5    5    0    0 -0.77526623835E+02  0.82012373725E+02  0.70896865017E+02  0.15533544876E+03  0.79789280760E+02 0.  0.
          5    1    3    3  501    0  0.22263909374E+02 -0.41860228732E+02  0.65565395986E+01  0.48094060149E+02  0.47000000000E+01 0. -1.
        -11    1    4    4    0    0  0.29033653180E+01 -0.72794749696E+02 -0.72880704526E+02  0.10304902816E+03  0.00000000000E+00 0.  1.
         12    1    4    4    0    0 -0.14404818599E+01 -0.42171453678E+02 -0.19394889216E+03  0.19848596742E+03  0.00000000000E+00 0. -1.
         -5    1    5    5    0  502  0.53799831003E+02  0.74814058382E+02  0.17325667887E+02  0.93882021256E+02  0.47000000000E+01 0.  1.
         11    1    6    6    0    0 -0.38342198364E+01  0.54358970071E+02  0.90642673766E+01  0.55242735378E+02  0.00000000000E+00 0. -1.
        -12    1    6    6    0    0 -0.73692403999E+02  0.27653403654E+02  0.61832597640E+02  0.10009271338E+03  0.00000000000E+00 0.  1.
</event>
<event>
12    1  0.8417180E-002  0.1741519E+03  0.7818608E-02  0.1174004E+00
         21   -1    0    0  503  502  0.00000000000E+00  0.00000000000E+00  0.17113179067E+03  0.17113179067E+03  0.00000000000E+00 0.  1.
         21   -1    0    0  501  503 -0.00000000000E+00 -0.00000000000E+00 -0.66144399950E+03  0.66144399950E+03  0.00000000000E+00 0.  1.
          6    2    1    2  501    0  0.76761056384E+00  0.23332671025E+01 -0.60225792642E+03  0.62693181976E+03  0.17413461269E+03 0.  0.
         24    2    3    3    0    0  0.49181918798E+02  0.36611852006E+02 -0.48771104136E+03  0.49785027383E+03  0.78952811480E+02 0.  0.
         -6    2    1    2    0  502 -0.76761056384E+00 -0.23332671025E+01  0.11194571759E+03  0.20564397040E+03  0.17248642125E+03 0.  0.
        -24    2    5    5    0    0 -0.51042600747E+02  0.42398519763E+02  0.54683034203E+02  0.11715887390E+03  0.79580059906E+02 0.  0.
          5    1    3    3  501    0 -0.48414308234E+02 -0.34278584904E+02 -0.11454688506E+03  0.12908154593E+03  0.47000000000E+01 0. -1.
        -13    1    4    4    0    0  0.68576789527E+02  0.13696453381E+02 -0.33770532052E+03  0.34486990650E+03  0.00000000000E+00 0.  1.
         14    1    4    4    0    0 -0.19394870729E+02  0.22915398625E+02 -0.15000572084E+03  0.15298036733E+03  0.00000000000E+00 0. -1.
         -5    1    5    5    0  502  0.50274990184E+02 -0.44731786865E+02  0.57262683389E+02  0.88485096502E+02  0.47000000000E+01 0.  1.
         13    1    6    6    0    0 -0.58798056434E+02  0.11934717714E+01  0.45194915064E+02  0.74170183786E+02  0.00000000000E+00 0. -1.
        -14    1    6    6    0    0  0.77554556865E+01  0.41205047991E+02  0.94881191396E+01  0.42988690114E+02  0.00000000000E+00 0.  1.
</event>
<event>
12    1  0.8417180E-002  0.1845627E+03  0.7818608E-02  0.1163611E+00
         21   -1    0    0  503  502  0.00000000000E+00  0.00000000000E+00  0.34879692964E+03  0.34879692964E+03  0.00000000000E+00 0.  1.
         21   -1    0    0  501  503 -0.00000000000E+00 -0.00000000000E+00 -0.11310434566E+03  0.11310434566E+03  0.00000000000E+00 0.  1.
          6    2    1    2  501    0  0.63981905369E+02  0.56655352461E+01  0.20431274597E+03  0.27533084793E+03  0.17302483969E+03 0.  0.
         24    2    3    3    0    0  0.93186093366E+02  0.56013726246E+01  0.21232994632E+03  0.24468359332E+03  0.77916823383E+02 0.  0.
         -6    2    1    2    0  502 -0.63981905369E+02 -0.56655352461E+01  0.31379838008E+02  0.18657042737E+03  0.17233121491E+03 0.  0.
        -24    2    5    5    0    0 -0.54622768901E+02 -0.69506533125E+01  0.86537464179E+02  0.13041262570E+03  0.80540435632E+02 0.  0.
          5    1    3    3  501    0 -0.29204187997E+02  0.64162621476E-01 -0.80172003465E+01  0.30647254605E+02  0.47000000000E+01 0. -1.
        -13    1    4    4    0    0  0.51394894348E+02 -0.32391440264E+02  0.14223446715E+03  0.15466507109E+03  0.00000000000E+00 0.  1.
         14    1    4    4    0    0  0.41791199019E+02  0.37992812889E+02  0.70095479164E+02  0.90018522238E+02  0.00000000000E+00 0. -1.
         -5    1    5    5    0  502 -0.93591364680E+01  0.12851180665E+01 -0.55157626171E+02  0.56157801672E+02  0.47000000000E+01 0.  1.
         13    1    6    6    0    0  0.16089928862E+02  0.81190866899E+01  0.41467822508E+02  0.45214883424E+02  0.00000000000E+00 0. -1.
        -14    1    6    6    0    0 -0.70712697764E+02 -0.15069740002E+02  0.45069641671E+02  0.85197742277E+02  0.00000000000E+00 0.  1.
</event>
<event>
12    1  0.8417180E-002  0.3007080E+03  0.7818608E-02  0.1084967E+00
         21   -1    0    0  501  502  0.00000000000E+00  0.00000000000E+00  0.26100405896E+03  0.26100405896E+03  0.00000000000E+00 0. -1.
         21   -1    0    0  502  503 -0.00000000000E+00 -0.00000000000E+00 -0.84909888280E+03  0.84909888280E+03  0.00000000000E+00 0.  1.
         -6    2    1    2    0  503 -0.24134645784E+03 -0.48761588147E+02 -0.72154607973E+03  0.78169946231E+03  0.17262531396E+03 0.  0.
        -24    2    3    3    0    0 -0.11281640263E+03  0.29575331567E+02 -0.44555148678E+03  0.46729247540E+03  0.79018284300E+02 0.  0.
          6    2    1    2  501    0  0.24134645784E+03  0.48761588147E+02  0.13345125588E+03  0.32840347944E+03  0.17150452595E+03 0.  0.
         24    2    5    5    0    0  0.21038385673E+03  0.19130511975E+02  0.16051281783E+03  0.27750061629E+03  0.81331935244E+02 0.  0.
          5    1    5    5  501    0  0.30962601109E+02  0.29631076172E+02 -0.27061561944E+02  0.50902863156E+02  0.47000000000E+01 0. -1.
        -13    1    6    6    0    0  0.16674500668E+03  0.12707485109E+02  0.79290232247E+02  0.18507381867E+03  0.00000000000E+00 0.  1.
         14    1    6    6    0    0  0.43638850058E+02  0.64230268653E+01  0.81222585582E+02  0.92426797614E+02  0.00000000000E+00 0. -1.
         -5    1    3    3    0  503 -0.12853005522E+03 -0.78336919714E+02 -0.27599459295E+03  0.31440698691E+03  0.47000000000E+01 0.  1.
         11    1    4    4    0    0 -0.10946187640E+03  0.46931752268E+02 -0.33965325895E+03  0.35992892086E+03  0.00000000000E+00 0. -1.
        -12    1    4    4    0    0 -0.33545262258E+01 -0.17356420701E+02 -0.10589822783E+03  0.10736355454E+03  0.00000000000E+00 0.  1.
</event>
<event>
12    1  0.8417180E-002  0.1723365E+03  0.7818608E-02  0.1175924E+00
         21   -1    0    0  503  502  0.00000000000E+00  0.00000000000E+00  0.14140056694E+03  0.14140056694E+03  0.00000000000E+00 0.  1.
         21   -1    0    0  501  503 -0.00000000000E+00 -0.00000000000E+00 -0.21400894114E+03  0.21400894114E+03  0.00000000000E+00 0.  1.
          6    2    1    2  501    0 -0.19893529587E+02 -0.70747789237E+01 -0.56587051017E+01  0.17052540870E+03  0.16911856507E+03 0.  0.
         24    2    3    3    0    0 -0.54823906754E+02  0.44585146905E+02 -0.12238897246E+02  0.10764243712E+03  0.80272084732E+02 0.  0.
         -6    2    1    2    0  502  0.19893529587E+02  0.70747789237E+01 -0.66949669098E+02  0.18488409939E+03  0.17103820333E+03 0.  0.
        -24    2    5    5    0    0 -0.50700612656E+01  0.20335399470E+02 -0.10732864638E+03  0.13537069987E+03  0.79790689049E+02 0.  0.
          5    1    3    3  501    0  0.34930377168E+02 -0.51659925829E+02  0.65801921439E+01  0.62882971577E+02  0.47000000000E+01 0. -1.
        -13    1    4    4    0    0 -0.18270893009E+02  0.18777027598E+02  0.34247699772E+02  0.43119685023E+02  0.00000000000E+00 0.  1.
         14    1    4    4    0    0 -0.36553013745E+02  0.25808119307E+02 -0.46486597018E+02  0.64522752098E+02  0.00000000000E+00 0. -1.
         -5    1    5    5    0  502  0.24963590852E+02 -0.13260620546E+02  0.40378977277E+02  0.49513399514E+02  0.47000000000E+01 0.  1.
         13    1    6    6    0    0 -0.33264019963E+02  0.31931595607E+02 -0.87786097724E+02  0.99159068046E+02  0.00000000000E+00 0. -1.
        -14    1    6    6    0    0  0.28193958698E+02 -0.11596196137E+02 -0.19542548652E+02  0.36211631829E+02  0.00000000000E+00 0.  1.
</event>
<event>
12    1  0.8417180E-002  0.1945647E+03  0.7818608E-02  0.1154436E+00
         21   -1    0    0  503  502  0.00000000000E+00  0.00000000000E+00  0.13963119503E+03  0.13963119503E+03  0.00000000000E+00 0. -1.
         21   -1    0    0  501  503 -0.00000000000E+00 -0.00000000000E+00 -0.45090196714E+03  0.45090196714E+03  0.00000000000E+00 0.  1.
          6    2    1    2  501    0  0.89910034981E+02  0.99052117210E+01 -0.34221033310E+03  0.39365380630E+03  0.17225991851E+03 0.  0.
         24    2    3    3    0    0  0.70459785601E+02 -0.24195893518E+02 -0.99878761593E+02  0.14811790642E+03  0.80081986336E+02 0.  0.
         -6    2    1    2    0  502 -0.89910034981E+02 -0.99052117210E+01  0.30939560985E+02  0.19687935587E+03  0.17211129168E+03 0.  0.
        -24    2    5    5    0    0 -0.10382489157E+03 -0.33655633310E+02 -0.21714847648E+02  0.13727832813E+03  0.80383424922E+02 0.  0.
          5    1    3    3  501    0  0.19450249379E+02  0.34101105239E+02 -0.24233157150E+03  0.24553589987E+03  0.47000000000E+01 0. -1.
        -11    1    4    4    0    0 -0.97128416233E+01 -0.21833626403E+02 -0.59940672772E+01  0.24636870272E+02  0.00000000000E+00 0.  1.
         12    1    4    4    0    0  0.80172627224E+02 -0.23622671152E+01 -0.93884694316E+02  0.12348103615E+03  0.00000000000E+00 0. -1.
         -5    1    5    5    0  502  0.13914856590E+02  0.23750421589E+02  0.52654408633E+02  0.59601027743E+02  0.47000000000E+01 0.  1.
         11    1    6    6    0    0  0.40122204804E+01  0.10572959807E+02  0.11453940826E+02  0.16095904843E+02  0.00000000000E+00 0. -1.
        -12    1    6    6    0    0 -0.10783711205E+03 -0.44228593117E+02 -0.33168788474E+02  0.12118242329E+03  0.00000000000E+00 0.  1.
</event>
<event>
12    1  0.8417180E-002  0.1992780E+03  0.7818608E-02  0.1150382E+00
         21   -1    0    0  501  502  0.00000000000E+00  0.00000000000E+00  0.44975718118E+03  0.44975718118E+03  0.00000000000E+00 0. -1.
         21   -1    0    0  502  503 -0.00000000000E+00 -0.00000000000E+00 -0.98798705194E+02  0.98798705194E+02  0.00000000000E+00 0. -1.
         -6    2    1    2    0  503 -0.16349575797E+02  0.98875659323E+02  0.85825699348E+02  0.21697408909E+03  0.17224401306E+03 0.  0.
        -24    2    3    3    0    0 -0.72206477184E+00  0.84409074911E+01  0.95421654108E+02  0.12457909038E+03  0.79642246262E+02 0.  0.
          6    2    1    2  501    0  0.16349575797E+02 -0.98875659323E+02  0.26513277663E+03  0.33158179728E+03  0.17206799355E+03 0.  0.
         24    2    5    5    0    0  0.20309989522E+02  0.68918835450E+01  0.17128648590E+03  0.19004849983E+03  0.79494517444E+02 0.  0.
          5    1    5    5  501    0 -0.39604137246E+01 -0.10576754287E+03  0.93846290736E+02  0.14153329745E+03  0.47000000000E+01 0. -1.
        -11    1    6    6    0    0  0.28709732202E+02 -0.11416534486E+02  0.18650625099E+02  0.36089219989E+02  0.00000000000E+00 0.  1.
         12    1    6    6    0    0 -0.83997426805E+01  0.18308418032E+02  0.15263586080E+03  0.15395927984E+03  0.00000000000E+00 0. -1.
         -5    1    3    3    0  503 -0.15627511025E+02  0.90434751832E+02 -0.95959547608E+01  0.92394998715E+02  0.47000000000E+01 0.  1.
         11    1    4    4    0    0  0.31846343909E+02  0.19461251557E+02  0.21547035638E+02  0.43095297624E+02  0.00000000000E+00 0. -1.
        -12    1    4    4    0    0 -0.32568408681E+02 -0.11020344066E+02  0.73874618471E+02  0.81483792753E+02  0.00000000000E+00 0.  1.
</event>
<event>
12    1  0.8417180E-002  0.2115010E+03  0.7818608E-02  0.1140501E+00
         21   -1    0    0  501  502  0.00000000000E+00  0.00000000000E+00  0.26465861903E+03  0.26465861903E+03  0.00000000000E+00 0. -1.
         21   -1    0    0  502  503 -0.00000000000E+00 -0.00000000000E+00 -0.10137487946E+04  0.10137487946E+04  0.00000000000E+00 0.  1.
         -6    2    1    2    0  503  0.95318846358E+02 -0.77682181082E+02 -0.95828763959E+03  0.98135002288E+03  0.17208272277E+03 0.  0.
        -24    2    3    3    0    0  0.32898609052E+02 -0.77006690477E+02 -0.34674808824E+03  0.36661475044E+03  0.84615540444E+02 0.  0.
          6    2    1    2  501    0 -0.95318846358E+02  0.77682181082E+02  0.20919746400E+03  0.29705739078E+03  0.17134558864E+03 0.  0.
         24    2    5    5    0    0 -0.87789019855E+01  0.56436055320E+02  0.45294042555E+02  0.11043750601E+03  0.82962611956E+02 0.  0.
          5    1    5    5  501    0 -0.86539944373E+02  0.21246125762E+02  0.16390342144E+03  0.18661988477E+03  0.47000000000E+01 0. -1.
        -11    1    6    6    0    0 -0.15016185560E+02 -0.82141469597E+01 -0.14289633286E+02  0.22296897957E+02  0.00000000000E+00 0.  1.
         12    1    6    6    0    0  0.62372835744E+01  0.64650202280E+02  0.59583675841E+02  0.88140608053E+02  0.00000000000E+00 0. -1.
         -5    1    3    3    0  503  0.62420237307E+02 -0.67549060505E+00 -0.61153955135E+03  0.61473527244E+03  0.47000000000E+01 0.  1.
         13    1    4    4    0    0  0.49854172412E+02 -0.31861377209E+02 -0.10897463047E+03  0.12400022561E+03  0.00000000000E+00 0. -1.
        -14    1    4    4    0    0 -0.16955563360E+02 -0.45145313268E+02 -0.23777345777E+03  0.24261452483E+03  0.00000000000E+00 0.  1.
</event>
<event>
12    1  0.8417180E-002  0.1970068E+03  0.7818608E-02  0.1152650E+00
         21   -1    0    0  503  502  0.00000000000E+00  0.00000000000E+00  0.15296521228E+03  0.15296521228E+03  0.00000000000E+00 0. -1.
         21   -1    0    0  501  503 -0.00000000000E+00 -0.00000000000E+00 -0.28522221991E+03  0.28522221991E+03  0.00000000000E+00 0. -1.
          6    2    1    2  501    0  0.91847005584E+02 -0.31813069931E+02 -0.14112018002E+03  0.24098134087E+03  0.16943776906E+03 0.  0.
         24    2    3    3    0    0  0.64607767360E+02  0.20431207976E+02 -0.19011894601E+02  0.10532013034E+03  0.78353556758E+02 0.  0.
         -6    2    1    2    0  502 -0.91847005584E+02  0.31813069931E+02  0.88631723989E+01  0.19720609132E+03  0.17135852116E+03 0.  0.
        -24    2    5    5    0    0  0.14667766340E+02  0.18770753996E+02 -0.19390728708E+02  0.86139122464E+02  0.80476477831E+02 0.  0.
          5    1    3    3  501    0  0.27239238224E+02 -0.52244277907E+02 -0.12210828542E+03  0.13566121053E+03  0.47000000000E+01 0. -1.
        -11    1    4    4    0    0  0.16105869892E+02 -0.14890653902E+02 -0.36709900596E+02  0.42763856472E+02  0.00000000000E+00 0.  1.
         12    1    4    4    0    0  0.48501897468E+02  0.35321861877E+02  0.17698005995E+02  0.62556273871E+02  0.00000000000E+00 0. -1.
         -5    1    5    5    0  502 -0.10651477192E+03  0.13042315935E+02  0.28253901107E+02  0.11106696886E+03  0.47000000000E+01 0.  1.
         13    1    6    6    0    0 -0.33471541737E+02  0.10348472777E+02 -0.71042952549E+01  0.35747811208E+02  0.00000000000E+00 0. -1.
        -14    1    6    6    0    0  0.48139308077E+02  0.84222812194E+01 -0.12286433454E+02  0.50391311256E+02  0.00000000000E+00 0.  1.
</event>
<event>
12    1  0.8417180E-002  0.2791438E+03  0.7818608E-02  0.1096837E+00
         21   -1    0    0  503  502  0.00000000000E+00  0.00000000000E+00  0.59969753371E+03  0.59969753371E+03  0.00000000000E+00 0.  1.
         21   -1    0    0  501  503 -0.00000000000E+00 -0.00000000000E+00 -0.16991524743E+03  0.16991524743E+03  0.00000000000E+00 0.  1.
          6    2    1    2  501    0  0.10372206006E+03  0.19404896337E+03  0.40535449604E+03  0.48940222093E+03  0.16367345681E+03 0.  0.
         24    2    3    3    0    0  0.50963890592E+02  0.14460731417E+03  0.36885512125E+03  0.40827149012E+03  0.84397367954E+02 0.  0.
         -6    2    1    2    0  502 -0.10372206006E+03 -0.19404896337E+03  0.24427790249E+02  0.28021056021E+03  0.17177885547E+03 0.  0.
        -24    2    5    5    0    0  0.12528103594E+02 -0.77948476792E+02 -0.79505772291E+01  0.11268780887E+03  0.80015074683E+02 0.  0.
          5    1    3    3  501    0  0.52758169467E+02  0.49441649208E+02  0.36499374786E+02  0.81130730809E+02  0.47000000000E+01 0. -1.
        -13    1    4    4    0    0  0.35122552948E+02  0.36255640556E+02  0.49641198758E+02  0.70797696373E+02  0.00000000000E+00 0.  1.
         14    1    4    4    0    0  0.15841337645E+02  0.10835167361E+03  0.31921392249E+03  0.33747379375E+03  0.00000000000E+00 0. -1.
         -5    1    5    5    0  502 -0.11625016365E+03 -0.11610048658E+03  0.32378367478E+02  0.16752275133E+03  0.47000000000E+01 0.  1.
         13    1    6    6    0    0  0.20846932447E+02 -0.73858424263E+01 -0.30920266932E+02  0.38015893623E+02  0.00000000000E+00 0. -1.
        -14    1    6    6    0    0 -0.83188288533E+01 -0.70562634366E+02  0.22969689703E+02  0.74671915250E+02  0.00000000000E+00 0.  1.
</event>
<event>
12    1  0.8417180E-002  0.2051469E+03  0.7818608E-02  0.1146302E+00
         21   -1    0    0  501  502  0.00000000000E+00  0.00000000000E+00  0.10954721387E+03  0.10954721387E+03  0.00000000000E+00 0.  1.
         21   -1    0    0  502  503 -0.00000000000E+00 -0.00000000000E+00 -0.40162909559E+03  0.40162909559E+03  0.00000000000E+00 0. -1.
         -6    2    1    2    0  503 -0.10989804193E+03  0.15917115371E+02 -0.83654729875E+02  0.22154767517E+03  0.17249441835E+03 0.  0.
        -24    2    3    3    0    0 -0.13663042914E+03  0.10256891395E+01 -0.31795512576E+02  0.16115029509E+03  0.79306599866E+02 0.  0.
          6    2    1    2  501    0  0.10989804193E+03 -0.15917115371E+02 -0.20842715185E+03  0.28962863429E+03  0.16766613848E+03 0.  0.
         24    2    5    5    0    0  0.13707336415E+03  0.65406272292E+01 -0.12849984133E+03  0.20214541701E+03  0.74287774434E+02 0.  0.
          5    1    5    5  501    0 -0.27175322223E+02 -0.22457742601E+02 -0.79927310514E+02  0.87483217286E+02  0.47000000000E+01 0. -1.
        -13    1    6    6    0    0  0.32085572845E+02  0.33753196320E+02 -0.28346459543E+02  0.54518657496E+02  0.00000000000E+00 0.  1.
         14    1    6    6    0    0  0.10498779131E+03 -0.27212569090E+02 -0.10015338179E+03  0.14762675951E+03  0.00000000000E+00 0. -1.
         -5    1    3    3    0  503  0.26732387216E+02  0.14891426232E+02 -0.51859217299E+02  0.60397380079E+02  0.47000000000E+01 0.  1.
         11    1    4    4    0    0 -0.50416145087E+02  0.73927666217E+01 -0.51538746090E+02  0.72475396048E+02  0.00000000000E+00 0. -1.
        -12    1    4    4    0    0 -0.86214284056E+02 -0.63670774822E+01  0.19743233514E+02  0.88674899044E+02  0.00000000000E+00 0.  1.
</event>
<event>
12    1  0.8417180E-002  0.1758997E+03  0.7818608E-02  0.1172087E+00
         21   -1    0    0  501  502  0.00000000000E+00  0.00000000000E+00  0.59578616447E+02  0.59578616447E+02  0.00000000000E+00 0. -1.
         21   -1    0    0  502  503 -0.00000000000E+00 -0.00000000000E+00 -0.13038002412E+04  0.13038002412E+04  0.00000000000E+00 0.  1.
         -6    2    1    2    0  503 -0.30533468206E+02 -0.10649401982E+02 -0.11526184958E+04  0.11659631620E+04  0.17290169430E+03 0.  0.
        -24    2    3    3    0    0  0.19630520083E+01  0.17595104904E+02 -0.26585096894E+03  0.27813856635E+03  0.79817812006E+02 0.  0.
          6    2    1    2  501    0  0.30533468206E+02  0.10649401982E+02 -0.91603128958E+02  0.19741569563E+03  0.17186076109E+03 0.  0.
         24    2    5    5    0    0 -0.43634244866E+02  0.29693417092E+02 -0.35180642347E+02  0.10218381457E+03  0.80113719308E+02 0.  0.
          5    1    5    5  501    0  0.74167713073E+02 -0.19044015110E+02 -0.56422486611E+02  0.95231881055E+02  0.47000000000E+01 0. -1.
        -13    1    6    6    0    0 -0.60129908419E+01  0.41356209389E+02  0.92559212259E+01  0.42803787118E+02  0.00000000000E+00 0.  1.
         14    1    6    6    0    0 -0.37621254025E+02 -0.11662792297E+02 -0.44436563573E+02  0.59380027456E+02  0.00000000000E+00 0. -1.
         -5    1    3    3    0  503 -0.32496520215E+02 -0.28244506886E+02 -0.88676752681E+03  0.88782459562E+03  0.47000000000E+01 0.  1.
         13    1    4    4    0    0 -0.31986671712E+02  0.31620087781E+02 -0.14160199245E+03  0.14857355547E+03  0.00000000000E+00 0. -1.
        -14    1    4    4    0    0  0.33949723720E+02 -0.14024982877E+02 -0.12424897649E+03  0.12956501088E+03  0.00000000000E+00 0.  1.
</event>
<event>
12    1  0.8417180E-002  0.2932719E+03  0.7818608E-02  0.1089062E+00
         21   -1    0    0  503  502  0.00000000000E+00  0.00000000000E+00  0.43555549358E+03  0.43555549358E+03  0.00000000000E+00 0. -1.
         21   -1    0    0  501  503 -0.00000000000E+00 -0.00000000000E+00 -0.28343910151E+03  0.28343910151E+03  0.00000000000E+00 0. -1.
          6    2    1    2  501    0 -0.21641640129E+03  0.95812141622E+02 -0.12464272085E+03  0.31575273381E+03  0.16777352539E+03 0.  0.
         24    2    3    3    0    0 -0.53087542038E+02  0.10224564578E+02 -0.27264922014E+02  0.10717163373E+03  0.88428243580E+02 0.  0.
         -6    2    1    2    0  502  0.21641640129E+03 -0.95812141622E+02  0.27675911291E+03  0.40324186128E+03  0.17318304444E+03 0.  0.
        -24    2    5    5    0    0  0.22381697366E+03 -0.11899484599E+03  0.23605885292E+03  0.35558887169E+03  0.80410525168E+02 0.  0.
          5    1    3    3  501    0 -0.16332885925E+03  0.85587577044E+02 -0.97377798832E+02  0.20858110008E+03  0.47000000000E+01 0. -1.
        -11    1    4    4    0    0 -0.20983493258E+01  0.31478921909E+02 -0.39538598343E+02  0.50582866204E+02  0.00000000000E+00 0.  1.
         12    1    4    4    0    0 -0.50989192712E+02 -0.21254357331E+02  0.12273676329E+02  0.56588767522E+02  0.00000000000E+00 0. -1.
         -5    1    5    5    0  502 -0.74005723785E+01  0.23182704364E+02  0.40700259996E+02  0.47652989590E+02  0.47000000000E+01 0.  1.
         13    1    6    6    0    0  0.40925604989E+02  0.32771809047E+00  0.11848768228E+02  0.42607579741E+02  0.00000000000E+00 0. -1.
        -14    1    6    6    0    0  0.18289136867E+03 -0.11932256408E+03  0.22421008469E+03  0.31298129195E+03  0.00000000000E+00 0.  1.
</event>
<event>
12    1  0.8417180E-002  0.2488588E+03  0.7818608E-02  0.1114557E+00
         21   -1    0    0  501  502  0.00000000000E+00  0.00000000000E+00  0.14665734716E+03  0.14665734716E+03  0.00000000000E+00 0.  1.
         21   -1    0    0  502  503 -0.00000000000E+00 -0.00000000000E+00 -0.86242596806E+03  0.86242596806E+03  0.00000000000E+00 0.  1.
         -6    2    1    2    0  503 -0.17990695044E+03 -0.51301487216E+01 -0.72175763674E+03  0.76345582146E+03  0.17186586596E+03 0.  0.
        -24    2    3    3    0    0 -0.13467028851E+02 -0.24019918076E+01 -0.27474090556E+03  0.28642779472E+03  0.79819709153E+02 0.  0.
          6    2    1    2  501    0  0.17990695044E+03  0.51301487216E+01  0.59890158356E+01  0.24562749376E+03  0.16704540741E+03 0.  0.
         24    2    5    5    0    0  0.15537911503E+03  0.61475395843E+02 -0.80771804662E+01  0.18241080719E+03  0.72708789375E+02 0.  0.
          5    1    5    5  501    0  0.24527835413E+02 -0.56345247122E+02  0.14066196302E+02  0.63216686576E+02  0.47000000000E+01 0. -1.
        -11    1    6    6    0    0  0.84337582135E+02  0.14392451562E+02  0.27771030612E+02  0.89951100958E+02  0.00000000000E+00 0.  1.
         12    1    6    6    0    0  0.71041532896E+02  0.47082944281E+02 -0.35848211078E+02  0.92459706229E+02  0.00000000000E+00 0. -1.
         -5    1    3    3    0  503 -0.16643992159E+03 -0.27281569140E+01 -0.44701673119E+03  0.47702802674E+03  0.47000000000E+01 0.  1.
         11    1    4    4    0    0  0.10055553767E+02 -0.29217886999E+02 -0.21212912052E+03  0.21436782140E+03  0.00000000000E+00 0. -1.
        -12    1    4    4    0    0 -0.23522582618E+02  0.26815895191E+02 -0.62611785039E+02  0.72059973311E+02  0.00000000000E+00 0.  1.
</event>
<event>
12    1  0.8417180E-002  0.1772700E+03  0.7818608E-02  0.1173426E+00
         21   -1    0    0  503  502  0.00000000000E+00  0.00000000000E+00  0.14366454678E+04  0.14366454678E+04  0.00000000000E+00 0. -1.
         21   -1    0    0  501  503 -0.00000000000E+00 -0.00000000000E+00 -0.22026369940E+02  0.22026369940E+02  0.00000000000E+00 0. -1.
          6    2    1    2  501    0 -0.37771981826E+02  0.12018496304E+02  0.92308076805E+03  0.93994826794E+03  0.17278158230E+03 0.  0.
         24    2    3    3    0    0 -0.13239424217E+02  0.21164106622E+02  0.90247447758E+03  0.90630012122E+03  0.79350647525E+02 0.  0.
         -6    2    1    2    0  502  0.37771981826E+02 -0.12018496304E+02  0.49153832976E+03  0.51872356976E+03  0.16091316084E+03 0.  0.
        -24    2    5    5    0    0  0.40038482291E+02  0.29239617852E+02  0.45092461059E+03  0.46059497788E+03  0.79728877460E+02 0.  0.
          5    1    3    3  501    0 -0.24532557609E+02 -0.91456103177E+01  0.20606290470E+02  0.33648146722E+02  0.47000000000E+01 0. -1.
        -11    1    4    4    0    0 -0.59799131367E+01 -0.25398329644E+02  0.55891242384E+03  0.55952116317E+03  0.00000000000E+00 0.  1.
         12    1    4    4    0    0 -0.72595110806E+01  0.46562436266E+02  0.34356205375E+03  0.34677895805E+03  0.00000000000E+00 0. -1.
         -5    1    5    5    0  502 -0.22665004654E+01 -0.41258114156E+02  0.40613719170E+02  0.58128591871E+02  0.47000000000E+01 0.  1.
         11    1    6    6    0    0  0.34120320720E+02 -0.20335393810E+02  0.13404413125E+03  0.13980541352E+03  0.00000000000E+00 0. -1.
        -12    1    6    6    0    0  0.59181615716E+01  0.49575011662E+02  0.31688047934E+03  0.32078956437E+03  0.00000000000E+00 0.  1.
</event>
<event>
12    1  0.8417180E-002  0.2135985E+03  0.7818608E-02  0.1139731E+00
         21   -1    0    0  503  502  0.00000000000E+00  0.00000000000E+00  0.22072428237E+03  0.22072428237E+03  0.00000000000E+00 0. -1.
         21   -1    0    0  501  503 -0.00000000000E+00 -0.00000000000E+00 -0.23331157122E+03  0.23331157122E+03  0.00000000000E+00 0.  1.
          6    2    1    2  501    0 -0.73758320312E+02 -0.96984213457E+02 -0.89547309044E+02  0.22699581927E+03  0.16929900749E+03 0.  0.
         24    2    3    3    0    0 -0.80845516796E+02 -0.10855182964E+03 -0.23182745207E+02  0.15909601492E+03  0.80340556287E+02 0.  0.
         -6    2    1    2    0  502  0.73758320312E+02  0.96984213457E+02  0.76960020194E+02  0.22704003432E+03  0.17543689749E+03 0.  0.
        -24    2    5    5    0    0  0.11227368382E+03  0.60547422890E+02  0.24548732096E+02  0.15233992688E+03  0.79582928931E+02 0.  0.
          5    1    3    3  501    0  0.70871964835E+01  0.11567616180E+02 -0.66364563837E+02  0.67899804354E+02  0.47000000000E+01 0. -1.
        -13    1    4    4    0    0 -0.79732957318E+01 -0.17485376255E+02 -0.36953707069E+02  0.41651990274E+02  0.00000000000E+00 0.  1.
         14    1    4    4    0    0 -0.72872221064E+02 -0.91066453382E+02  0.13770961862E+02  0.11744402465E+03  0.00000000000E+00 0. -1.
         -5    1    5    5    0  502 -0.38515363504E+02  0.36436790567E+02  0.52411288097E+02  0.74700107448E+02  0.47000000000E+01 0.  1.
         13    1    6    6    0    0  0.87159192120E+02  0.31587706545E+01  0.20330742547E+02  0.89554685503E+02  0.00000000000E+00 0. -1.
        -14    1    6    6    0    0  0.25114491696E+02  0.57388652235E+02  0.42179895496E+01  0.62785241374E+02  0.00000000000E+00 0.  1.
</event>
<event>
12    1  0.8417180E-002  0.1723882E+03  0.7818608E-02  0.1177727E+00
         21   -1    0    0  501  502  0.00000000000E+00  0.00000000000E+00  0.77530124263E+03  0.77530124263E+03  0.00000000000E+00 0. -1.
         21   -1    0    0  502  503 -0.00000000000E+00 -0.00000000000E+00 -0.48214039139E+02  0.48214039139E+02  0.00000000000E+00 0. -1.
         -6    2    1    2    0  503  0.15087411281E+02 -0.16290789544E+02  0.15228043432E+03  0.22341485273E+03  0.16196248313E+03 0.  0.
        -24    2    3    3    0    0  0.52768541649E+01 -0.31926931485E+02  0.17320397068E+03  0.19511961745E+03  0.83814530412E+02 0.  0.
          6    2    1    2  501    0 -0.15087411281E+02  0.16290789544E+02  0.57480676918E+03  0.60010042904E+03  0.17095228351E+03 0.  0.
         24    2    5    5    0    0 -0.27706769017E+02 -0.54343051827E+02  0.35181118753E+03  0.36579825839E+03  0.79475919873E+02 0.  0.
          5    1    5    5  501    0  0.12619357736E+02  0.70633841371E+02  0.22299558165E+03  0.23430217065E+03  0.47000000000E+01 0. -1.
        -13    1    6    6    0    0 -0.11520415695E+02 -0.15284032638E+02  0.10406860598E+02  0.21785875676E+02  0.00000000000E+00 0.  1.
         14    1    6    6    0    0 -0.16186353322E+02 -0.39059019189E+02  0.34140432693E+03  0.34401238271E+03  0.00000000000E+00 0. -1.
         -5    1    3    3    0  503  0.98105571161E+01  0.15636141942E+02 -0.20923536367E+02  0.28295235285E+02  0.47000000000E+01 0.  1.
         11    1    4    4    0    0 -0.17873646855E+02 -0.37120095120E+02  0.16492159186E+03  0.16998970609E+03  0.00000000000E+00 0. -1.
        -12    1    4    4    0    0  0.23150501020E+02  0.51931636345E+01  0.82823788232E+01  0.25129911360E+02  0.00000000000E+00 0.  1.
</event>
<event>
12    1  0.8417180E-002  0.2026540E+03  0.7818608E-02  0.1148305E+00
         21   -1    0    0  503  502  0.00000000000E+00  0.00000000000E+00  0.27097132593E+02  0.27097132593E+02  0.00000000000E+00 0.  1.
         21   -1    0    0  501  503 -0.00000000000E+00 -0.00000000000E+00 -0.15230966140E+04  0.15230966140E+04  0.00000000000E+00 0.  1.
          6    2    1    2  501    0  0.24004361307E+02  0.10267741356E+03 -0.87301835694E+03  0.89623081752E+03  0.17306000724E+03 0.  0.
         24    2    3    3    0    0  0.42297369849E+01  0.67668018811E+02 -0.22343737449E+03  0.24538964162E+03  0.75464988245E+02 0.  0.
         -6    2    1    2    0  502 -0.24004361307E+02 -0.10267741356E+03 -0.62298112443E+03  0.65396292904E+03  0.16865103184E+03 0.  0.
        -24    2    5    5    0    0  0.11071411260E+02 -0.67770768625E+01 -0.14484733181E+03  0.16502408005E+03  0.77998029119E+02 0.  0.
          5    1    3    3  501    0  0.19774624322E+02  0.35009394744E+02 -0.64958098245E+03  0.65084117590E+03  0.47000000000E+01 0. -1.
        -13    1    4    4    0    0  0.10929014859E+02  0.64549256881E+02 -0.22765471634E+03  0.23688123564E+03  0.00000000000E+00 0.  1.
         14    1    4    4    0    0 -0.66992778740E+01  0.31187619309E+01  0.42173418468E+01  0.85084059769E+01  0.00000000000E+00 0. -1.
         -5    1    5    5    0  502 -0.35075772567E+02 -0.95900336693E+02 -0.47813379263E+03  0.48893884899E+03  0.47000000000E+01 0.  1.
         11    1    6    6    0    0 -0.10957473523E+02  0.15050261013E+02 -0.12874008708E+03  0.13007915515E+03  0.00000000000E+00 0. -1.
        -12    1    6    6    0    0  0.22028884783E+02 -0.21827337876E+02 -0.16107244722E+02  0.34944924897E+02  0.00000000000E+00 0.  1.
</event>
<event>
12    1  0.8417180E-002  0.1884701E+03  0.7818608E-02  0.1159914E+00
         21   -1    0    0  503  502  0.00000000000E+00  0.00000000000E+00  0.62164652017E+02  0.62164652017E+02  0.00000000000E+00 0.  1.
         21   -1    0    0  501  503 -0.00000000000E+00 -0.00000000000E+00 -0.79758930592E+03  0.79758930592E+03  0.00000000000E+00 0.  1.
          6    2    1    2  501    0 -0.23716168887E+02  0.73451640339E+02 -0.59687643127E+03  0.62583820110E+03  0.17162278292E+03 0.  0.
         24    2    3    3    0    0 -0.69035194598E+02  0.24191976492E+02 -0.47005129912E+03  0.48235638093E+03  0.79801908521E+02 0.  0.
         -6    2    1    2    0  502  0.23716168887E+02 -0.73451640339E+02 -0.13854822264E+03  0.23391575684E+03  0.17194002200E+03 0.  0.
        -24    2    5    5    0    0 -0.27774642277E+02 -0.63045106779E+02 -0.14482734902E+03  0.18080156850E+03  0.83475325123E+02 0.  0.
          5    1    3    3  501    0  0.45319025712E+02  0.49259663847E+02 -0.12682513215E+03  0.14348182017E+03  0.47000000000E+01 0. -1.
        -11    1    4    4    0    0 -0.27199711696E+02  0.48574357639E+02 -0.31624824483E+03  0.32111095418E+03  0.00000000000E+00 0.  1.
         12    1    4    4    0    0 -0.41835482903E+02 -0.24382381147E+02 -0.15380305429E+03  0.16124542675E+03  0.00000000000E+00 0. -1.
         -5    1    5    5    0  502  0.51490811164E+02 -0.10406533560E+02  0.62791263842E+01  0.53114188341E+02  0.47000000000E+01 0.  1.
         11    1    6    6    0    0  0.21737341472E+02  0.57895036366E+01 -0.40847833094E+02  0.46632347518E+02  0.00000000000E+00 0. -1.
        -12    1    6    6    0    0 -0.49511983749E+02 -0.68834610416E+02 -0.10397951593E+03  0.13416922098E+03  0.00000000000E+00 0.  1.
</event>
<event>
12    1  0.8417180E-002  0.1853707E+03  0.7818608E-02  0.1162995E+00
         21   -1    0    0  503  502  0.00000000000E+00  0.00000000000E+00  0.28847572919E+03  0.28847572919E+03  0.00000000000E+00 0.  1.
         21   -1    0    0  501  503 -0.00000000000E+00 -0.00000000000E+00 -0.21403529575E+03  0.21403529575E+03  0.00000000000E+00 0.  1.
          6    2    1    2  501    0 -0.64297423758E+00 -0.71723198572E+02 -0.13073336092E+03  0.22683368681E+03  0.17093179689E+03 0.  0.
         24    2    3    3    0    0 -0.61735029315E+02 -0.26430935114E+02 -0.99711161443E+02  0.14456525311E+03  0.80293141154E+02 0.  0.
         -6    2    1    2    0  502  0.64297423758E+00  0.71723198572E+02  0.20517379436E+03  0.27567733813E+03  0.16957912089E+03 0.  0.
        -24    2    5    5    0    0 -0.61028867903E+02  0.21589677117E+02  0.92738978114E+02  0.13790773340E+03  0.78913801032E+02 0.  0.
          5    1    3    3  501    0  0.61092055078E+02 -0.45292263458E+02 -0.31022199474E+02  0.82268433697E+02  0.47000000000E+01 0. -1.
        -13    1    4    4    0    0 -0.12088271782E+02 -0.16625226099E+02 -0.90903624092E+02  0.93198676657E+02  0.00000000000E+00 0.  1.
         14    1    4    4    0    0 -0.49646757533E+02 -0.98057090146E+01 -0.88075373508E+01  0.51366576458E+02  0.00000000000E+00 0. -1.
         -5    1    5    5    0  502  0.61671842141E+02  0.50133521455E+02  0.11243481624E+03  0.13776960474E+03  0.47000000000E+01 0.  1.
         13    1    6    6    0    0 -0.11162908556E+01  0.57654138021E+01 -0.13609654043E+02  0.14822576860E+02  0.00000000000E+00 0. -1.
        -14    1    6    6    0    0 -0.59912577047E+02  0.15824263315E+02  0.10634863216E+03  0.12308515654E+03  0.00000000000E+00 0.  1.
</event>
<event>
12    1  0.8417180E-002  0.1883436E+03  0.7818608E-02  0.1160000E+00
         21   -1    0    0  503  502  0.00000000000E+00  0.00000000000E+00  0.25776832171E+03  0.25776832171E+03  0.00000000000E+00 0. -1.
         21   -1    0    0  501  503 -0.00000000000E+00 -0.00000000000E+00 -0.13882410980E+03  0.13882410980E+03  0.00000000000E+00 0.  1.
          6    2    1    2  501    0  0.33135563446E+02 -0.68211667933E+02  0.78858214184E+02  0.20418601436E+03  0.17240218475E+03 0.  0.
         24    2    3    3    0    0 -0.43532274832E+02 -0.12768797023E+02  0.54983417046E+02  0.10649279402E+03  0.79116609503E+02 0.  0.
         -6    2    1    2    0  502 -0.33135563446E+02  0.68211667933E+02  0.40085997724E+02  0.19240641716E+03  0.17222817697E+03 0.  0.
        -24    2    5    5    0    0 -0.28777161555E+02 -0.28516153693E+02  0.29193552052E+02  0.94856417075E+02  0.80648498624E+02 0.  0.
          5    1    3    3  501    0  0.76667838277E+02 -0.55442870910E+02  0.23874797138E+02  0.97693220334E+02  0.47000000000E+01 0. -1.
        -11    1    4    4    0    0 -0.19730085603E+01 -0.22638818096E+02 -0.13017422900E+02  0.26188969940E+02  0.00000000000E+00 0.  1.
         12    1    4    4    0    0 -0.41559266271E+02  0.98700210728E+01  0.68000839946E+02  0.80303824083E+02  0.00000000000E+00 0. -1.
         -5    1    5    5    0  502 -0.43584018902E+01  0.96727821626E+02  0.10892445672E+02  0.97550000083E+02  0.47000000000E+01 0.  1.
         13    1    6    6    0    0 -0.55568006506E+02 -0.24779696776E+02  0.29909353452E+02  0.67796800391E+02  0.00000000000E+00 0. -1.
        -14    1    6    6    0    0  0.26790844950E+02 -0.37364569172E+01 -0.71580140039E+00  0.27059616684E+02  0.00000000000E+00 0.  1.
</event>
<event>
12    1  0.8417180E-002  0.1858495E+03  0.7818608E-02  0.1163607E+00
         21   -1    0    0  501  502  0.00000000000E+00  0.00000000000E+00  0.61314080454E+03  0.61314080454E+03  0.00000000000E+00 0. -1.
         21   -1    0    0  502  503 -0.00000000000E+00 -0.00000000000E+00 -0.54860950062E+02  0.54860950062E+02  0.00000000000E+00 0. -1.
         -6    2    1    2    0  503 -0.14588636843E+02  0.50980054011E+02  0.29716736346E+03  0.34750252265E+03  0.17215622880E+03 0.  0.
        -24    2    3    3    0    0 -0.73357397213E+02  0.52796858819E+02  0.19888170661E+03  0.23287604963E+03  0.80675307515E+02 0.  0.
          6    2    1    2  501    0  0.14588636843E+02 -0.50980054011E+02  0.26111249102E+03  0.32049923195E+03  0.17812419959E+03 0.  0.
         24    2    5    5    0    0  0.72569869090E+02 -0.15340221535E+02  0.20489867994E+03  0.23210181395E+03  0.79912919508E+02 0.  0.
          5    1    5    5  501    0 -0.57981232246E+02 -0.35639832476E+02  0.56213811088E+02  0.88397417999E+02  0.47000000000E+01 0. -1.
        -13    1    6    6    0    0  0.59991044105E+02  0.23711413903E+02  0.95333922776E+02  0.11510739921E+03  0.00000000000E+00 0.  1.
         14    1    6    6    0    0  0.12578824985E+02 -0.39051635438E+02  0.10956475716E+03  0.11699441474E+03  0.00000000000E+00 0. -1.
         -5    1    3    3    0  503  0.58768760369E+02 -0.18168048074E+01  0.98285656850E+02  0.11462647302E+03  0.47000000000E+01 0.  1.
         11    1    4    4    0    0  0.15943556294E+02  0.15791602865E+02  0.56382499497E+02  0.60684083233E+02  0.00000000000E+00 0. -1.
        -12    1    4    4    0    0 -0.89300953507E+02  0.37005255954E+02  0.14249920711E+03  0.17219196640E+03  0.00000000000E+00 0.  1.
</event>
<event>
12    1  0.8417180E-002  0.1907495E+03  0.7818608E-02  0.1158649E+00
         21   -1    0    0  501  502  0.00000000000E+00  0.00000000000E+00  0.19945155959E+04  0.19945155959E+04  0.00000000000E+00 0.  1.
         21   -1    0    0  502  503 -0.00000000000E+00 -0.00000000000E+00 -0.26279407813E+02  0.26279407813E+02  0.00000000000E+00 0.  1.
         -6    2    1    2    0  503 -0.67124846117E+00 -0.82231130897E+02  0.40621430459E+03  0.44716933723E+03  0.16789266048E+03 0.  0.
        -24    2    3    3    0    0 -0.90828508567E+01 -0.88610349826E+02  0.41546678861E+03  0.43236569074E+03  0.79957149889E+02 0.  0.
          6    2    1    2  501    0  0.67124846117E+00  0.82231130897E+02  0.15620218835E+04  0.15736256665E+04  0.17211323082E+03 0.  0.
         24    2    5    5    0    0  0.96099237969E+00  0.12331241923E+03  0.13068546778E+04  0.13151297303E+04  0.80561666878E+02 0.  0.
          5    1    5    5  501    0 -0.28974391852E+00 -0.41081288329E+02  0.25516720563E+03  0.25849593620E+03  0.47000000000E+01 0. -1.
        -13    1    6    6    0    0 -0.82952367759E+01  0.11949463324E+03  0.12898226174E+04  0.12953725961E+04  0.00000000000E+00 0.  1.
         14    1    6    6    0    0  0.92562291556E+01  0.38177859859E+01  0.17032060460E+02  0.19757134193E+02  0.00000000000E+00 0. -1.
         -5    1    3    3    0  503  0.84116023955E+01  0.63792189287E+01 -0.92524840160E+01  0.14803646492E+02  0.47000000000E+01 0.  1.
         11    1    4    4    0    0 -0.15212562099E+02  0.54461195429E+01  0.19447966266E+02  0.25284494370E+02  0.00000000000E+00 0. -1.
        -12    1    4    4    0    0  0.61297112419E+01 -0.94056469368E+02  0.39601882234E+03  0.40708119637E+03  0.00000000000E+00 0.  1.
</event>
<event>
12    1  0.8417180E-002  0.1788742E+03  0.7818608E-02  0.1168913E+00
         21   -1    0    0  501  502  0.00000000000E+00  0.00000000000E+00  0.51566624998E+02  0.51566624998E+02  0.00000000000E+00 0.  1.
         21   -1    0    0  502  503 -0.00000000000E+00 -0.00000000000E+00 -0.71840253140E+03  0.71840253140E+03  0.00000000000E+00 0.  1.
         -6    2    1    2    0  503  0.48884835198E+02  0.41603258763E+01 -0.47576838036E+03  0.50828292121E+03  0.17201436226E+03 0.  0.
        -24    2    3    3    0    0  0.65712773440E+02  0.38215015965E+02 -0.44700547263E+03  0.46040499014E+03  0.79876819842E+02 0.  0.
          6    2    1    2  501    0 -0.48884835198E+02 -0.41603258763E+01 -0.19106752604E+03  0.26168623519E+03  0.17194723247E+03 0.  0.
         24    2    5    5    0    0 -0.28257821186E+02 -0.99612684489E+01 -0.17850454959E+02  0.87085638518E+02  0.79796856872E+02 0.  0.
          5    1    5    5  501    0 -0.20627014013E+02  0.58009425726E+01 -0.17321707108E+03  0.17460059667E+03  0.47000000000E+01 0. -1.
        -13    1    6    6    0    0  0.23125043448E+02 -0.12714220091E+02 -0.23478492900E+02  0.35322211933E+02  0.00000000000E+00 0.  1.
         14    1    6    6    0    0 -0.51382864634E+02  0.27529516425E+01  0.56280379414E+01  0.51763426585E+02  0.00000000000E+00 0. -1.
         -5    1    3    3    0  503 -0.16827938242E+02 -0.34054690089E+02 -0.28762907728E+02  0.47877931069E+02  0.47000000000E+01 0.  1.
         11    1    4    4    0    0  0.77789828124E+02  0.16093747966E+02 -0.26461185800E+03  0.27627830439E+03  0.00000000000E+00 0. -1.
        -12    1    4    4    0    0 -0.12077054684E+02  0.22121267999E+02 -0.18239361463E+03  0.18412668575E+03  0.00000000000E+00 0.  1.
</event>
<event>
12    1  0.8417180E-002  0.2103660E+03  0.7818608E-02  0.1141586E+00
         21   -1    0    0  503  502  0.00000000000E+00  0.00000000000E+00  0.59988392760E+03  0.59988392760E+03  0.00000000000E+00 0.  1.
         21   -1    0    0  501  503 -0.00000000000E+00 -0.00000000000E+00 -0.91380842574E+02  0.91380842574E+02  0.00000000000E+00 0. -1.
          6    2    1    2  501    0 -0.12268317681E+03  0.10701402751E+02  0.10094734095E+03  0.23333283042E+03  0.17055252040E+03 0.  0.
         24    2    3    3    0    0 -0.86531987361E+02  0.25500420247E+01  0.13758666487E+03  0.18100804436E+03  0.79621192042E+02 0.  0.
         -6    2    1    2    0  502  0.12268317681E+03 -0.10701402751E+02  0.40755574407E+03  0.45793193975E+03  0.16862471653E+03 0.  0.
        -24    2    5    5    0    0  0.22636824579E+01 -0.32828164027E+02  0.17915419653E+03  0.19874126649E+03  0.79492466697E+02 0.  0.
          5    1    3    3  501    0 -0.36151189444E+02  0.81513607260E+01 -0.36639323914E+02  0.52324786066E+02  0.47000000000E+01 0. -1.
        -11    1    4    4    0    0 -0.60845225968E+02 -0.19964180178E+02  0.35198842085E+02  0.73073035365E+02  0.00000000000E+00 0.  1.
         12    1    4    4    0    0 -0.25686761393E+02  0.22514222203E+02  0.10238782278E+03  0.10793500899E+03  0.00000000000E+00 0. -1.
         -5    1    5    5    0  502  0.12041949435E+03  0.22126761276E+02  0.22840154754E+03  0.25919067326E+03  0.47000000000E+01 0.  1.
         11    1    6    6    0    0 -0.43832299499E+01 -0.33949517489E+02  0.20410207690E+02  0.39854222116E+02  0.00000000000E+00 0. -1.
        -12    1    6    6    0    0  0.66469124079E+01  0.11213534627E+01  0.15874398884E+03  0.15888704437E+03  0.00000000000E+00 0.  1.
</event>
<event>
12    1  0.8417180E-002  0.1866519E+03  0.7818608E-02  0.1162127E+00
         21   -1    0    0  503  502  0.00000000000E+00  0.00000000000E+00  0.82660932877E+03  0.82660932877E+03  0.00000000000E+00 0.  1.
         21   -1    0    0  501  503 -0.00000000000E+00 -0.00000000000E+00 -0.12498459425E+03  0.12498459425E+03  0.00000000000E+00 0.  1.
          6    2    1    2  501    0 -0.16942157960E+02 -0.66498267985E+02 -0.37090993207E+02  0.19030150541E+03  0.17357956338E+03 0.  0.
         24    2    3    3    0    0 -0.29200047508E+02 -0.66005614606E+02 -0.87385278322E+02  0.13831974247E+03  0.79289219664E+02 0.  0.
         -6    2    1    2    0  502  0.16942157960E+02  0.66498267985E+02  0.73871572773E+03  0.76129241760E+03  0.17075175650E+03 0.  0.
        -24    2    5    5    0    0  0.39338824773E+02  0.10170537689E+03  0.63970702337E+03  0.65374724225E+03  0.79176096058E+02 0.  0.
          5    1    3    3  501    0  0.12257889548E+02 -0.49265337860E+00  0.50294285114E+02  0.51981762943E+02  0.47000000000E+01 0. -1.
        -11    1    4    4    0    0  0.31806009127E+01 -0.26387190396E+02 -0.82783698830E+02  0.86945619965E+02  0.00000000000E+00 0.  1.
         12    1    4    4    0    0 -0.32380648421E+02 -0.39618424210E+02 -0.46015794915E+01  0.51374122503E+02  0.00000000000E+00 0. -1.
         -5    1    5    5    0  502 -0.22396666813E+02 -0.35207108908E+02  0.99008704362E+02  0.10754517535E+03  0.47000000000E+01 0.  1.
         11    1    6    6    0    0  0.39588566672E+01  0.73656606492E+02  0.22949232316E+03  0.24105537666E+03  0.00000000000E+00 0. -1.
        -12    1    6    6    0    0  0.35379968105E+02  0.28048770400E+02  0.41021470021E+03  0.41269186560E+03  0.00000000000E+00 0.  1.
</event>
<event>
12    1  0.8417180E-002  0.1860399E+03  0.7818608E-02  0.1162798E+00
         21   -1    0    0  501  502  0.00000000000E+00  0.00000000000E+00  0.16366022547E+03  0.16366022547E+03  0.00000000000E+00 0.  1.
         21   -1    0    0  502  503 -0.00000000000E+00 -0.00000000000E+00 -0.21356592063E+03  0.21356592063E+03  0.00000000000E+00 0.  1.
         -6    2    1    2    0  503  0.64623634712E+02  0.26708102350E+02  0.52557497004E+01  0.18611414394E+03  0.17239870874E+03 0.  0.
        -24    2    3    3    0    0  0.29007920104E+02  0.41116696317E+02  0.65161907207E+02  0.11479146582E+03  0.79993526793E+02 0.  0.
          6    2    1    2  501    0 -0.64623634712E+02 -0.26708102350E+02 -0.55161444864E+02  0.19111200216E+03  0.16909014009E+03 0.  0.
         24    2    5    5    0    0 -0.17295334216E+02  0.78108709886E+01  0.30460881516E+02  0.87262108930E+02  0.79540380066E+02 0.  0.
          5    1    5    5  501    0 -0.47328300496E+02 -0.34518973338E+02 -0.85622326380E+02  0.10384989323E+03  0.47000000000E+01 0. -1.
        -13    1    6    6    0    0 -0.10194110150E+02  0.12721924765E+02 -0.25703790525E+02  0.30437675648E+02  0.00000000000E+00 0.  1.
         14    1    6    6    0    0 -0.71012240655E+01 -0.49110537769E+01  0.56164672041E+02  0.56824433283E+02  0.00000000000E+00 0. -1.
         -5    1    3    3    0  503  0.35615714608E+02 -0.14408593968E+02 -0.59906157506E+02  0.71322678121E+02  0.47000000000E+01 0.  1.
         13    1    4    4    0    0  0.30751649403E+02  0.37128031763E+02 -0.12610860879E+01  0.48225978701E+02  0.00000000000E+00 0. -1.
        -14    1    4    4    0    0 -0.17437292987E+01  0.39886645548E+01  0.66422993295E+02  0.66565487116E+02  0.00000000000E+00 0.  1.
</event>
<event>
12    1  0.8417180E-002  0.2328247E+03  0.7818608E-02  0.1124733E+00
         21   -1    0    0  501  502  0.00000000000E+00  0.00000000000E+00  0.35920450797E+03  0.35920450797E+03  0.00000000000E+00 0. -1.
         21   -1    0    0  502  503 -0.00000000000E+00 -0.00000000000E+00 -0.39204832303E+03  0.39204832303E+03  0.00000000000E+00 0. -1.
         -6    2    1    2    0  503  0.12849799026E+03  0.88126330921E+02 -0.31115706908E+03  0.38839528315E+03  0.17249403073E+03 0.  0.
        -24    2    3    3    0    0  0.13955877488E+03  0.84405111399E+02 -0.32239593858E+03  0.37152546932E+03  0.86551479841E+02 0.  0.
          6    2    1    2  501    0 -0.12849799026E+03 -0.88126330921E+02  0.27831325402E+03  0.36285754784E+03  0.17300100855E+03 0.  0.
         24    2    5    5    0    0 -0.16233558799E+03 -0.70024399783E+02  0.22344568394E+03  0.29573673752E+03  0.79221111795E+02 0.  0.
          5    1    5    5  501    0  0.33837597736E+02 -0.18101931137E+02  0.54867570077E+02  0.67120810317E+02  0.47000000000E+01 0. -1.
        -13    1    6    6    0    0 -0.34992441591E+02  0.75233219056E+01  0.85188413549E+02  0.92402040800E+02  0.00000000000E+00 0.  1.
         14    1    6    6    0    0 -0.12734314640E+03 -0.77547721689E+02  0.13825727039E+03  0.20333469672E+03  0.00000000000E+00 0. -1.
         -5    1    3    3    0  503 -0.11060784628E+02  0.37212195213E+01  0.11238869500E+02  0.16869813838E+02  0.47000000000E+01 0.  1.
         13    1    4    4    0    0  0.11458963455E+03  0.89866744907E+02 -0.20549576555E+03  0.25186370490E+03  0.00000000000E+00 0. -1.
        -14    1    4    4    0    0  0.24969140331E+02 -0.54616335073E+01 -0.11690017303E+03  0.11966176442E+03  0.00000000000E+00 0.  1.
</event>
<event>
12    1  0.8417180E-002  0.1881820E+03  0.7818608E-02  0.1161543E+00
         21   -1    0    0  503  502  0.00000000000E+00  0.00000000000E+00  0.45647853524E+03  0.45647853524E+03  0.00000000000E+00 0.  1.
         21   -1    0    0  501  503 -0.00000000000E+00 -0.00000000000E+00 -0.14752360790E+03  0.14752360790E+03  0.00000000000E+00 0. -1.
          6    2    1    2  501    0  0.38735118758E+02 -0.50982456992E+02 -0.55860735225E+02  0.19629800000E+03  0.17695440859E+03 0.  0.
         24    2    3    3    0    0  0.53308950860E+02  0.21448722732E+02 -0.66421170871E+02  0.12151641684E+03  0.83979614635E+02 0.  0.
         -6    2    1    2    0  502 -0.38735118758E+02  0.50982456992E+02  0.36481566257E+03  0.40770414314E+03  0.17038949594E+03 0.  0.
        -24    2    5    5    0    0 -0.57229601899E+02  0.15389943918E+02  0.35107403145E+03  0.36504508409E+03  0.80578285821E+02 0.  0.
          5    1    3    3  501    0 -0.14573832103E+02 -0.72431179723E+02  0.10560435645E+02  0.74781583156E+02  0.47000000000E+01 0. -1.
        -11    1    4    4    0    0 -0.84452004515E+01 -0.22509315478E+02 -0.65374640758E+01  0.24914436187E+02  0.00000000000E+00 0.  1.
         12    1    4    4    0    0  0.61754151312E+02  0.43958038210E+02 -0.59883706795E+02  0.96601980658E+02  0.00000000000E+00 0. -1.
         -5    1    5    5    0  502  0.18494483142E+02  0.35592513073E+02  0.13741631120E+02  0.42659059054E+02  0.47000000000E+01 0.  1.
         13    1    6    6    0    0  0.83239018665E+01  0.20938085124E+02  0.31256799677E+02  0.38531523160E+02  0.00000000000E+00 0. -1.
        -14    1    6    6    0    0 -0.65553503766E+02 -0.55481412056E+01  0.31981723178E+03  0.32651356093E+03  0.00000000000E+00 0.  1.
</event>
<event>
12    1  0.8417180E-002  0.1911855E+03  0.7818608E-02  0.1157427E+00
         21   -1    0    0  501  502  0.00000000000E+00  0.00000000000E+00  0.89297015580E+02  0.89297015580E+02  0.00000000000E+00 0.  1.
         21   -1    0    0  502  503 -0.00000000000E+00 -0.00000000000E+00 -0.41307064736E+03  0.41307064736E+03  0.00000000000E+00 0.  1.
         -6    2    1    2    0  503  0.74987217363E+02  0.38256395066E+02 -0.18664066681E+03  0.26708622360E+03  0.17150416262E+03 0.  0.
        -24    2    3    3    0    0  0.49204405392E+02  0.56787762685E+02 -0.20322399479E+03  0.23095781724E+03  0.79972481433E+02 0.  0.
          6    2    1    2  501    0 -0.74987217363E+02 -0.38256395066E+02 -0.13713296497E+03  0.23528143935E+03  0.17165451083E+03 0.  0.
         24    2    5    5    0    0 -0.11165622151E+03 -0.19204074727E+02 -0.13533373910E+03  0.19365291561E+03  0.79688910756E+02 0.  0.
          5    1    5    5  501    0  0.36669004144E+02 -0.19052320339E+02 -0.17992258771E+01  0.41628523743E+02  0.47000000000E+01 0. -1.
        -11    1    6    6    0    0 -0.66398776598E+02  0.87405618488E+01 -0.25581491091E+02  0.71691056915E+02  0.00000000000E+00 0.  1.
         12    1    6    6    0    0 -0.45257444909E+02 -0.27944636576E+02 -0.10975224801E+03  0.12196185869E+03  0.00000000000E+00 0. -1.
         -5    1    3    3    0  503  0.25782811970E+02 -0.18531367619E+02  0.16583327977E+02  0.36128406355E+02  0.47000000000E+01 0.  1.
         11    1    4    4    0    0 -0.17895394614E+02  0.98651495390E+01 -0.13976160875E+02  0.24756805057E+02  0.00000000000E+00 0. -1.
        -12    1    4    4    0    0  0.67099800006E+02  0.46922613146E+02 -0.18924783391E+03  0.20620101218E+03  0.00000000000E+00 0.  1.
</event>
<event>
12    1  0.8417180E-002  0.2695803E+03  0.7818608E-02  0.1101530E+00
         21   -1    0    0  501  502  0.00000000000E+00  0.00000000000E+00  0.14134546189E+03  0.14134546189E+03  0.00000000000E+00 0. -1.
         21   -1    0    0  502  503 -0.00000000000E+00 -0.00000000000E+00 -0.83655978141E+03  0.83655978141E+03  0.00000000000E+00 0. -1.
         -6    2    1    2    0  503  0.20416348752E+03  0.37435093808E+02 -0.65118487835E+03  0.70475305825E+03  0.17190407629E+03 0.  0.
        -24    2    3    3    0    0  0.22183902281E+03  0.49926744200E+02 -0.53868489565E+03  0.59009355371E+03  0.79522031500E+02 0.  0.
          6    2    1    2  501    0 -0.20416348752E+03 -0.37435093808E+02 -0.44029441183E+02  0.27315218505E+03  0.17201572201E+03 0.  0.
         24    2    5    5    0    0 -0.86211059137E+02  0.15400981574E+02  0.34618625269E+02  0.12178496739E+03  0.77224297450E+02 0.  0.
          5    1    5    5  501    0 -0.11795242838E+03 -0.52836075383E+02 -0.78648066452E+02  0.15136721765E+03  0.47000000000E+01 0. -1.
        -13    1    6    6    0    0 -0.84067797462E+02  0.13055201909E+02  0.54903145051E+02  0.10125308985E+03  0.00000000000E+00 0.  1.
         14    1    6    6    0    0 -0.21432616756E+01  0.23457796651E+01 -0.20284519782E+02  0.20531877548E+02  0.00000000000E+00 0. -1.
         -5    1    3    3    0  503 -0.17675535287E+02 -0.12491650392E+02 -0.11249998269E+03  0.11465950455E+03  0.47000000000E+01 0.  1.
         13    1    4    4    0    0  0.48287601809E+02 -0.86078215187E+01 -0.19002763257E+03  0.19625567054E+03  0.00000000000E+00 0. -1.
        -14    1    4    4    0    0  0.17355142100E+03  0.58534565719E+02 -0.34865726309E+03  0.39383788317E+03  0.00000000000E+00 0.  1.
</event>
<event>
12    1  0.8417180E-002  0.2068873E+03  0.7818608E-02  0.1144422E+00
         21   -1    0    0  501  502  0.00000000000E+00  0.00000000000E+00  0.12592854975E+03  0.12592854975E+03  0.00000000000E+00 0. -1.
         21   -1    0    0  502  503 -0.00000000000E+00 -0.00000000000E+00 -0.37174048982E+03  0.37174048982E+03  0.00000000000E+00 0.  1.
         -6    2    1    2    0  503  0.11319356917E+03 -0.11333867181E+02 -0.19856746570E+03  0.28545592245E+03  0.17063060856E+03 0.  0.
        -24    2    3    3    0    0  0.11372933332E+03  0.46684461676E+02 -0.13640968520E+03  0.20029669979E+03  0.79983532743E+02 0.  0.
          6    2    1    2  501    0 -0.11319356917E+03  0.11333867181E+02 -0.47244474365E+02  0.21221311713E+03  0.17280372125E+03 0.  0.
         24    2    5    5    0    0 -0.69329478715E+02  0.14420610559E+02 -0.99133911636E+02  0.14403548065E+03  0.76838510019E+02 0.  0.
          5    1    5    5  501    0 -0.43864090450E+02 -0.30867433782E+01  0.51889437271E+02  0.68177636480E+02  0.47000000000E+01 0. -1.
        -11    1    6    6    0    0 -0.23120902578E+02 -0.13342727629E+02  0.46401494617E+01  0.27094935018E+02  0.00000000000E+00 0.  1.
         12    1    6    6    0    0 -0.46208576137E+02  0.27763338188E+02 -0.10377406110E+03  0.11694054563E+03  0.00000000000E+00 0. -1.
         -5    1    3    3    0  503 -0.53576415828E+00 -0.58018328857E+02 -0.62157780504E+02  0.85159222658E+02  0.47000000000E+01 0.  1.
         11    1    4    4    0    0  0.17440692000E+01  0.23854806849E+02 -0.22019501690E+01  0.24019620558E+02  0.00000000000E+00 0. -1.
        -12    1    4    4    0    0  0.11198526412E+03  0.22829654827E+02 -0.13420773503E+03  0.17627707923E+03  0.00000000000E+00 0.  1.
</event>
<event>
12    1  0.8417180E-002  0.2002433E+03  0.7818608E-02  0.1149579E+00
         21   -1    0    0  503  502  0.00000000000E+00  0.00000000000E+00  0.17176904126E+03  0.17176904126E+03  0.00000000000E+00 0. -1.
         21   -1    0    0  501  503 -0.00000000000E+00 -0.00000000000E+00 -0.24816126392E+03  0.24816126392E+03  0.00000000000E+00 0. -1.
          6    2    1    2  501    0 -0.76135800231E+02  0.69931350681E+02 -0.89787421567E+02  0.21945199115E+03  0.17149443567E+03 0.  0.
         24    2    3    3    0    0  0.22387523765E+02  0.29124739846E+02 -0.72748495723E+02  0.11135740363E+03  0.75885940865E+02 0.  0.
         -6    2    1    2    0  502  0.76135800231E+02 -0.69931350681E+02  0.13395198899E+02  0.20047831403E+03  0.17124563982E+03 0.  0.
        -24    2    5    5    0    0  0.56291505573E+02  0.25097669593E+02  0.18640281459E+02  0.10314429317E+03  0.80577034583E+02 0.  0.
          5    1    3    3  501    0 -0.98523323996E+02  0.40806610835E+02 -0.17038925844E+02  0.10809458753E+03  0.47000000000E+01 0. -1.
        -13    1    4    4    0    0 -0.36208606964E+01  0.50501475174E+02 -0.44634652961E+02  0.67496384140E+02  0.00000000000E+00 0.  1.
         14    1    4    4    0    0  0.26008384461E+02 -0.21376735328E+02 -0.28113842761E+02  0.43861019486E+02  0.00000000000E+00 0. -1.
         -5    1    5    5    0  502  0.19844294658E+02 -0.95029020274E+02 -0.52450825605E+01  0.97334020855E+02  0.47000000000E+01 0.  1.
         11    1    6    6    0    0  0.68489400413E+01 -0.59388949397E+01  0.39975926601E+02  0.40990891188E+02  0.00000000000E+00 0. -1.
        -12    1    6    6    0    0  0.49442565532E+02  0.31036564533E+02 -0.21335645142E+02  0.62153401983E+02  0.00000000000E+00 0.  1.
</event>
<event>
12    1  0.8417180E-002  0.1748829E+03  0.7818608E-02  0.1173030E+00
         21   -1    0    0  503  502  0.00000000000E+00  0.00000000000E+00  0.18686222238E+03  0.18686222238E+03  0.00000000000E+00 0. -1.
         21   -1    0    0  501  503 -0.00000000000E+00 -0.00000000000E+00 -0.36192431091E+03  0.36192431091E+03  0.00000000000E+00 0. -1.
          6    2    1    2  501    0 -0.29748524658E+02  0.11947670419E+02 -0.29103776769E+03  0.33953941979E+03  0.17191949807E+03 0.  0.
         24    2    3    3    0    0  0.25035413268E+02 -0.33057009236E+02 -0.94020955730E+02  0.13010108700E+03  0.79792323844E+02 0.  0.
         -6    2    1    2    0  502  0.29748524658E+02 -0.11947670419E+02  0.11597567916E+03  0.20924711350E+03  0.17119075561E+03 0.  0.
        -24    2    5    5    0    0  0.85235850751E+02  0.28908152360E+01  0.71042017365E+02  0.13617079740E+03  0.78879723415E+02 0.  0.
          5    1    3    3  501    0 -0.54783937925E+02  0.45004679655E+02 -0.19701681196E+03  0.20943833279E+03  0.47000000000E+01 0. -1.
        -11    1    4    4    0    0  0.32132354250E+02 -0.97865965212E+00 -0.17942402107E+01  0.32197286567E+02  0.00000000000E+00 0.  1.
         12    1    4    4    0    0 -0.70969409820E+01 -0.32078349584E+02 -0.92226715519E+02  0.97903800431E+02  0.00000000000E+00 0. -1.
         -5    1    5    5    0  502 -0.55487326094E+02 -0.14838485655E+02  0.44933661796E+02  0.73076316108E+02  0.47000000000E+01 0.  1.
         13    1    6    6    0    0  0.30573198945E+02  0.13618462349E+01  0.75339671936E+02  0.81318148567E+02  0.00000000000E+00 0. -1.
        -14    1    6    6    0    0  0.54662651806E+02  0.15289690012E+01 -0.42976545710E+01  0.54852648829E+02  0.00000000000E+00 0.  1.
</event>
<event>
12    1  0.8417180E-002  0.1756938E+03  0.7818608E-02  0.1172054E+00
         21   -1    0    0  503  502  0.00000000000E+00  0.00000000000E+00  0.49769896500E+03  0.49769896500E+03  0.00000000000E+00 0.  1.
         21   -1    0    0  501  503 -0.00000000000E+00 -0.00000000000E+00 -0.62340281189E+02  0.62340281189E+02  0.00000000000E+00 0.  1.
          6    2    1    2  501    0  0.30956169567E+02 -0.17643903466E+02  0.19689631381E+03  0.26384231046E+03  0.17197387776E+03 0.  0.
         24    2    3    3    0    0 -0.43265874270E+02 -0.22073777511E+02  0.78765834171E+02  0.12418044811E+03  0.82810262221E+02 0.  0.
         -6    2    1    2    0  502 -0.30956169567E+02  0.17643903466E+02  0.23846236999E+03  0.29619693573E+03  0.17204281754E+03 0.  0.
        -24    2    5    5    0    0 -0.12622012920E+02  0.13329510105E+00  0.25428812798E+03  0.26594288937E+03  0.76836419731E+02 0.  0.
          5    1    3    3  501    0  0.74222043837E+02  0.44298740441E+01  0.11813047964E+03  0.13966186235E+03  0.47000000000E+01 0. -1.
        -13    1    4    4    0    0 -0.12792151441E+02  0.27246876108E+02  0.52534397025E+02  0.60546628865E+02  0.00000000000E+00 0.  1.
         14    1    4    4    0    0 -0.30473722829E+02 -0.49320653618E+02  0.26231437146E+02  0.63633819241E+02  0.00000000000E+00 0. -1.
         -5    1    5    5    0  502 -0.18334156648E+02  0.17510608365E+02 -0.15825757984E+02  0.30254046359E+02  0.47000000000E+01 0.  1.
         13    1    6    6    0    0 -0.27398071551E+02  0.32327300598E+02  0.14400418025E+03  0.15010966864E+03  0.00000000000E+00 0. -1.
        -14    1    6    6    0    0  0.14776058632E+02 -0.32194005496E+02  0.11028394773E+03  0.11583322073E+03  0.00000000000E+00 0.  1.
</event>
<event>
12    1  0.8417180E-002  0.2304281E+03  0.7818608E-02  0.1127583E+00
         21   -1    0    0  501  502  0.00000000000E+00  0.00000000000E+00  0.31921562161E+03  0.31921562161E+03  0.00000000000E+00 0.  1.
         21   -1    0    0  502  503 -0.00000000000E+00 -0.00000000000E+00 -0.16420944030E+03  0.16420944030E+03  0.00000000000E+00 0.  1.
         -6    2    1    2    0  503 -0.13133860129E+03  0.76569581723E+02  0.44381435223E+02  0.22781806321E+03  0.16376394322E+03 0.  0.
        -24    2    3    3    0    0 -0.40508321771E+02  0.17156173720E+02 -0.32375974057E+02  0.94799708809E+02  0.77482402290E+02 0.  0.
          6    2    1    2  501    0  0.13133860129E+03 -0.76569581723E+02  0.11062474609E+03  0.25560699870E+03  0.17315996738E+03 0.  0.
         24    2    5    5    0    0  0.13966757292E+03 -0.10799549174E+03  0.77383163145E+02  0.20887315202E+03  0.80434958396E+02 0.  0.
          5    1    5    5  501    0 -0.83289716349E+01  0.31425910021E+02  0.33241582946E+02  0.46733846684E+02  0.47000000000E+01 0. -1.
        -11    1    6    6    0    0  0.49201741489E+02 -0.23307685036E+02  0.64317975404E+02  0.84266609682E+02  0.00000000000E+00 0.  1.
         12    1    6    6    0    0  0.90465831432E+02 -0.84687806708E+02  0.13065187741E+02  0.12460654233E+03  0.00000000000E+00 0. -1.
         -5    1    3    3    0  503 -0.90830279515E+02  0.59413408003E+02  0.76757409281E+02  0.13301835440E+03  0.47000000000E+01 0.  1.
         11    1    4    4    0    0 -0.32241567836E+02 -0.28273016707E+02 -0.17051668886E+02  0.46148039850E+02  0.00000000000E+00 0. -1.
        -12    1    4    4    0    0 -0.82667539348E+01  0.45429190427E+02 -0.15324305171E+02  0.48651668958E+02  0.00000000000E+00 0.  1.
</event>
<event>
12    1  0.8417180E-002  0.2168795E+03  0.7818608E-02  0.1136435E+00
         21   -1    0    0  503  502  0.00000000000E+00  0.00000000000E+00  0.15329628325E+04  0.15329628325E+04  0.00000000000E+00 0. -1.
         21   -1    0    0  501  503 -0.00000000000E+00 -0.00000000000E+00 -0.32001543025E+02  0.32001543025E+02  0.00000000000E+00 0. -1.
          6    2    1    2  501    0  0.12589512136E+03  0.41690032043E+02  0.91989921936E+03  0.94511972892E+03  0.17160736542E+03 0.  0.
         24    2    3    3    0    0  0.14711070722E+02  0.11565731594E+01  0.55732991106E+03  0.56369680390E+03  0.83184756480E+02 0.  0.
         -6    2    1    2    0  502 -0.12589512136E+03 -0.41690032043E+02  0.58106207014E+03  0.61984464663E+03  0.17025456306E+03 0.  0.
        -24    2    5    5    0    0 -0.11756858001E+03 -0.62458995005E+02  0.28977306792E+03  0.32765968136E+03  0.75292355756E+02 0.  0.
          5    1    3    3  501    0  0.11118405064E+03  0.40533458883E+02  0.36256930830E+03  0.38142292501E+03  0.47000000000E+01 0. -1.
        -11    1    4    4    0    0  0.42605832367E+02 -0.11069851742E+02  0.18677743466E+03  0.19189478541E+03  0.00000000000E+00 0.  1.
         12    1    4    4    0    0 -0.27894761645E+02  0.12226424901E+02  0.37055247640E+03  0.37180201850E+03  0.00000000000E+00 0. -1.
         -5    1    5    5    0  502 -0.83265413546E+01  0.20768962963E+02  0.29128900222E+03  0.29218496527E+03  0.47000000000E+01 0.  1.
         11    1    6    6    0    0 -0.74544370539E+02 -0.28775369666E+02  0.24277546903E+03  0.25558719342E+03  0.00000000000E+00 0. -1.
        -12    1    6    6    0    0 -0.43024209467E+02 -0.33683625339E+02  0.46997598892E+02  0.72072487940E+02  0.00000000000E+00 0.  1.
</event>
<event>
12    1  0.8417180E-002  0.1854487E+03  0.7818608E-02  0.1162880E+00
         21   -1    0    0  503  502  0.00000000000E+00  0.00000000000E+00  0.66263577509E+03  0.66263577509E+03  0.00000000000E+00 0.  1.
         21   -1    0    0  501  503 -0.00000000000E+00 -0.00000000000E+00 -0.89712789032E+02  0.89712789032E+02  0.00000000000E+00 0.  1.
          6    2    1    2  501    0 -0.11715152389E+02 -0.70669432657E+02  0.40810820492E+02  0.18884650931E+03  0.16990016922E+03 0.  0.
         24    2    3    3    0    0 -0.36448092174E+02  0.10153308325E+02 -0.12026074197E+02  0.89057425684E+02  0.79718539348E+02 0.  0.
         -6    2    1    2    0  502  0.11715152389E+02  0.70669432657E+02  0.53211216557E+03  0.56350205482E+03  0.17105494885E+03 0.  0.
        -24    2    5    5    0    0  0.71142317361E+02  0.63420726127E+02  0.37527400183E+03  0.39556030513E+03  0.80956536001E+02 0.  0.
          5    1    3    3  501    0  0.24732939785E+02 -0.80822740983E+02  0.52836894690E+02  0.99789083625E+02  0.47000000000E+01 0. -1.
        -11    1    4    4    0    0  0.24074129047E+01  0.39350871351E+02 -0.23044743594E+01  0.39491737301E+02  0.00000000000E+00 0.  1.
         12    1    4    4    0    0 -0.38855505079E+02 -0.29197563025E+02 -0.97215998380E+01  0.49565688384E+02  0.00000000000E+00 0. -1.
         -5    1    5    5    0  502 -0.59427164972E+02  0.72487065303E+01  0.15683816374E+03  0.16794174969E+03  0.47000000000E+01 0.  1.
         11    1    6    6    0    0  0.27222022838E+02 -0.13081669761E+02  0.48899250458E+02  0.57474388265E+02  0.00000000000E+00 0. -1.
        -12    1    6    6    0    0  0.43920294523E+02  0.76502395888E+02  0.32637475137E+03  0.33808591686E+03  0.00000000000E+00 0.  1.
</event>
<event>
12    1  0.8417180E-002  0.1818216E+03  0.7818608E-02  0.1166347E+00
         21   -1    0    0  501  502  0.00000000000E+00  0.00000000000E+00  0.85986708776E+02  0.85986708776E+02  0.00000000000E+00 0.  1.
         21   -1    0    0  502  503 -0.00000000000E+00 -0.00000000000E+00 -0.98585494505E+03  0.98585494505E+03  0.00000000000E+00 0.  1.
         -6    2    1    2    0  503 -0.59947748174E+02 -0.16380540924E+00 -0.87000158165E+03  0.88879796841E+03  0.17165464526E+03 0.  0.
        -24    2    3    3    0    0 -0.67333825736E+02 -0.60579100833E+02 -0.59108235895E+03  0.60327636703E+03  0.79751792536E+02 0.  0.
          6    2    1    2  501    0  0.59947748174E+02  0.16380540924E+00 -0.29866654623E+02  0.18304368541E+03  0.17035026964E+03 0.  0.
         24    2    5    5    0    0  0.11370915971E+02 -0.21282085657E+02  0.42712531958E+02  0.92991127452E+02  0.78998509470E+02 0.  0.
          5    1    5    5  501    0  0.48576832204E+02  0.21445891066E+02 -0.72579186582E+02  0.90052557962E+02  0.47000000000E+01 0. -1.
        -11    1    6    6    0    0  0.39613275365E+02 -0.21114131960E+02  0.39939045685E+01  0.45066278161E+02  0.00000000000E+00 0.  1.
         12    1    6    6    0    0 -0.28242359394E+02 -0.16795369697E+00  0.38718627390E+02  0.47924849291E+02  0.00000000000E+00 0. -1.
         -5    1    3    3    0  503  0.73860775615E+01  0.60415295424E+02 -0.27891922270E+03  0.28552160138E+03  0.47000000000E+01 0.  1.
         11    1    4    4    0    0 -0.30369614534E+02 -0.13764677602E+02 -0.58269279144E+02  0.67134854795E+02  0.00000000000E+00 0. -1.
        -12    1    4    4    0    0 -0.36964211202E+02 -0.46814423231E+02 -0.53281307980E+03  0.53614151224E+03  0.00000000000E+00 0.  1.
</event>
<event>
12    1  0.8417180E-002  0.2150223E+03  0.7818608E-02  0.1137864E+00
         21   -1    0    0  501  502  0.00000000000E+00  0.00000000000E+00  0.14150672518E+04  0.14150672518E+04  0.00000000000E+00 0.  1.
         21   -1    0    0  502  503 -0.00000000000E+00 -0.00000000000E+00 -0.32970042965E+02  0.32970042965E+02  0.00000000000E+00 0. -1.
         -6    2    1    2    0  503 -0.12060442818E+03 -0.36402729548E+02  0.77889103771E+03  0.80802590053E+03  0.17425274886E+03 0.  0.
        -24    2    3    3    0    0 -0.72312866610E+01  0.15127821779E+02  0.19550983277E+03  0.21148203189E+03  0.78863252546E+02 0.  0.
          6    2    1    2  501    0  0.12060442818E+03  0.36402729548E+02  0.60320617117E+03  0.64001139428E+03  0.17287658331E+03 0.  0.
         24    2    5    5    0    0  0.84608168142E+02 -0.27274275863E+02  0.48615041627E+03  0.50190045514E+03  0.87518063237E+02 0.  0.
          5    1    5    5  501    0  0.35996260035E+02  0.63677005412E+02  0.11705575490E+03  0.13811093914E+03  0.47000000000E+01 0. -1.
        -13    1    6    6    0    0  0.28441180355E+02  0.13174932176E+02  0.32508132293E+03  0.32658895587E+03  0.00000000000E+00 0.  1.
         14    1    6    6    0    0  0.56166987786E+02 -0.40449208039E+02  0.16106909333E+03  0.17531149927E+03  0.00000000000E+00 0. -1.
         -5    1    3    3    0  503 -0.11337314152E+03 -0.51530551327E+02  0.58338120494E+03  0.59654386865E+03  0.47000000000E+01 0.  1.
         13    1    4    4    0    0  0.18665981433E+02  0.18863093607E+02  0.17807181840E+03  0.18003835055E+03  0.00000000000E+00 0. -1.
        -14    1    4    4    0    0 -0.25897268094E+02 -0.37352718278E+01  0.17438014373E+02  0.31443681331E+02  0.00000000000E+00 0.  1.
</event>
<event>
12    1  0.8417180E-002  0.3261577E+03  0.7818608E-02  0.1072884E+00
         21   -1    0    0  501  502  0.00000000000E+00  0.00000000000E+00  0.52811720193E+03  0.52811720193E+03  0.00000000000E+00 0. -1.
         21   -1    0    0  502  503 -0.00000000000E+00 -0.00000000000E+00 -0.33057631052E+03  0.33057631052E+03  0.00000000000E+00 0.  1.
         -6    2    1    2    0  503  0.27291943399E+03 -0.46606744905E+02 -0.16981178598E+03  0.36744325864E+03  0.17181763456E+03 0.  0.
        -24    2    3    3    0    0  0.20622907464E+03 -0.27466454882E+02 -0.48900145745E+02  0.22795967725E+03  0.79306701049E+02 0.  0.
          6    2    1    2  501    0 -0.27291943399E+03  0.46606744905E+02  0.36735267738E+03  0.49125025380E+03  0.17239958284E+03 0.  0.
         24    2    5    5    0    0 -0.19981821714E+03 -0.32617501323E+02  0.25528607202E+03  0.33568263786E+03  0.80750439589E+02 0.  0.
          5    1    5    5  501    0 -0.73101216845E+02  0.79224246229E+02  0.11206660536E+03  0.15556761595E+03  0.47000000000E+01 0. -1.
        -11    1    6    6    0    0 -0.23344934169E+02 -0.72909774570E+01  0.87535228401E+02  0.90887625752E+02  0.00000000000E+00 0.  1.
         12    1    6    6    0    0 -0.17647328297E+03 -0.25326523866E+02  0.16775084362E+03  0.24479501210E+03  0.00000000000E+00 0. -1.
         -5    1    3    3    0  503  0.66690359352E+02 -0.19140290023E+02 -0.12091164024E+03  0.13948358139E+03  0.47000000000E+01 0.  1.
         11    1    4    4    0    0 -0.12217809046E+01 -0.11916168969E+02 -0.11473408531E+02  0.16586950738E+02  0.00000000000E+00 0. -1.
        -12    1    4    4    0    0  0.20745085554E+03 -0.15550285913E+02 -0.37426737213E+02  0.21137272652E+03  0.00000000000E+00 0.  1.
</event>
<event>
12    1  0.8417180E-002  0.2112089E+03  0.7818608E-02  0.1143367E+00
         21   -1    0    0  503  502  0.00000000000E+00  0.00000000000E+00  0.59122667801E+02  0.59122667801E+02  0.00000000000E+00 0. -1.
         21   -1    0    0  501  503 -0.00000000000E+00 -0.00000000000E+00 -0.10786157454E+04  0.10786157454E+04  0.00000000000E+00 0. -1.
          6    2    1    2  501    0  0.84824763155E+02 -0.47221366555E+02 -0.85461074249E+03  0.88032308578E+03  0.18757429532E+03 0.  0.
         24    2    3    3    0    0  0.55543610881E+01 -0.77605640681E+02 -0.32053107444E+03  0.33951796137E+03  0.80490931277E+02 0.  0.
         -6    2    1    2    0  502 -0.84824763155E+02  0.47221366555E+02 -0.16488233507E+03  0.25741532738E+03  0.17219572716E+03 0.  0.
        -24    2    5    5    0    0 -0.11455691425E+03  0.21564046945E+02 -0.75708252703E+02  0.15986326014E+03  0.78969789754E+02 0.  0.
          5    1    3    3  501    0  0.79270402067E+02  0.30384274127E+02 -0.53407966805E+03  0.54080512441E+03  0.47000000000E+01 0. -1.
        -13    1    4    4    0    0  0.24630999934E+02 -0.73176818189E+02 -0.15848158564E+03  0.17628938104E+03  0.00000000000E+00 0.  1.
         14    1    4    4    0    0 -0.19076638846E+02 -0.44288224923E+01 -0.16204948879E+03  0.16322858033E+03  0.00000000000E+00 0. -1.
         -5    1    5    5    0  502  0.29732151090E+02  0.25657319610E+02 -0.89174082362E+02  0.97552067242E+02  0.47000000000E+01 0.  1.
         11    1    6    6    0    0 -0.35277803389E+02 -0.17055154163E+02  0.60027772553E+01  0.39641329825E+02  0.00000000000E+00 0. -1.
        -12    1    6    6    0    0 -0.79279110856E+02  0.38619201108E+02 -0.81711029959E+02  0.12022193032E+03  0.00000000000E+00 0.  1.
</event>
<event>
12    1  0.8417180E-002  0.2413914E+03  0.7818608E-02  0.1118963E+00
         21   -1    0    0  501  502  0.00000000000E+00  0.00000000000E+00  0.17192109305E+03  0.17192109305E+03  0.00000000000E+00 0. -1.
         21   -1    0    0  502  503 -0.00000000000E+00 -0.00000000000E+00 -0.54418072383E+03  0.54418072383E+03  0.00000000000E+00 0. -1.
         -6    2    1    2    0  503  0.16879581173E+03 -0.11731975547E+01 -0.40631310625E+03  0.47232025058E+03  0.17176343136E+03 0.  0.
        -24    2    3    3    0    0  0.87122323360E+02 -0.64035629210E+02 -0.19020060466E+03  0.23284384808E+03  0.79681406471E+02 0.  0.
          6    2    1    2  501    0 -0.16879581173E+03  0.11731975547E+01  0.34053475470E+02  0.24378156629E+03  0.17255842612E+03 0.  0.
         24    2    5    5    0    0 -0.11655663416E+03 -0.40988592290E+02 -0.30754977453E+02  0.15035365951E+03  0.79967747406E+02 0.  0.
          5    1    5    5  501    0 -0.52239177563E+02  0.42161789844E+02  0.64808452923E+02  0.93427906781E+02  0.47000000000E+01 0. -1.
        -11    1    6    6    0    0 -0.91109738467E+01 -0.10948419313E+02  0.22577934700E+02  0.26695334147E+02  0.00000000000E+00 0.  1.
         12    1    6    6    0    0 -0.10744566032E+03 -0.30040172976E+02 -0.53332912153E+02  0.12365832537E+03  0.00000000000E+00 0. -1.
         -5    1    3    3    0  503  0.81673488368E+02  0.62862431655E+02 -0.21611250158E+03  0.23947640250E+03  0.47000000000E+01 0.  1.
         13    1    4    4    0    0  0.91426293192E+02 -0.34889835372E+02 -0.10909538514E+03  0.14655330347E+03  0.00000000000E+00 0. -1.
        -14    1    4    4    0    0 -0.43039698314E+01 -0.29145793838E+02 -0.81105219524E+02  0.86290544608E+02  0.00000000000E+00 0.  1.
</event>
<event>
12    1  0.8417180E-002  0.1828798E+03  0.7818608E-02  0.1165199E+00
         21   -1    0    0  501  502  0.00000000000E+00  0.00000000000E+00  0.12365403814E+03  0.12365403814E+03  0.00000000000E+00 0. -1.
         21   -1    0    0  502  503 -0.00000000000E+00 -0.00000000000E+00 -0.52551400330E+03  0.52551400330E+03  0.00000000000E+00 0. -1.
         -6    2    1    2    0  503  0.27707215091E+02  0.48176272827E+02 -0.42729178603E+03  0.46452841227E+03  0.17355037415E+03 0.  0.
        -24    2    3    3    0    0  0.38200254488E+02 -0.11026054715E+02 -0.37323956695E+03  0.38354229093E+03  0.78842128785E+02 0.  0.
          6    2    1    2  501    0 -0.27707215091E+02 -0.48176272827E+02  0.25431820869E+02  0.18463962917E+03  0.17423080128E+03 0.  0.
         24    2    5    5    0    0 -0.70699507253E+02 -0.63574693243E+02  0.50743560473E+02  0.13221613540E+03  0.76590048861E+02 0.  0.
          5    1    5    5  501    0  0.42992292163E+02  0.15398420416E+02 -0.25311739604E+02  0.52423493765E+02  0.47000000000E+01 0. -1.
        -13    1    6    6    0    0 -0.77744368648E+01 -0.50004095694E+02  0.58253905880E+00  0.50608208884E+02  0.00000000000E+00 0.  1.
         14    1    6    6    0    0 -0.62925070389E+02 -0.13570597549E+02  0.50161021414E+02  0.81607926518E+02  0.00000000000E+00 0. -1.
         -5    1    3    3    0  503 -0.10493039397E+02  0.59202327542E+02 -0.54052219081E+02  0.80986121340E+02  0.47000000000E+01 0.  1.
         11    1    4    4    0    0  0.11886660602E+02 -0.33235447164E+02 -0.70416507859E+02  0.78767837520E+02  0.00000000000E+00 0. -1.
        -12    1    4    4    0    0  0.26313593886E+02  0.22209392448E+02 -0.30282305909E+03  0.30477445341E+03  0.00000000000E+00 0.  1.
</event>
<event>
12    1  0.8417180E-002  0.1864659E+03  0.7818608E-02  0.1163209E+00
         21   -1    0    0  501  502  0.00000000000E+00  0.00000000000E+00  0.19171638325E+02  0.19171638325E+02  0.00000000000E+00 0. -1.
         21   -1    0    0  502  503 -0.00000000000E+00 -0.00000000000E+00 -0.19204343081E+04  0.19204343081E+04  0.00000000000E+00 0. -1.
         -6    2    1    2    0  503 -0.39715692521E+02  0.41040841072E+02 -0.12536657265E+04  0.12674570182E+04  0.17750451397E+03 0.  0.
        -24    2    3    3    0    0  0.44797893511E+02  0.38414864195E+02 -0.56638364823E+03  0.57497728059E+03  0.79535420784E+02 0.  0.
          6    2    1    2  501    0  0.39715692521E+02 -0.41040841072E+02 -0.64759694326E+03  0.67214892814E+03  0.17070645512E+03 0.  0.
         24    2    5    5    0    0  0.53616931540E+02  0.13584084220E+02 -0.55839407879E+03  0.56652521897E+03  0.78022905700E+02 0.  0.
          5    1    5    5  501    0 -0.13901239019E+02 -0.54624925292E+02 -0.89202864471E+02  0.10562370917E+03  0.47000000000E+01 0. -1.
        -13    1    6    6    0    0 -0.56220482668E+01  0.32780033634E+02 -0.20748834966E+03  0.21013698693E+03  0.00000000000E+00 0.  1.
         14    1    6    6    0    0  0.59238979807E+02 -0.19195949414E+02 -0.35090572913E+03  0.35638823204E+03  0.00000000000E+00 0. -1.
         -5    1    3    3    0  503 -0.84513586032E+02  0.26259768768E+01 -0.68728207824E+03  0.69247973764E+03  0.47000000000E+01 0.  1.
         11    1    4    4    0    0  0.90284482424E+01  0.43214354651E+02 -0.46982301425E+03  0.47189263403E+03  0.00000000000E+00 0. -1.
        -12    1    4    4    0    0  0.35769445269E+02 -0.47994904566E+01 -0.96560633975E+02  0.10308464656E+03  0.00000000000E+00 0.  1.
</event>
<event>
12    1  0.8417180E-002  0.2658407E+03  0.7818608E-02  0.1105488E+00
         21   -1    0    0  501  502  0.00000000000E+00  0.00000000000E+00  0.93436244240E+03  0.93436244240E+03  0.00000000000E+00 0.  1.
         21   -1    0    0  502  503 -0.00000000000E+00 -0.00000000000E+00 -0.16494989422E+03  0.16494989422E+03  0.00000000000E+00 0.  1.
         -6    2    1    2    0  503  0.44431552248E+02  0.18770554031E+03 -0.31221985431E+02  0.25569694264E+03  0.16491992422E+03 0.  0.
        -24    2    3    3    0    0  0.47603953058E+02  0.34735974539E+02 -0.28638012992E+02  0.10260050541E+03  0.78955706878E+02 0.  0.
          6    2    1    2  501    0 -0.44431552248E+02 -0.18770554031E+03  0.80063453361E+03  0.84361539397E+03  0.18293098106E+03 0.  0.
         24    2    5    5    0    0 -0.38425187957E+02 -0.21372613337E+03  0.76525500438E+03  0.79904019051E+03  0.75462899226E+02 0.  0.
          5    1    5    5  501    0 -0.60063642907E+01  0.26020593059E+02  0.35379529229E+02  0.44575203461E+02  0.47000000000E+01 0. -1.
        -13    1    6    6    0    0 -0.13112218678E+01 -0.83085815772E+02  0.18031116433E+03  0.19853737197E+03  0.00000000000E+00 0.  1.
         14    1    6    6    0    0 -0.37113966090E+02 -0.13064031760E+03  0.58494384005E+03  0.60050281854E+03  0.00000000000E+00 0. -1.
         -5    1    3    3    0  503 -0.31724008098E+01  0.15296956577E+03 -0.25839724396E+01  0.15309643723E+03  0.47000000000E+01 0.  1.
         11    1    4    4    0    0  0.54898554064E+00  0.41818347749E+02  0.79557074953E+01  0.42571925906E+02  0.00000000000E+00 0. -1.
        -12    1    4    4    0    0  0.47054967517E+02 -0.70823732097E+01 -0.36593720487E+02  0.60028579505E+02  0.00000000000E+00 0.  1.
</event>
<event>
12    1  0.8417180E-002  0.1948729E+03  0.7818608E-02  0.1154332E+00
         21   -1    0    0  501  502  0.00000000000E+00  0.00000000000E+00  0.17859910238E+03  0.17859910238E+03  0.00000000000E+00 0.  1.
         21   -1    0    0  502  503 -0.00000000000E+00 -0.00000000000E+00 -0.30804565694E+03  0.30804565694E+03  0.00000000000E+00 0.  1.
         -6    2    1    2    0  503  0.89993784620E+02  0.16999435374E+02 -0.20072467859E+03  0.27914530008E+03  0.17100830356E+03 0.  0.
        -24    2    3    3    0    0  0.14296626357E+02  0.15598837510E+02 -0.21666054962E+02  0.84681673301E+02  0.79081291078E+02 0.  0.
          6    2    1    2  501    0 -0.89993784620E+02 -0.16999435374E+02  0.71278124031E+02  0.20749945924E+03  0.17201044313E+03 0.  0.
         24    2    5    5    0    0 -0.12432168158E+03 -0.25001690411E+02  0.74630129466E+02  0.17178158506E+03  0.88647006194E+02 0.  0.
          5    1    5    5  501    0  0.34327896962E+02  0.80022550363E+01 -0.33520054343E+01  0.35717874180E+02  0.47000000000E+01 0. -1.
        -11    1    6    6    0    0 -0.10339690474E+03 -0.38069406204E+02  0.20196277261E+02  0.11201825393E+03  0.00000000000E+00 0.  1.
         12    1    6    6    0    0 -0.20924776842E+02  0.13067715793E+02  0.54433852205E+02  0.59763331130E+02  0.00000000000E+00 0. -1.
         -5    1    3    3    0  503  0.75697158263E+02  0.14005978647E+01 -0.17905862363E+03  0.19446362678E+03  0.47000000000E+01 0.  1.
         13    1    4    4    0    0  0.38209400816E+01 -0.31850553088E+02 -0.16280166995E+01  0.32120207868E+02  0.00000000000E+00 0. -1.
        -14    1    4    4    0    0  0.10475686275E+02  0.47449390597E+02 -0.20038038263E+02  0.52561465433E+02  0.00000000000E+00 0.  1.
</event>
<event>
12    1  0.8417180E-002  0.1849464E+03  0.7818608E-02  0.1164219E+00
         21   -1    0    0  501  502  0.00000000000E+00  0.00000000000E+00  0.23588648672E+02  0.23588648672E+02  0.00000000000E+00 0. -1.
         21   -1    0    0  502  503 -0.00000000000E+00 -0.00000000000E+00 -0.14408296464E+04  0.14408296464E+04  0.00000000000E+00 0. -1.
         -6    2    1    2    0  503  0.51990236629E+01 -0.53895485077E+02 -0.61632322407E+03  0.64347455553E+03  0.17684296404E+03 0.  0.
        -24    2    3    3    0    0  0.32796651131E+02 -0.54021381016E+01 -0.14152527889E+03  0.16538626610E+03  0.78856889544E+02 0.  0.
          6    2    1    2  501    0 -0.51990236629E+01  0.53895485077E+02 -0.80091777369E+03  0.82094373958E+03  0.17189412489E+03 0.  0.
         24    2    5    5    0    0  0.33230858795E+02 -0.22715710075E+02 -0.48373894161E+03  0.49235488917E+03  0.82399513351E+02 0.  0.
          5    1    5    5  501    0 -0.38429882458E+02  0.76611195152E+02 -0.31717883209E+03  0.32858885041E+03  0.47000000000E+01 0. -1.
        -13    1    6    6    0    0  0.12725506214E+02 -0.44592749589E+02 -0.14371501596E+03  0.15101144869E+03  0.00000000000E+00 0.  1.
         14    1    6    6    0    0  0.20505352582E+02  0.21877039514E+02 -0.34002392565E+03  0.34134344048E+03  0.00000000000E+00 0. -1.
         -5    1    3    3    0  503 -0.27597627468E+02 -0.48493346976E+02 -0.47479794518E+03  0.47808828943E+03  0.47000000000E+01 0.  1.
         13    1    4    4    0    0  0.45307854893E+02 -0.28888626559E+02 -0.64820196246E+02  0.84196272488E+02  0.00000000000E+00 0. -1.
        -14    1    4    4    0    0 -0.12511203762E+02  0.23486488457E+02 -0.76705082643E+02  0.81189993613E+02  0.00000000000E+00 0.  1.
</event>
<event>
12    1  0.8417180E-002  0.1839947E+03  0.7818608E-02  0.1164668E+00
         21   -1    0    0  503  502  0.00000000000E+00  0.00000000000E+00  0.36002643093E+03  0.36002643093E+03  0.00000000000E+00 0. -1.
         21   -1    0    0  501  503 -0.00000000000E+00 -0.00000000000E+00 -0.95015663582E+02  0.95015663582E+02  0.00000000000E+00 0.  1.
          6    2    1    2  501    0  0.65561448632E+02 -0.19353518038E+02  0.97097364050E+02  0.20804313095E+03  0.17082500995E+03 0.  0.
         24    2    3    3    0    0  0.97841638707E+02 -0.48042314691E+02  0.51272362927E+02  0.14489981418E+03  0.80536021039E+02 0.  0.
         -6    2    1    2    0  502 -0.65561448632E+02  0.19353518038E+02  0.16791340330E+03  0.24699896356E+03  0.16775194421E+03 0.  0.
        -24    2    5    5    0    0  0.22745583172E+02  0.36806282068E+02  0.89673171287E+02  0.12764086897E+03  0.79867702045E+02 0.  0.
          5    1    3    3  501    0 -0.32280190076E+02  0.28688796653E+02  0.45825001123E+02  0.63143316770E+02  0.47000000000E+01 0. -1.
        -13    1    4    4    0    0  0.11166058585E+02 -0.26242386958E+02 -0.16306276616E+02  0.32851763950E+02  0.00000000000E+00 0.  1.
         14    1    4    4    0    0  0.86675580123E+02 -0.21799927733E+02  0.67578639543E+02  0.11204805023E+03  0.00000000000E+00 0. -1.
         -5    1    5    5    0  502 -0.88307031803E+02 -0.17452764029E+02  0.78240232014E+02  0.11935809459E+03  0.47000000000E+01 0.  1.
         13    1    6    6    0    0 -0.10536126307E+02 -0.87243365714E+01  0.64404271315E+02  0.65840976373E+02  0.00000000000E+00 0. -1.
        -14    1    6    6    0    0  0.33281709479E+02  0.45530618639E+02  0.25268899972E+02  0.61799892600E+02  0.00000000000E+00 0.  1.
</event>
<event>
12    1  0.8417180E-002  0.2461289E+03  0.7818608E-02  0.1115994E+00
         21   -1    0    0  501  502  0.00000000000E+00  0.00000000000E+00  0.33385995391E+03  0.33385995391E+03  0.00000000000E+00 0.  1.
         21   -1    0    0  502  503 -0.00000000000E+00 -0.00000000000E+00 -0.26864513784E+03  0.26864513784E+03  0.00000000000E+00 0. -1.
         -6    2    1    2    0  503 -0.88486657862E+02  0.15243079165E+03 -0.13993317588E+03  0.28312670171E+03  0.17179755716E+03 0.  0.
        -24    2    3    3    0    0  0.20012896235E+02  0.53796148990E+02 -0.40579848777E+02  0.10594284359E+03  0.79262982025E+02 0.  0.
          6    2    1    2  501    0  0.88486657862E+02 -0.15243079165E+03  0.20514799195E+03  0.31937839005E+03  0.16985824256E+03 0.  0.
         24    2    5    5    0    0  0.20744267007E+02 -0.99562579571E+01  0.92073486657E+02  0.12522392057E+03  0.81694869192E+02 0.  0.
          5    1    5    5  501    0  0.67742390855E+02 -0.14247453369E+03  0.11307450530E+03  0.19415446947E+03  0.47000000000E+01 0. -1.
        -11    1    6    6    0    0  0.82982323115E+01 -0.43905202730E+02  0.69414256429E+02  0.82552204585E+02  0.00000000000E+00 0.  1.
         12    1    6    6    0    0  0.12446034696E+02  0.33948944773E+02  0.22659230228E+02  0.42671715988E+02  0.00000000000E+00 0. -1.
         -5    1    3    3    0  503 -0.10849955410E+03  0.98634642656E+02 -0.99353327102E+02  0.17718385812E+03  0.47000000000E+01 0.  1.
         13    1    4    4    0    0 -0.22664491944E+02  0.20566105071E+01  0.68856385629E+01  0.23776477037E+02  0.00000000000E+00 0. -1.
        -14    1    4    4    0    0  0.42677388179E+02  0.51739538483E+02 -0.47465487340E+02  0.82166366554E+02  0.00000000000E+00 0.  1.
</event>
<event>
12    1  0.8417180E-002  0.1877832E+03  0.7818608E-02  0.1160848E+00
         21   -1    0    0  503  502  0.00000000000E+00  0.00000000000E+00  0.73532013360E+02  0.73532013360E+02  0.00000000000E+00 0.  1.
         21   -1    0    0  501  503 -0.00000000000E+00 -0.00000000000E+00 -0.50855639959E+03  0.50855639959E+03  0.00000000000E+00 0.  1.
          6    2    1    2  501    0 -0.72249931975E+02  0.12415489713E+02 -0.14411713575E+03  0.23671140210E+03  0.17288245143E+03 0.  0.
         24    2    3    3    0    0 -0.51830262218E+02  0.34012478626E+02 -0.17039166588E+03  0.19676351384E+03  0.76415546807E+02 0.  0.
         -6    2    1    2    0  502  0.72249931975E+02 -0.12415489713E+02 -0.29090725048E+03  0.34537701085E+03  0.17112584313E+03 0.  0.
        -24    2    5    5    0    0  0.45976079628E+02  0.42189536018E+02 -0.25546328969E+03  0.27501801350E+03  0.80496326124E+02 0.  0.
          5    1    3    3  501    0 -0.20419669756E+02 -0.21596988913E+02  0.26274530129E+02  0.39947888262E+02  0.47000000000E+01 0. -1.
        -11    1    4    4    0    0  0.11496924012E+02 -0.14475496480E+02 -0.36560287108E+02  0.40967961305E+02  0.00000000000E+00 0.  1.
         12    1    4    4    0    0 -0.63327186231E+02  0.48487975106E+02 -0.13383137877E+03  0.15579555254E+03  0.00000000000E+00 0. -1.
         -5    1    5    5    0  502  0.26273852346E+02 -0.54605025730E+02 -0.35443960788E+02  0.70358997353E+02  0.47000000000E+01 0.  1.
         11    1    6    6    0    0  0.12435790264E+02  0.57030435465E+01 -0.20067151079E+03  0.20113733822E+03  0.00000000000E+00 0. -1.
        -12    1    6    6    0    0  0.33540289364E+02  0.36486492471E+02 -0.54791778906E+02  0.73880675275E+02  0.00000000000E+00 0.  1.
</event>
<event>
12    1  0.8417180E-002  0.2816003E+03  0.7818608E-02  0.1094899E+00
         21   -1    0    0  503  502  0.00000000000E+00  0.00000000000E+00  0.21469731359E+03  0.21469731359E+03  0.00000000000E+00 0. -1.
         21   -1    0    0  501  503 -0.00000000000E+00 -0.00000000000E+00 -0.37088498860E+03  0.37088498860E+03  0.00000000000E+00 0.  1.
          6    2    1    2  501    0 -0.17132427160E+03  0.14187570760E+03 -0.55028585794E+02  0.28692661755E+03  0.17267893952E+03 0.  0.
         24    2    3    3    0    0 -0.15064735690E+03  0.39547167492E+02 -0.16113048591E+02  0.17541350640E+03  0.79067460403E+02 0.  0.
         -6    2    1    2    0  502  0.17132427160E+03 -0.14187570760E+03 -0.10115908922E+03  0.29865568464E+03  0.17170129351E+03 0.  0.
        -24    2    5    5    0    0  0.78914404412E+02 -0.75923850373E+02  0.15056236417E+02  0.13612161764E+03  0.79438594233E+02 0.  0.
          5    1    3    3  501    0 -0.20676914704E+02  0.10232854011E+03 -0.38915537203E+02  0.11151311115E+03  0.47000000000E+01 0. -1.
        -11    1    4    4    0    0 -0.13229290586E+03  0.22002008279E+02 -0.40617857348E+02  0.14012605626E+03  0.00000000000E+00 0.  1.
         12    1    4    4    0    0 -0.18354451046E+02  0.17545159213E+02  0.24504808757E+02  0.35287450138E+02  0.00000000000E+00 0. -1.
         -5    1    5    5    0  502  0.92409867193E+02 -0.65951857224E+02 -0.11621532563E+03  0.16253406701E+03  0.47000000000E+01 0.  1.
         13    1    6    6    0    0  0.43826017686E+02 -0.84899406274E+02 -0.31275085466E+01  0.95595032934E+02  0.00000000000E+00 0. -1.
        -14    1    6    6    0    0  0.35088386726E+02  0.89755559010E+01  0.18183744963E+02  0.40526584703E+02  0.00000000000E+00 0.  1.
</event>
<event>
12    1  0.8417180E-002  0.2393908E+03  0.7818608E-02  0.1120322E+00
         21   -1    0    0  503  502  0.00000000000E+00  0.00000000000E+00  0.20214223539E+03  0.20214223539E+03  0.00000000000E+00 0. -1.
         21   -1    0    0  501  503 -0.00000000000E+00 -0.00000000000E+00 -0.64404895542E+03  0.64404895542E+03  0.00000000000E+00 0. -1.
          6    2    1    2  501    0 -0.14650567447E+03  0.78249486621E+02 -0.53804432792E+03  0.58889696539E+03  0.17239791828E+03 0.  0.
         24    2    3    3    0    0 -0.33939560002E+02  0.60371366301E+02 -0.14377882335E+03  0.17846044727E+03  0.79869804014E+02 0.  0.
         -6    2    1    2    0  502  0.14650567447E+03 -0.78249486621E+02  0.96137607889E+02  0.25729422542E+03  0.17137964867E+03 0.  0.
        -24    2    5    5    0    0  0.10595525164E+03  0.13340948377E+02  0.73315343768E+02  0.15445410527E+03  0.84121547464E+02 0.  0.
          5    1    3    3  501    0 -0.11256611446E+03  0.17878120320E+02 -0.39426550457E+03  0.41043651812E+03  0.47000000000E+01 0. -1.
        -13    1    4    4    0    0  0.68004932146E+01 -0.99117051604E+01  0.13966996177E+01  0.12101213864E+02  0.00000000000E+00 0.  1.
         14    1    4    4    0    0 -0.40740053217E+02  0.70283071462E+02 -0.14517552297E+03  0.16635923341E+03  0.00000000000E+00 0. -1.
         -5    1    5    5    0  502  0.40550422824E+02 -0.91590434998E+02  0.22822264121E+02  0.10284012016E+03  0.47000000000E+01 0.  1.
         13    1    6    6    0    0  0.81022087818E+02 -0.22097994829E+02  0.21081897636E+02  0.86587219021E+02  0.00000000000E+00 0. -1.
        -14    1    6    6    0    0  0.24933163823E+02  0.35438943206E+02  0.52233446131E+02  0.67866886244E+02  0.00000000000E+00 0.  1.
</event>
<event>
12    1  0.8417180E-002  0.1817373E+03  0.7818608E-02  0.1167329E+00
         21   -1    0    0  503  502  0.00000000000E+00  0.00000000000E+00  0.11983365182E+04  0.11983365182E+04  0.00000000000E+00 0.  1.
         21   -1    0    0  501  503 -0.00000000000E+00 -0.00000000000E+00 -0.11083953573E+03  0.11083953573E+03  0.00000000000E+00 0.  1.
          6    2    1    2  501    0 -0.18499880779E+02 -0.37454434062E+02 -0.27971155756E+02  0.17900013928E+03  0.17179518063E+03 0.  0.
         24    2    3    3    0    0  0.49165294852E+01  0.39561513214E+01 -0.76675680703E+02  0.11075509842E+03  0.79672507303E+02 0.  0.
         -6    2    1    2    0  502  0.18499880779E+02  0.37454434062E+02  0.11154681382E+04  0.11301759146E+04  0.17687099937E+03 0.  0.
        -24    2    5    5    0    0  0.35584088608E+01 -0.46348746674E+02  0.58100261145E+03  0.58895349271E+03  0.84506292532E+02 0.  0.
          5    1    3    3  501    0 -0.23416410264E+02 -0.41410585383E+02  0.48704524947E+02  0.68245040858E+02  0.47000000000E+01 0. -1.
        -13    1    4    4    0    0 -0.17811383065E+02 -0.15188275953E+02 -0.77570305608E+02  0.81025189943E+02  0.00000000000E+00 0.  1.
         14    1    4    4    0    0  0.22727912550E+02  0.19144427275E+02  0.89462490522E+00  0.29729908480E+02  0.00000000000E+00 0. -1.
         -5    1    5    5    0  502  0.14941471918E+02  0.83803180736E+02  0.53446552678E+03  0.54122242193E+03  0.47000000000E+01 0.  1.
         13    1    6    6    0    0 -0.89051095272E+01  0.69142343295E-01  0.36832853974E+01  0.96370300235E+01  0.00000000000E+00 0. -1.
        -14    1    6    6    0    0  0.12463518388E+02 -0.46417889017E+02  0.57731932605E+03  0.57931646269E+03  0.00000000000E+00 0.  1.
</event>
<event>
12    1  0.8417180E-002  0.1788306E+03  0.7818608E-02  0.1168986E+00
         21   -1    0    0  503  502  0.00000000000E+00  0.00000000000E+00  0.11414797449E+03  0.11414797449E+03  0.00000000000E+00 0. -1.
         21   -1    0    0  501  503 -0.00000000000E+00 -0.00000000000E+00 -0.33933835498E+03  0.33933835498E+03  0.00000000000E+00 0. -1.
          6    2    1    2  501    0  0.33178369663E+02  0.35862063684E+02 -0.20756377769E+03  0.27397645922E+03  0.17202757503E+03 0.  0.
         24    2    3    3    0    0 -0.26827303951E+02  0.42670247349E+02 -0.18713277824E+03  0.21005034586E+03  0.81006276658E+02 0.  0.
         -6    2    1    2    0  502 -0.33178369663E+02 -0.35862063684E+02 -0.17626602802E+02  0.17950987025E+03  0.17183190788E+03 0.  0.
        -24    2    5    5    0    0 -0.82868014860E+02 -0.46424013648E+02  0.56348804286E+01  0.12344025077E+03  0.78634894943E+02 0.  0.
          5    1    3    3  501    0  0.60005673614E+02 -0.68081836648E+01 -0.20430999452E+02  0.63926113360E+02  0.47000000000E+01 0. -1.
        -11    1    4    4    0    0 -0.31899963579E+02 -0.56004469530E+01 -0.25307047958E+02  0.41102546864E+02  0.00000000000E+00 0.  1.
         12    1    4    4    0    0  0.50726596282E+01  0.48270694302E+02 -0.16182573028E+03  0.16894779900E+03  0.00000000000E+00 0. -1.
         -5    1    5    5    0  502  0.49689645197E+02  0.10561949964E+02 -0.23261483231E+02  0.56069619482E+02  0.47000000000E+01 0.  1.
         13    1    6    6    0    0  0.10918424505E+02 -0.21701396748E+02 -0.78207653627E+01  0.25521108623E+02  0.00000000000E+00 0. -1.
        -14    1    6    6    0    0 -0.93786439364E+02 -0.24722616899E+02  0.13455645791E+02  0.97919142146E+02  0.00000000000E+00 0.  1.
</event>
<event>
12    1  0.8417180E-002  0.1806927E+03  0.7818608E-02  0.1167707E+00
         21   -1    0    0  503  502  0.00000000000E+00  0.00000000000E+00  0.12670879987E+03  0.12670879987E+03  0.00000000000E+00 0.  1.
         21   -1    0    0  501  503 -0.00000000000E+00 -0.00000000000E+00 -0.55000746745E+03  0.55000746745E+03  0.00000000000E+00 0.  1.
          6    2    1    2  501    0 -0.51092240773E+02  0.15127724888E+01 -0.45909291037E+03  0.49251239002E+03  0.17084919790E+03 0.  0.
         24    2    3    3    0    0 -0.45021273399E+02  0.49900808833E+02 -0.41440034976E+03  0.42619667785E+03  0.73477564951E+02 0.  0.
         -6    2    1    2    0  502  0.51092240773E+02 -0.15127724888E+01  0.35794242794E+02  0.18420387730E+03  0.17331224725E+03 0.  0.
        -24    2    5    5    0    0  0.55858645403E+02 -0.64225561979E+02  0.33079408818E+02  0.12107644347E+03  0.79499350928E+02 0.  0.
          5    1    3    3  501    0 -0.60709673742E+01 -0.48388036344E+02 -0.44692560610E+02  0.66315712165E+02  0.47000000000E+01 0. -1.
        -13    1    4    4    0    0 -0.47895488619E+02  0.47878937790E+02 -0.18896614631E+03  0.20073508653E+03  0.00000000000E+00 0.  1.
         14    1    4    4    0    0  0.28742152201E+01  0.20218710434E+01 -0.22543420345E+03  0.22546159132E+03  0.00000000000E+00 0. -1.
         -5    1    5    5    0  502 -0.47664046305E+01  0.62712789490E+02  0.27148339766E+01  0.63127433832E+02  0.47000000000E+01 0.  1.
         11    1    6    6    0    0 -0.48052380567E+01 -0.33122083214E+02 -0.15978195049E+02  0.37087267710E+02  0.00000000000E+00 0. -1.
        -12    1    6    6    0    0  0.60663883460E+02 -0.31103478765E+02  0.49057603867E+02  0.83989175760E+02  0.00000000000E+00 0.  1.
</event>
<event>
12    1  0.8417180E-002  0.3334811E+03  0.7818608E-02  0.1069775E+00
         21   -1    0    0  503  502  0.00000000000E+00  0.00000000000E+00  0.50483936042E+03  0.50483936042E+03  0.00000000000E+00 0. -1.
         21   -1    0    0  501  503 -0.00000000000E+00 -0.00000000000E+00 -0.31990301354E+03  0.31990301354E+03  0.00000000000E+00 0.  1.
          6    2    1    2  501    0  0.26841038369E+03 -0.94843977934E+02  0.32360506503E+03  0.46357946414E+03  0.17072248602E+03 0.  0.
         24    2    3    3    0    0  0.16251412824E+03 -0.40066138239E+02  0.28490831112E+03  0.33814359446E+03  0.71778878614E+02 0.  0.
         -6    2    1    2    0  502 -0.26841038369E+03  0.94843977934E+02 -0.13866871815E+03  0.36116290983E+03  0.17369548014E+03 0.  0.
        -24    2    5    5    0    0 -0.39533599330E+02  0.37931145894E+02 -0.25455420024E+02  0.99508569637E+02  0.79071484859E+02 0.  0.
          5    1    3    3  501    0  0.10589625544E+03 -0.54777839695E+02  0.38696753910E+02  0.12543586968E+03  0.47000000000E+01 0. -1.
        -11    1    4    4    0    0  0.47171986088E+02 -0.86907735167E+01  0.15200673044E+03  0.15939501847E+03  0.00000000000E+00 0.  1.
         12    1    4    4    0    0  0.11534214216E+03 -0.31375364722E+02  0.13290158068E+03  0.17874857598E+03  0.00000000000E+00 0. -1.
         -5    1    5    5    0  502 -0.22887678436E+03  0.56912832040E+02 -0.11321329813E+03  0.26165434019E+03  0.47000000000E+01 0.  1.
         11    1    6    6    0    0 -0.24836432168E+02  0.27813143420E+02  0.25728826983E+02  0.45303331529E+02  0.00000000000E+00 0. -1.
        -12    1    6    6    0    0 -0.14697167162E+02  0.10118002474E+02 -0.51184247007E+02  0.54205238108E+02  0.00000000000E+00 0.  1.
</event>
<event>
12    1  0.8417180E-002  0.2050524E+03  0.7818608E-02  0.1145714E+00
         21   -1    0    0  501  502  0.00000000000E+00  0.00000000000E+00  0.27483673928E+03  0.27483673928E+03  0.00000000000E+00 0.  1.
         21   -1    0    0  502  503 -0.00000000000E+00 -0.00000000000E+00 -0.20331431059E+03  0.20331431059E+03  0.00000000000E+00 0.  1.
         -6    2    1    2    0  503  0.10530824605E+03  0.34696254431E+02 -0.83964014223E+02  0.22081365048E+03  0.17150817998E+03 0.  0.
        -24    2    3    3    0    0  0.11526074671E+02  0.56031781446E+02 -0.67905652965E+01  0.97411334460E+02  0.78552182496E+02 0.  0.
          6    2    1    2  501    0 -0.10530824605E+03 -0.34696254431E+02  0.15548644291E+03  0.25733739939E+03  0.17249013433E+03 0.  0.
         24    2    5    5    0    0 -0.33784495889E+01 -0.59637402322E+02  0.63999187795E+02  0.11804004797E+03  0.79180320847E+02 0.  0.
          5    1    5    5  501    0 -0.10192979646E+03  0.24941147892E+02  0.91487255118E+02  0.13929735142E+03  0.47000000000E+01 0. -1.
        -11    1    6    6    0    0 -0.32590229568E+02 -0.58852896107E+02  0.56546733080E+02  0.87882418409E+02  0.00000000000E+00 0.  1.
         12    1    6    6    0    0  0.29211779980E+02 -0.78450621548E+00  0.74524547153E+01  0.30157629563E+02  0.00000000000E+00 0. -1.
         -5    1    3    3    0  503  0.93782171375E+02 -0.21335527015E+02 -0.77173448927E+02  0.12340231602E+03  0.47000000000E+01 0.  1.
         11    1    4    4    0    0 -0.25212776121E+02  0.18373004193E+01  0.13768333994E+02  0.28785878022E+02  0.00000000000E+00 0. -1.
        -12    1    4    4    0    0  0.36738850792E+02  0.54194481026E+02 -0.20558899290E+02  0.68625456437E+02  0.00000000000E+00 0.  1.
</event>
<event>
12    1  0.8417180E-002  0.2447354E+03  0.7818608E-02  0.1118341E+00
         21   -1    0    0  501  502  0.00000000000E+00  0.00000000000E+00  0.14811063332E+03  0.14811063332E+03  0.00000000000E+00 0. -1.
         21   -1    0    0  502  503 -0.00000000000E+00 -0.00000000000E+00 -0.94248593543E+03  0.94248593543E+03  0.00000000000E+00 0. -1.
         -6    2    1    2    0  503 -0.15393356612E+03 -0.80854979499E+02 -0.81198399354E+03  0.84522848952E+03  0.15767093344E+03 0.  0.
        -24    2    3    3    0    0 -0.16199519258E+03 -0.43786266399E+02 -0.74593454890E+03  0.76891532913E+03  0.81564407600E+02 0.  0.
          6    2    1    2  501    0  0.15393356612E+03  0.80854979499E+02  0.17608691433E+02  0.24536807923E+03  0.17222763368E+03 0.  0.
         24    2    5    5    0    0  0.11377684652E+03  0.45462221607E+02 -0.53642115265E+02  0.15612696261E+03  0.80536746435E+02 0.  0.
          5    1    5    5  501    0  0.40156719602E+02  0.35392757891E+02  0.71250806698E+02  0.89241116620E+02  0.47000000000E+01 0. -1.
        -13    1    6    6    0    0  0.69126234780E+02  0.56773484961E+02 -0.62629064688E+02  0.10919736569E+03  0.00000000000E+00 0.  1.
         14    1    6    6    0    0  0.44650611738E+02 -0.11311263354E+02  0.89869494228E+01  0.46929596921E+02  0.00000000000E+00 0. -1.
         -5    1    3    3    0  503  0.80616264602E+01 -0.37068713099E+02 -0.66049444641E+02  0.76313160394E+02  0.47000000000E+01 0.  1.
         11    1    4    4    0    0 -0.84766497819E+02 -0.28411619068E+02 -0.22580663357E+03  0.24286048467E+03  0.00000000000E+00 0. -1.
        -12    1    4    4    0    0 -0.77228694761E+02 -0.15374647332E+02 -0.52012791533E+03  0.52605484446E+03  0.00000000000E+00 0.  1.
</event>
<event>
12    1  0.8417180E-002  0.2355767E+03  0.7818608E-02  0.1122884E+00
         21   -1    0    0  503  502  0.00000000000E+00  0.00000000000E+00  0.25444981455E+03  0.25444981455E+03  0.00000000000E+00 0. -1.
         21   -1    0    0  501  503 -0.00000000000E+00 -0.00000000000E+00 -0.22947055083E+03  0.22947055083E+03  0.00000000000E+00 0.  1.
          6    2    1    2  501    0  0.12120489180E+03  0.10660145602E+03 -0.42761263779E+02  0.23879762512E+03  0.17070818334E+03 0.  0.
         24    2    3    3    0    0  0.12906094222E+03  0.29197394561E+02 -0.45133391728E+02  0.16081799156E+03  0.79474453151E+02 0.  0.
         -6    2    1    2    0  502 -0.12120489180E+03 -0.10660145602E+03  0.67740527505E+02  0.24512274026E+03  0.17158637040E+03 0.  0.
        -24    2    5    5    0    0 -0.73078938630E+01 -0.23255167445E+01  0.31914002827E+02  0.86530093772E+02  0.80063351235E+02 0.  0.
          5    1    3    3  501    0 -0.78560504252E+01  0.77404061459E+02  0.23721279489E+01  0.77979633557E+02  0.47000000000E+01 0. -1.
        -13    1    4    4    0    0  0.44282084193E+02  0.13598927479E+02 -0.57386194777E+02  0.73749638372E+02  0.00000000000E+00 0.  1.
         14    1    4    4    0    0  0.84778858029E+02  0.15598467082E+02  0.12252803049E+02  0.87068353186E+02  0.00000000000E+00 0. -1.
         -5    1    5    5    0  502 -0.11389699793E+03 -0.10427593927E+03  0.35826524678E+02  0.15859264649E+03  0.47000000000E+01 0.  1.
         11    1    6    6    0    0  0.15250307112E+02 -0.12803018440E+02  0.51278033413E+02  0.55008416255E+02  0.00000000000E+00 0. -1.
        -12    1    6    6    0    0 -0.22558200975E+02  0.10477501695E+02 -0.19364030586E+02  0.31521677517E+02  0.00000000000E+00 0.  1.
</event>
<event>
12    1  0.8417180E-002  0.2358616E+03  0.7818608E-02  0.1122670E+00
         21   -1    0    0  503  502  0.00000000000E+00  0.00000000000E+00  0.10707984520E+04  0.10707984520E+04  0.00000000000E+00 0.  1.
         21   -1    0    0  501  503 -0.00000000000E+00 -0.00000000000E+00 -0.59226012581E+02  0.59226012581E+02  0.00000000000E+00 0.  1.
          6    2    1    2  501    0  0.43780236390E+01 -0.16171151450E+03  0.30671479432E+03  0.38691686013E+03  0.17164180897E+03 0.  0.
         24    2    3    3    0    0 -0.15212273317E+02 -0.18352040015E+03  0.23012591439E+03  0.30477458261E+03  0.77578729032E+02 0.  0.
         -6    2    1    2    0  502 -0.43780236390E+01  0.16171151450E+03  0.70485764506E+03  0.74310760441E+03  0.17092346510E+03 0.  0.
        -24    2    5    5    0    0 -0.31069958854E+02  0.17514799932E+02  0.28669832206E+03  0.29995473992E+03  0.80652387237E+02 0.  0.
          5    1    3    3  501    0  0.19590296956E+02  0.21808885649E+02  0.76588879928E+02  0.82142277523E+02  0.47000000000E+01 0. -1.
        -13    1    4    4    0    0  0.28517736729E+02 -0.39142935710E+02  0.46634980887E+02  0.67232820605E+02  0.00000000000E+00 0.  1.
         14    1    4    4    0    0 -0.43730010047E+02 -0.14437746444E+03  0.18349093351E+03  0.23754176200E+03  0.00000000000E+00 0. -1.
         -5    1    5    5    0  502  0.26691935215E+02  0.14419671457E+03  0.41815932300E+03  0.44315286449E+03  0.47000000000E+01 0.  1.
         11    1    6    6    0    0  0.26322060670E+02  0.34584569976E+01  0.12526481937E+03  0.12804720525E+03  0.00000000000E+00 0. -1.
        -12    1    6    6    0    0 -0.57392019524E+02  0.14056342934E+02  0.16143350269E+03  0.17190753466E+03  0.00000000000E+00 0.  1.
</event>
<event>
12    1  0.8417180E-002  0.2105570E+03  0.7818608E-02  0.1141283E+00
         21   -1    0    0  503  502  0.00000000000E+00  0.00000000000E+00  0.17732622987E+03  0.17732622987E+03  0.00000000000E+00 0. -1.
         21   -1    0    0  501  503 -0.00000000000E+00 -0.00000000000E+00 -0.36665361363E+03  0.36665361363E+03  0.00000000000E+00 0. -1.
          6    2    1    2  501    0  0.11918903515E+03  0.15511060470E+02  0.59242497941E+02  0.21873251346E+03  0.17288036264E+03 0.  0.
         24    2    3    3    0    0  0.57710478319E+02 -0.69901963097E+01 -0.34926269075E+02  0.10394677311E+03  0.78776425514E+02 0.  0.
         -6    2    1    2    0  502 -0.11918903515E+03 -0.15511060470E+02 -0.24856988171E+03  0.32524733003E+03  0.17190759293E+03 0.  0.
        -24    2    5    5    0    0 -0.13762387583E+03  0.26783603572E+02 -0.21202025525E+03  0.26619949222E+03  0.79068883891E+02 0.  0.
          5    1    3    3  501    0  0.61478556828E+02  0.22501256780E+02  0.94168767016E+02  0.11478574035E+03  0.47000000000E+01 0. -1.
        -13    1    4    4    0    0 -0.19808316926E+02  0.14777449883E+01 -0.56370770627E+01  0.20647755023E+02  0.00000000000E+00 0.  1.
         14    1    4    4    0    0  0.77518795244E+02 -0.84679412981E+01 -0.29289192012E+02  0.83299018090E+02  0.00000000000E+00 0. -1.
         -5    1    5    5    0  502  0.18434840679E+02 -0.42294664042E+02 -0.36549626451E+02  0.59047837818E+02  0.47000000000E+01 0.  1.
         11    1    6    6    0    0 -0.47558264295E+02  0.14336955063E+02 -0.19636820444E+02  0.53412933831E+02  0.00000000000E+00 0. -1.
        -12    1    6    6    0    0 -0.90065611530E+02  0.12446648509E+02 -0.19238343481E+03  0.21278655838E+03  0.00000000000E+00 0.  1.
</event>
<event>
12    1  0.8417180E-002  0.2434852E+03  0.7818608E-02  0.1117495E+00
         21   -1    0    0  501  502  0.00000000000E+00  0.00000000000E+00  0.46567236052E+03  0.46567236052E+03  0.00000000000E+00 0. -1.
         21   -1    0    0  502  503 -0.00000000000E+00 -0.00000000000E+00 -0.15765913456E+03  0.15765913456E+03  0.00000000000E+00 0. -1.
         -6    2    1    2    0  503 -0.72938136712E+02  0.15580321516E+03  0.17250683189E+02  0.24409551918E+03  0.17230909080E+03 0.  0.
        -24    2    3    3    0    0  0.24867616177E+01  0.11611150382E+03  0.54538801564E+02  0.15094595660E+03  0.79511858456E+02 0.  0.
          6    2    1    2  501    0  0.72938136712E+02 -0.15580321516E+03  0.29076254276E+03  0.37923597590E+03  0.17228597012E+03 0.  0.
         24    2    5    5    0    0 -0.90539443080E+01 -0.17790344115E+02  0.73850645477E+02  0.10934133885E+03  0.78122597835E+02 0.  0.
          5    1    5    5  501    0  0.81992081020E+02 -0.13801287105E+03  0.21691189729E+03  0.26989463705E+03  0.47000000000E+01 0. -1.
        -11    1    6    6    0    0  0.19724017850E+02  0.82943472214E+01  0.66439666059E+02  0.69800159756E+02  0.00000000000E+00 0.  1.
         12    1    6    6    0    0 -0.28777962158E+02 -0.26084691336E+02  0.74109794182E+01  0.39541179092E+02  0.00000000000E+00 0. -1.
         -5    1    3    3    0  503 -0.75424898330E+02  0.39691711336E+02 -0.37288118375E+02  0.93149562579E+02  0.47000000000E+01 0.  1.
         13    1    4    4    0    0 -0.33745070732E+02  0.56200959242E+02  0.61589381572E+01  0.65842312669E+02  0.00000000000E+00 0. -1.
        -14    1    4    4    0    0  0.36231832350E+02  0.59910544582E+02  0.48379863407E+02  0.85103643934E+02  0.00000000000E+00 0.  1.
</event>
<event>
12    1  0.8417180E-002  0.2153270E+03  0.7818608E-02  0.1137945E+00
         21   -1    0    0  503  502  0.00000000000E+00  0.00000000000E+00  0.12993555988E+04  0.12993555988E+04  0.00000000000E+00 0. -1.
         21   -1    0    0  501  503 -0.00000000000E+00 -0.00000000000E+00 -0.50094617912E+02  0.50094617912E+02  0.00000000000E+00 0.  1.
          6    2    1    2  501    0 -0.37777979039E+02 -0.11922549648E+03  0.98934437325E+03  0.10119263668E+04  0.17190342683E+03 0.  0.
         24    2    3    3    0    0 -0.27382305269E+02  0.93460631304E+01  0.39926085403E+03  0.40789046913E+03  0.78283240273E+02 0.  0.
         -6    2    1    2    0  502  0.37777979039E+02  0.11922549648E+03  0.25991660760E+03  0.33752384991E+03  0.17528209162E+03 0.  0.
        -24    2    5    5    0    0  0.46305066540E+02  0.30607574855E+02  0.67171386194E+02  0.12515940461E+03  0.89843745539E+02 0.  0.
          5    1    3    3  501    0 -0.10395673770E+02 -0.12857155961E+03  0.59008351922E+03  0.60403589763E+03  0.47000000000E+01 0. -1.
        -11    1    4    4    0    0  0.21972863734E+02  0.77182734050E+01  0.50023095042E+02  0.55178696275E+02  0.00000000000E+00 0.  1.
         12    1    4    4    0    0 -0.49355169003E+02  0.16277897255E+01  0.34923775899E+03  0.35271177286E+03  0.00000000000E+00 0. -1.
         -5    1    5    5    0  502 -0.85270875009E+01  0.88617921627E+02  0.19274522141E+03  0.21236444530E+03  0.47000000000E+01 0.  1.
         11    1    6    6    0    0  0.17450384080E+02 -0.13065405275E+02  0.69424545860E+02  0.72766670169E+02  0.00000000000E+00 0. -1.
        -12    1    6    6    0    0  0.28854682459E+02  0.43672980131E+02 -0.22531596670E+01  0.52392734437E+02  0.00000000000E+00 0.  1.
</event>
<event>
12    1  0.8417180E-002  0.2111747E+03  0.7818608E-02  0.1141556E+00
         21   -1    0    0  501  502  0.00000000000E+00  0.00000000000E+00  0.10043364531E+04  0.10043364531E+04  0.00000000000E+00 0. -1.
         21   -1    0    0  502  503 -0.00000000000E+00 -0.00000000000E+00 -0.43642751454E+02  0.43642751454E+02  0.00000000000E+00 0.  1.
         -6    2    1    2    0  503  0.52622327400E+02 -0.10713631567E+03  0.51095219428E+03  0.55112693018E+03  0.16858662121E+03 0.  0.
        -24    2    3    3    0    0  0.29510535539E+02 -0.13824305721E+03  0.35723704520E+03  0.39253241152E+03  0.80506975192E+02 0.  0.
          6    2    1    2  501    0 -0.52622327400E+02  0.10713631567E+03  0.44974150740E+03  0.49685227441E+03  0.17420522274E+03 0.  0.
         24    2    5    5    0    0 -0.98631305494E+02  0.11037546527E+03  0.36019189820E+03  0.39601309223E+03  0.71953373295E+02 0.  0.
          5    1    5    5  501    0  0.46008978094E+02 -0.32391496011E+01  0.89549609198E+02  0.10083918218E+03  0.47000000000E+01 0. -1.
        -11    1    6    6    0    0 -0.98498021399E+02  0.11350216131E+03  0.36230527253E+03  0.39223680519E+03  0.00000000000E+00 0.  1.
         12    1    6    6    0    0 -0.13328409498E+00 -0.31266960310E+01 -0.21133743327E+01  0.37762870376E+01  0.00000000000E+00 0. -1.
         -5    1    3    3    0  503  0.23111791862E+02  0.31106741538E+02  0.15371514908E+03  0.15859451866E+03  0.47000000000E+01 0.  1.
         11    1    4    4    0    0 -0.21005147904E+02 -0.71539288979E+01  0.48532182517E+02  0.53364479544E+02  0.00000000000E+00 0. -1.
        -12    1    4    4    0    0  0.50515683443E+02 -0.13108912831E+03  0.30870486268E+03  0.33916793197E+03  0.00000000000E+00 0.  1.
</event>
<event>
12    1  0.8417180E-002  0.1737378E+03  0.7818608E-02  0.1174161E+00
         21   -1    0    0  501  502  0.00000000000E+00  0.00000000000E+00  0.10148282667E+03  0.10148282667E+03  0.00000000000E+00 0.  1.
         21   -1    0    0  502  503 -0.00000000000E+00 -0.00000000000E+00 -0.29639150668E+03  0.29639150668E+03  0.00000000000E+00 0.  1.
         -6    2    1    2    0  503  0.55364316455E+01  0.18411378469E+02 -0.96627923114E+02  0.19880089308E+03  0.17267081002E+03 0.  0.
        -24    2    3    3    0    0  0.20699433357E+02  0.57505777124E+02 -0.79325284137E+01  0.10058046920E+03  0.79486633043E+02 0.  0.
          6    2    1    2  501    0 -0.55364316455E+01 -0.18411378469E+02 -0.98280756888E+02  0.19907344027E+03  0.17205085444E+03 0.  0.
         24    2    5    5    0    0  0.19344570786E+02 -0.37965180604E+02 -0.12747985688E+03  0.15575955220E+03  0.78704236445E+02 0.  0.
          5    1    5    5  501    0 -0.24881002432E+02  0.19553802135E+02  0.29199099988E+02  0.43313888074E+02  0.47000000000E+01 0. -1.
        -13    1    6    6    0    0  0.20508014667E+02 -0.40588151983E+02 -0.22493438803E+02  0.50733928846E+02  0.00000000000E+00 0.  1.
         14    1    6    6    0    0 -0.11634438807E+01  0.26229713794E+01 -0.10498641807E+03  0.10502562335E+03  0.00000000000E+00 0. -1.
         -5    1    3    3    0  503 -0.15163001712E+02 -0.39094398655E+02 -0.88695394701E+02  0.98220423886E+02  0.47000000000E+01 0.  1.
         11    1    4    4    0    0 -0.24980310106E+02  0.22721359666E+00  0.67137484637E+01  0.25867777977E+02  0.00000000000E+00 0. -1.
        -12    1    4    4    0    0  0.45679743464E+02  0.57278563528E+02 -0.14646276877E+02  0.74712691218E+02  0.00000000000E+00 0.  1.
</event>
<event>
12    1  0.8417180E-002  0.2924637E+03  0.7818608E-02  0.1089158E+00
         21   -1    0    0  501  502  0.00000000000E+00  0.00000000000E+00  0.11703985748E+04  0.11703985748E+04  0.00000000000E+00 0.  1.
         21   -1    0    0  502  503 -0.00000000000E+00 -0.00000000000E+00 -0.17935999107E+03  0.17935999107E+03  0.00000000000E+00 0. -1.
         -6    2    1    2    0  503  0.85838739788E+02  0.22095273910E+03 -0.24161101137E+02  0.29346001585E+03  0.17130855183E+03 0.  0.
        -24    2    3    3    0    0  0.19272156917E+02  0.18420167524E+03  0.24596309937E+02  0.20301043993E+03  0.79414023084E+02 0.  0.
          6    2    1    2  501    0 -0.85838739788E+02 -0.22095273910E+03  0.10151996848E+04  0.10562985500E+04  0.17014060199E+03 0.  0.
         24    2    5    5    0    0 -0.86967904206E+02 -0.68143402265E+02  0.55123582687E+03  0.56779417955E+03  0.79513230793E+02 0.  0.
          5    1    5    5  501    0  0.11291644182E+01 -0.15280933683E+03  0.46396385796E+03  0.48850437043E+03  0.47000000000E+01 0. -1.
        -13    1    6    6    0    0 -0.23560681701E+02 -0.68786747420E+02  0.29290724271E+03  0.30179691048E+03  0.00000000000E+00 0.  1.
         14    1    6    6    0    0 -0.63407222506E+02  0.64334515505E+00  0.25832858416E+03  0.26599726907E+03  0.00000000000E+00 0. -1.
         -5    1    3    3    0  503  0.66566582871E+02  0.36751063858E+02 -0.48757411075E+02  0.90449575923E+02  0.47000000000E+01 0.  1.
         13    1    4    4    0    0  0.80258914641E+01  0.69603192892E+02 -0.29211235722E+02  0.75909918239E+02  0.00000000000E+00 0. -1.
        -14    1    4    4    0    0  0.11246265452E+02  0.11459848235E+03  0.53807545659E+02  0.12710052169E+03  0.00000000000E+00 0.  1.
</event>
<event>
12    1  0.8417180E-002  0.2879525E+03  0.7818608E-02  0.1092710E+00
         21   -1    0    0  503  502  0.00000000000E+00  0.00000000000E+00  0.87423461812E+03  0.87423461812E+03  0.00000000000E+00 0.  1.
         21   -1    0    0  501  503 -0.00000000000E+00 -0.00000000000E+00 -0.30531421603E+03  0.30531421603E+03  0.00000000000E+00 0. -1.
          6    2    1    2  501    0  0.20095936113E+02  0.21822130236E+03 -0.20737651412E+03  0.35485444046E+03  0.18679473187E+03 0.  0.
         24    2    3    3    0    0  0.19469400986E+01  0.11850802664E+02 -0.51117212600E+02  0.95321728626E+02  0.79555203631E+02 0.  0.
         -6    2    1    2    0  502 -0.20095936113E+02 -0.21822130236E+03  0.77629691622E+03  0.82469439369E+03  0.17163786706E+03 0.  0.
        -24    2    5    5    0    0 -0.60931333798E+02 -0.74829819843E+02  0.42693539006E+03  0.44482045023E+03  0.79241884648E+02 0.  0.
          5    1    3    3  501    0  0.18148996014E+02  0.20637049969E+03 -0.15625930152E+03  0.25953271183E+03  0.47000000000E+01 0. -1.
        -13    1    4    4    0    0 -0.31755038502E+02  0.24680492751E+02 -0.11673807993E+02  0.41878240003E+02  0.00000000000E+00 0.  1.
         14    1    4    4    0    0  0.33701978600E+02 -0.12829690086E+02 -0.39443404607E+02  0.53443488624E+02  0.00000000000E+00 0. -1.
         -5    1    5    5    0  502  0.40835397685E+02 -0.14339148251E+03  0.34936152616E+03  0.37987394347E+03  0.47000000000E+01 0.  1.
         11    1    6    6    0    0 -0.54701870044E+02 -0.89257909964E+02  0.40148453974E+03  0.41490854984E+03  0.00000000000E+00 0. -1.
        -12    1    6    6    0    0 -0.62294637535E+01  0.14428090121E+02  0.25450850314E+02  0.29911900389E+02  0.00000000000E+00 0.  1.
</event>
<event>
12    1  0.8417180E-002  0.1724274E+03  0.7818608E-02  0.1175398E+00
         21   -1    0    0  503  502  0.00000000000E+00  0.00000000000E+00  0.14811657742E+03  0.14811657742E+03  0.00000000000E+00 0.  1.
         21   -1    0    0  501  503 -0.00000000000E+00 -0.00000000000E+00 -0.27649129920E+03  0.27649129920E+03  0.00000000000E+00 0.  1.
          6    2    1    2  501    0  0.18160221071E+01 -0.15646214957E+02  0.47109586144E+02  0.17874705547E+03  0.17170642025E+03 0.  0.
         24    2    3    3    0    0  0.14329322096E+02  0.34402417523E+01  0.95225350230E+02  0.12528592698E+03  0.80072039047E+02 0.  0.
         -6    2    1    2    0  502 -0.18160221071E+01  0.15646214957E+02 -0.17548430793E+03  0.24586082115E+03  0.17147798420E+03 0.  0.
        -24    2    5    5    0    0 -0.42897679375E+02  0.42854284071E+02 -0.54254889134E+02  0.11491562814E+03  0.81149910891E+02 0.  0.
          5    1    3    3  501    0 -0.12513299989E+02 -0.19086456709E+02 -0.48115764086E+02  0.53461128494E+02  0.47000000000E+01 0. -1.
        -11    1    4    4    0    0 -0.21859378986E+02 -0.23721636855E+02  0.59317454397E+02  0.67521173722E+02  0.00000000000E+00 0.  1.
         12    1    4    4    0    0  0.36188701082E+02  0.27161878607E+02  0.35907895834E+02  0.57764753256E+02  0.00000000000E+00 0. -1.
         -5    1    5    5    0  502  0.41081657268E+02 -0.27208069114E+02 -0.12122941880E+03  0.13094519300E+03  0.47000000000E+01 0.  1.
         11    1    6    6    0    0 -0.35303616656E+01  0.58726686536E+02 -0.32701716767E+02  0.67310396259E+02  0.00000000000E+00 0. -1.
        -12    1    6    6    0    0 -0.39367317710E+02 -0.15872402465E+02 -0.21553172367E+02  0.47605231884E+02  0.00000000000E+00 0.  1.
</event>
<event>
12    1  0.8417180E-002  0.2398903E+03  0.7818608E-02  0.1119902E+00
         21   -1    0    0  503  502  0.00000000000E+00  0.00000000000E+00  0.45741623582E+03  0.45741623582E+03  0.00000000000E+00 0. -1.
         21   -1    0    0  501  503 -0.00000000000E+00 -0.00000000000E+00 -0.13488414058E+03  0.13488414058E+03  0.00000000000E+00 0. -1.
          6    2    1    2  501    0  0.87110771944E+02 -0.14258528217E+03  0.83900415181E+02  0.25393304295E+03  0.17182508941E+03 0.  0.
         24    2    3    3    0    0  0.55519625261E+02 -0.16705482739E+03  0.89467634485E+02  0.21331478199E+03  0.80678339419E+02 0.  0.
         -6    2    1    2    0  502 -0.87110771944E+02  0.14258528217E+03  0.23863168006E+03  0.33836733345E+03  0.17212938255E+03 0.  0.
        -24    2    5    5    0    0 -0.63319276806E+02  0.72024522062E+02  0.23224966002E+03  0.26348291392E+03  0.79287317744E+02 0.  0.
          5    1    3    3  501    0  0.31591146683E+02  0.24469545223E+02 -0.55672193037E+01  0.40618260954E+02  0.47000000000E+01 0. -1.
        -13    1    4    4    0    0  0.21299090171E+02 -0.23439806344E+02  0.52185681872E+02  0.61044419532E+02  0.00000000000E+00 0.  1.
         14    1    4    4    0    0  0.34220535090E+02 -0.14361502105E+03  0.37281952613E+02  0.15227036246E+03  0.00000000000E+00 0. -1.
         -5    1    5    5    0  502 -0.23791495138E+02  0.70560760111E+02  0.63820200398E+01  0.74884419528E+02  0.47000000000E+01 0.  1.
         11    1    6    6    0    0 -0.65123066527E+02  0.85834853112E+02  0.21986493433E+03  0.24484530862E+03  0.00000000000E+00 0. -1.
        -12    1    6    6    0    0  0.18037897208E+01 -0.13810331051E+02  0.12384725687E+02  0.18637605303E+02  0.00000000000E+00 0.  1.
</event>
<event>
12    1  0.8417180E-002  0.2851652E+03  0.7818608E-02  0.1092910E+00
         21   -1    0    0  503  502  0.00000000000E+00  0.00000000000E+00  0.79962294800E+03  0.79962294800E+03  0.00000000000E+00 0.  1.
         21   -1    0    0  501  503 -0.00000000000E+00 -0.00000000000E+00 -0.13713362990E+03  0.13713362990E+03  0.00000000000E+00 0.  1.
          6    2    1    2  501    0 -0.18082453919E+03  0.13792625323E+03  0.93095611783E+02  0.29997664916E+03  0.17204078530E+03 0.  0.
         24    2    3    3    0    0 -0.17774031013E+03  0.52391744900E+02  0.77196150602E+02  0.21279553051E+03  0.70612883781E+02 0.  0.
         -6    2    1    2    0  502  0.18082453919E+03 -0.13792625323E+03  0.56939370631E+03  0.63677992874E+03  0.17192533133E+03 0.  0.
        -24    2    5    5    0    0  0.19096186624E+02 -0.38932486016E+02  0.21251814086E+03  0.23262886146E+03  0.84094138772E+02 0.  0.
          5    1    3    3  501    0 -0.30842290538E+01  0.85534508332E+02  0.15899461182E+02  0.87181118657E+02  0.47000000000E+01 0. -1.
        -13    1    4    4    0    0 -0.13656357427E+03  0.63633860847E+02  0.39267017056E+02  0.15569449795E+03  0.00000000000E+00 0.  1.
         14    1    4    4    0    0 -0.41176735861E+02 -0.11242115948E+02  0.37929133546E+02  0.57101032553E+02  0.00000000000E+00 0. -1.
         -5    1    5    5    0  502  0.16172835256E+03 -0.98993767215E+02  0.35687556545E+03  0.40415106728E+03  0.47000000000E+01 0.  1.
         13    1    6    6    0    0 -0.16049328885E+02 -0.46488327259E+02  0.16989507728E+03  0.17687024287E+03  0.00000000000E+00 0. -1.
        -14    1    6    6    0    0  0.35145515510E+02  0.75558412427E+01  0.42623063577E+02  0.55758618581E+02  0.00000000000E+00 0.  1.
</event>
<event>
12    1  0.8417180E-002  0.2511539E+03  0.7818608E-02  0.1112615E+00
         21   -1    0    0  501  502  0.00000000000E+00  0.00000000000E+00  0.93543419244E+03  0.93543419244E+03  0.00000000000E+00 0. -1.
         21   -1    0    0  502  503 -0.00000000000E+00 -0.00000000000E+00 -0.76307315945E+02  0.76307315945E+02  0.00000000000E+00 0.  1.
         -6    2    1    2    0  503 -0.37885429696E+02 -0.17806641714E+03  0.25659869553E+03  0.35905597979E+03  0.17301835561E+03 0.  0.
        -24    2    3    3    0    0  0.32551557817E+02 -0.88556307165E+02  0.19803962586E+03  0.23089715786E+03  0.72055399819E+02 0.  0.
          6    2    1    2  501    0  0.37885429696E+02  0.17806641714E+03  0.60252818096E+03  0.65268552859E+03  0.17267088836E+03 0.  0.
         24    2    5    5    0    0 -0.57575873031E+01  0.48090630309E+02  0.12205675587E+03  0.15301233697E+03  0.78543396138E+02 0.  0.
          5    1    5    5  501    0  0.43643016999E+02  0.12997578683E+03  0.48047142510E+03  0.49967319162E+03  0.47000000000E+01 0. -1.
        -13    1    6    6    0    0 -0.20259462763E+02  0.38506882217E+02  0.12756213861E+03  0.13477880032E+03  0.00000000000E+00 0.  1.
         14    1    6    6    0    0  0.14501875460E+02  0.95837480922E+01 -0.55053827464E+01  0.18233536644E+02  0.00000000000E+00 0. -1.
         -5    1    3    3    0  503 -0.70436987513E+02 -0.89510109974E+02  0.58559069674E+02  0.12815882193E+03  0.47000000000E+01 0.  1.
         11    1    4    4    0    0  0.71436555241E+01 -0.17509550191E+01  0.88663564544E+02  0.88968114149E+02  0.00000000000E+00 0. -1.
        -12    1    4    4    0    0  0.25407902293E+02 -0.86805352146E+02  0.10937606131E+03  0.14192904371E+03  0.00000000000E+00 0.  1.
</event>
<event>
12    1  0.8417180E-002  0.1899369E+03  0.7818608E-02  0.1158672E+00
         21   -1    0    0  501  502  0.00000000000E+00  0.00000000000E+00  0.14224688501E+04  0.14224688501E+04  0.00000000000E+00 0.  1.
         21   -1    0    0  502  503 -0.00000000000E+00 -0.00000000000E+00 -0.31337355313E+02  0.31337355313E+02  0.00000000000E+00 0.  1.
         -6    2    1    2    0  503 -0.80372478131E+02 -0.31694485326E+01  0.37473660104E+03  0.41981654821E+03  0.17131442832E+03 0.  0.
        -24    2    3    3    0    0 -0.59630806969E+02  0.40835372023E+00  0.38356209512E+03  0.39651425353E+03  0.80917689972E+02 0.  0.
          6    2    1    2  501    0  0.80372478131E+02  0.31694485326E+01  0.10163948938E+04  0.10339896572E+04  0.17206466957E+03 0.  0.
         24    2    5    5    0    0  0.29252991798E+02  0.19626206797E+02  0.91635168191E+03  0.92034652714E+03  0.78079443876E+02 0.  0.
          5    1    5    5  501    0  0.51119486333E+02 -0.16456758264E+02  0.10004321186E+03  0.11364313008E+03  0.47000000000E+01 0. -1.
        -13    1    6    6    0    0  0.30410222538E+02  0.27032150019E+02  0.20730490537E+03  0.21126013008E+03  0.00000000000E+00 0.  1.
         14    1    6    6    0    0 -0.11572307401E+01 -0.74059432224E+01  0.70904677654E+03  0.70908639706E+03  0.00000000000E+00 0. -1.
         -5    1    3    3    0  503 -0.20741671162E+02 -0.35778022528E+01 -0.88254940814E+01  0.23302294680E+02  0.47000000000E+01 0.  1.
         11    1    4    4    0    0  0.42848478151E+01 -0.24823497348E+02  0.17793672716E+03  0.17971100359E+03  0.00000000000E+00 0. -1.
        -12    1    4    4    0    0 -0.63915654784E+02  0.25231851068E+02  0.20562536796E+03  0.21680324994E+03  0.00000000000E+00 0.  1.
</event>
<event>
12    1  0.8417180E-002  0.2560670E+03  0.7818608E-02  0.1109533E+00
         21   -1    0    0  503  502  0.00000000000E+00  0.00000000000E+00  0.16443559100E+04  0.16443559100E+04  0.00000000000E+00 0. -1.
         21   -1    0    0  501  503 -0.00000000000E+00 -0.00000000000E+00 -0.40855015768E+02  0.40855015768E+02  0.00000000000E+00 0. -1.
          6    2    1    2  501    0  0.61002756658E+02  0.17964155208E+03  0.67104047388E+03  0.71822966023E+03  0.17194796799E+03 0.  0.
         24    2    3    3    0    0  0.81752875003E+02  0.95776543322E+02  0.27579798026E+03  0.31362784873E+03  0.80257228720E+02 0.  0.
         -6    2    1    2    0  502 -0.61002756658E+02 -0.17964155208E+03  0.93246042034E+03  0.96698126552E+03  0.17198229219E+03 0.  0.
        -24    2    5    5    0    0  0.17694727836E+02 -0.96477874582E+02  0.64987179989E+03  0.66204207532E+03  0.79657200016E+02 0.  0.
          5    1    3    3  501    0 -0.20750118345E+02  0.83865008758E+02  0.39524249363E+03  0.40460181150E+03  0.47000000000E+01 0. -1.
        -13    1    4    4    0    0  0.88238023737E+02  0.48013808911E+02  0.17205455239E+03  0.19923364092E+03  0.00000000000E+00 0.  1.
         14    1    4    4    0    0 -0.64851487345E+01  0.47762734411E+02  0.10374342787E+03  0.11439420781E+03  0.00000000000E+00 0. -1.
         -5    1    5    5    0  502 -0.78697484494E+02 -0.83163677498E+02  0.28258862044E+03  0.30493919021E+03  0.47000000000E+01 0.  1.
         11    1    6    6    0    0  0.10613182925E+01 -0.95123567164E+02  0.38257699757E+03  0.39422681098E+03  0.00000000000E+00 0. -1.
        -12    1    6    6    0    0  0.16633409543E+02 -0.13543074181E+01  0.26729480232E+03  0.26781526433E+03  0.00000000000E+00 0.  1.
</event>
<event>
12    1  0.8417180E-002  0.2233250E+03  0.7818608E-02  0.1131589E+00
         21   -1    0    0  501  502  0.00000000000E+00  0.00000000000E+00  0.98071723092E+03  0.98071723092E+03  0.00000000000E+00 0. -1.
         21   -1    0    0  502  503 -0.00000000000E+00 -0.00000000000E+00 -0.51416671306E+02  0.51416671306E+02  0.00000000000E+00 0. -1.
         -6    2    1    2    0  503  0.99764689464E+02 -0.10041835646E+03  0.52655161716E+03  0.57161161159E+03  0.17159950288E+03 0.  0.
        -24    2    3    3    0    0  0.10925348262E+02 -0.40074573664E+01  0.29015436519E+03  0.30125399519E+03  0.80180989179E+02 0.  0.
          6    2    1    2  501    0 -0.99764689464E+02  0.10041835646E+03  0.40274894245E+03  0.46052229063E+03  0.17273456501E+03 0.  0.
         24    2    5    5    0    0  0.16569448829E+02  0.59622892446E+02  0.17544477568E+03  0.20189673922E+03  0.78434610053E+02 0.  0.
          5    1    5    5  501    0 -0.11633413829E+03  0.40795464010E+02  0.22730416677E+03  0.25862555142E+03  0.47000000000E+01 0. -1.
        -11    1    6    6    0    0 -0.24381547255E+02  0.55965856419E+01  0.19057466589E+02  0.31447871950E+02  0.00000000000E+00 0.  1.
         12    1    6    6    0    0  0.40950996084E+02  0.54026306805E+02  0.15638730909E+03  0.17044886727E+03  0.00000000000E+00 0. -1.
         -5    1    3    3    0  503  0.88839341202E+02 -0.96410899090E+02  0.23639725197E+03  0.27035761640E+03  0.47000000000E+01 0.  1.
         11    1    4    4    0    0  0.28686416777E+02 -0.33769340175E+02  0.19537631776E+03  0.20033767590E+03  0.00000000000E+00 0. -1.
        -12    1    4    4    0    0 -0.17761068515E+02  0.29761882808E+02  0.94778047429E+02  0.10091631928E+03  0.00000000000E+00 0.  1.
</event>
<event>
12    1  0.8417180E-002  0.2356306E+03  0.7818608E-02  0.1122781E+00
         21   -1    0    0  501  502  0.00000000000E+00  0.00000000000E+00  0.78554200025E+02  0.78554200025E+02  0.00000000000E+00 0.  1.
         21   -1    0    0  502  503 -0.00000000000E+00 -0.00000000000E+00 -0.10584375866E+04  0.10584375866E+04  0.00000000000E+00 0.  1.
         -6    2    1    2    0  503 -0.11545653369E+03 -0.11151649879E+03 -0.81813631495E+03  0.85139228295E+03  0.17249825780E+03 0.  0.
        -24    2    3    3    0    0 -0.53543063350E+02 -0.12245148053E+03 -0.40508140516E+03  0.43355343825E+03  0.77565548380E+02 0.  0.
          6    2    1    2  501    0  0.11545653369E+03  0.11151649879E+03 -0.16174707164E+03  0.28559950370E+03  0.17215928861E+03 0.  0.
         24    2    5    5    0    0  0.83658905981E+02  0.58240711893E+02 -0.17858355644E+03  0.22114055694E+03  0.81365018408E+02 0.  0.
          5    1    5    5  501    0  0.31797627705E+02  0.53275786894E+02  0.16836484800E+02  0.64458946759E+02  0.47000000000E+01 0. -1.
        -11    1    6    6    0    0  0.65238607498E+02  0.66691035672E+02 -0.87763079946E+02  0.12808640970E+03  0.00000000000E+00 0.  1.
         12    1    6    6    0    0  0.18420298482E+02 -0.84503237789E+01 -0.90820476498E+02  0.93054147245E+02  0.00000000000E+00 0. -1.
         -5    1    3    3    0  503 -0.61913470336E+02  0.10934981738E+02 -0.41305490980E+03  0.41783884470E+03  0.47000000000E+01 0.  1.
         11    1    4    4    0    0  0.18247523961E+02 -0.43815071682E+02 -0.10809365470E+03  0.11805494832E+03  0.00000000000E+00 0. -1.
        -12    1    4    4    0    0 -0.71790587311E+02 -0.78636408844E+02 -0.29698775046E+03  0.31549848993E+03  0.00000000000E+00 0.  1.
</event>
<event>
12    1  0.8417180E-002  0.1804538E+03  0.7818608E-02  0.1168233E+00
         21   -1    0    0  501  502  0.00000000000E+00  0.00000000000E+00  0.93828789872E+02  0.93828789872E+02  0.00000000000E+00 0.  1.
         21   -1    0    0  502  503 -0.00000000000E+00 -0.00000000000E+00 -0.42813288997E+03  0.42813288997E+03  0.00000000000E+00 0.  1.
         -6    2    1    2    0  503 -0.29537481517E+02  0.46019876326E+02 -0.28672256885E+03  0.33878221883E+03  0.17196880087E+03 0.  0.
        -24    2    3    3    0    0 -0.81092446494E+02  0.20485170941E+02 -0.23177317623E+03  0.25908616283E+03  0.80070015871E+02 0.  0.
          6    2    1    2  501    0  0.29537481517E+02 -0.46019876326E+02 -0.47581531243E+02  0.18317946101E+03  0.16822728967E+03 0.  0.
         24    2    5    5    0    0  0.42537905328E+02 -0.48161647547E+02  0.26324961095E+02  0.10796072789E+03  0.82664971450E+02 0.  0.
          5    1    5    5  501    0 -0.13000423811E+02  0.21417712215E+01 -0.73906492338E+02  0.75218733125E+02  0.47000000000E+01 0. -1.
        -13    1    6    6    0    0  0.86615113759E+01 -0.10421606043E+02  0.50135932103E+02  0.51934991476E+02  0.00000000000E+00 0.  1.
         14    1    6    6    0    0  0.33876393952E+02 -0.37740041504E+02 -0.23810971007E+02  0.56025736410E+02  0.00000000000E+00 0. -1.
         -5    1    3    3    0  503  0.51554964977E+02  0.25534705385E+02 -0.54949392622E+02  0.79696056003E+02  0.47000000000E+01 0.  1.
         11    1    4    4    0    0 -0.64015040872E+02  0.37008961298E+02 -0.95620816883E+02  0.12087567702E+03  0.00000000000E+00 0. -1.
        -12    1    4    4    0    0 -0.17077405622E+02 -0.16523790357E+02 -0.13615235935E+03  0.13821048581E+03  0.00000000000E+00 0.  1.
</event>
<event>
12    1  0.8417180E-002  0.1915506E+03  0.7818608E-02  0.1158046E+00
         21   -1    0    0  503  502  0.00000000000E+00  0.00000000000E+00  0.12699748756E+03  0.12699748756E+03  0.00000000000E+00 0. -1.
         21   -1    0    0  501  503 -0.00000000000E+00 -0.00000000000E+00 -0.31954892837E+03  0.31954892837E+03  0.00000000000E+00 0. -1.
          6    2    1    2  501    0  0.42585684772E+02 -0.60394926092E+02 -0.17139022648E+03  0.25383043729E+03  0.17202962976E+03 0.  0.
         24    2    3    3    0    0 -0.28461252558E+02 -0.11087778368E+02 -0.13544261451E+03  0.16005846426E+03  0.79630574703E+02 0.  0.
         -6    2    1    2    0  502 -0.42585684772E+02  0.60394926092E+02 -0.21161214328E+02  0.19271597863E+03  0.17672171282E+03 0.  0.
        -24    2    5    5    0    0 -0.31704521436E+02  0.96459465956E+02  0.24914873313E+02  0.13301550457E+03  0.82236052263E+02 0.  0.
          5    1    3    3  501    0  0.71046937330E+02 -0.49307147724E+02 -0.35947611970E+02  0.93771973036E+02  0.47000000000E+01 0. -1.
        -11    1    4    4    0    0  0.25158659377E+02  0.25962427883E+00 -0.19560587726E+02  0.31869140851E+02  0.00000000000E+00 0.  1.
         12    1    4    4    0    0 -0.53619911935E+02 -0.11347402647E+02 -0.11588202679E+03  0.12818932340E+03  0.00000000000E+00 0. -1.
         -5    1    5    5    0  502 -0.10881163336E+02 -0.36064539864E+02 -0.46076087641E+02  0.59700474064E+02  0.47000000000E+01 0.  1.
         13    1    6    6    0    0  0.19508408335E+02  0.16269720006E+02 -0.15370270585E+02  0.29690520417E+02  0.00000000000E+00 0. -1.
        -14    1    6    6    0    0 -0.51212929770E+02  0.80189745951E+02  0.40285143898E+02  0.10332498415E+03  0.00000000000E+00 0.  1.
</event>
<event>
12    1  0.8417180E-002  0.2077579E+03  0.7818608E-02  0.1143465E+00
         21   -1    0    0  501  502  0.00000000000E+00  0.00000000000E+00  0.44610401267E+03  0.44610401267E+03  0.00000000000E+00 0. -1.
         21   -1    0    0  502  503 -0.00000000000E+00 -0.00000000000E+00 -0.10074861490E+03  0.10074861490E+03  0.00000000000E+00 0.  1.
         -6    2    1    2    0  503 -0.96370049202E+02  0.66155463529E+02  0.11630123762E+03  0.23761298142E+03  0.17108541530E+03 0.  0.
        -24    2    3    3    0    0 -0.44163482523E+02  0.14753378171E+02 -0.98801907814E+01  0.91628246404E+02  0.78294584827E+02 0.  0.
          6    2    1    2  501    0  0.96370049202E+02 -0.66155463529E+02  0.22905416015E+03  0.30923964615E+03  0.17175453044E+03 0.  0.
         24    2    5    5    0    0 -0.71685784762E+01 -0.38756756938E+01  0.54968120586E+02  0.97279606125E+02  0.79846215362E+02 0.  0.
          5    1    5    5  501    0  0.10353862768E+03 -0.62279787835E+02  0.17408603956E+03  0.21196004002E+03  0.47000000000E+01 0. -1.
        -11    1    6    6    0    0  0.23021448692E+02 -0.29988568258E+02  0.14652364640E+02  0.40546184970E+02  0.00000000000E+00 0.  1.
         12    1    6    6    0    0 -0.30190027168E+02  0.26112892564E+02  0.40315755947E+02  0.56733421156E+02  0.00000000000E+00 0. -1.
         -5    1    3    3    0  503 -0.52206566679E+02  0.51402085358E+02  0.12618142840E+03  0.14598473502E+03  0.47000000000E+01 0.  1.
         13    1    4    4    0    0  0.87286007494E+01  0.26860435820E+02  0.14951020114E+02  0.31956290241E+02  0.00000000000E+00 0. -1.
        -14    1    4    4    0    0 -0.52892083272E+02 -0.12107057650E+02 -0.24831210896E+02  0.59671956163E+02  0.00000000000E+00 0.  1.
</event>
<event>
12    1  0.8417180E-002  0.1908129E+03  0.7818608E-02  0.1158277E+00
         21   -1    0    0  501  502  0.00000000000E+00  0.00000000000E+00  0.19376312079E+03  0.19376312079E+03  0.00000000000E+00 0.  1.
         21   -1    0    0  502  503 -0.00000000000E+00 -0.00000000000E+00 -0.25332997077E+03  0.25332997077E+03  0.00000000000E+00 0.  1.
         -6    2    1    2    0  503 -0.56431361924E+02  0.61941987481E+02 -0.14529219082E+03  0.23790805274E+03  0.16872792425E+03 0.  0.
        -24    2    3    3    0    0  0.25199601390E+02  0.54711836021E+02 -0.11032537943E+03  0.14868553786E+03  0.79418479670E+02 0.  0.
          6    2    1    2  501    0  0.56431361924E+02 -0.61941987481E+02  0.85725340838E+02  0.20918503883E+03  0.17142997984E+03 0.  0.
         24    2    5    5    0    0 -0.31745327709E+02 -0.25609758707E+02  0.18074316655E+02  0.92164055603E+02  0.80646801860E+02 0.  0.
          5    1    5    5  501    0  0.88176689633E+02 -0.36332228774E+02  0.67651024184E+02  0.11702098323E+03  0.47000000000E+01 0. -1.
        -13    1    6    6    0    0 -0.53061697731E+01 -0.22841010179E+02  0.47216278191E+02  0.52718536681E+02  0.00000000000E+00 0.  1.
         14    1    6    6    0    0 -0.26439157936E+02 -0.27687485280E+01 -0.29141961536E+02  0.39445518921E+02  0.00000000000E+00 0. -1.
         -5    1    3    3    0  503 -0.81630963313E+02  0.72301514601E+01 -0.34966811390E+02  0.89222514874E+02  0.47000000000E+01 0.  1.
         13    1    4    4    0    0  0.43537741755E+02  0.44144765110E+02 -0.36636815570E+02  0.72017716562E+02  0.00000000000E+00 0. -1.
        -14    1    4    4    0    0 -0.18338140365E+02  0.10567070910E+02 -0.73688563858E+02  0.76667821301E+02  0.00000000000E+00 0.  1.
</event>
<event>
12    1  0.8417180E-002  0.1835220E+03  0.7818608E-02  0.1164796E+00
         21   -1    0    0  503  502  0.00000000000E+00  0.00000000000E+00  0.31574780526E+02  0.31574780526E+02  0.00000000000E+00 0. -1.
         21   -1    0    0  501  503 -0.00000000000E+00 -0.00000000000E+00 -0.16344028791E+04  0.16344028791E+04  0.00000000000E+00 0. -1.
          6    2    1    2  501    0  0.43264961353E+02  0.36534248960E+02 -0.12982723369E+04  0.13111793916E+04  0.17456725883E+03 0.  0.
         24    2    3    3    0    0 -0.24449019830E+02  0.68748732110E+02 -0.70580438806E+03  0.71396643409E+03  0.79146017299E+02 0.  0.
         -6    2    1    2    0  502 -0.43264961353E+02 -0.36534248960E+02 -0.30455576162E+03  0.35479826801E+03  0.17297685054E+03 0.  0.
        -24    2    5    5    0    0 -0.37995829053E+02  0.44442512563E+02 -0.18565518393E+03  0.21076897573E+03  0.80851059736E+02 0.  0.
          5    1    3    3  501    0  0.67713981183E+02 -0.32214483151E+02 -0.59246794885E+03  0.59721295748E+03  0.47000000000E+01 0. -1.
        -13    1    4    4    0    0 -0.50407913212E+02  0.32249189839E+02 -0.31774826758E+03  0.32333408343E+03  0.00000000000E+00 0.  1.
         14    1    4    4    0    0  0.25958893382E+02  0.36499542272E+02 -0.38805612049E+03  0.39063235065E+03  0.00000000000E+00 0. -1.
         -5    1    5    5    0  502 -0.52691323003E+01 -0.80976761523E+02 -0.11890057769E+03  0.14402929229E+03  0.47000000000E+01 0.  1.
         13    1    6    6    0    0 -0.41835824353E+02 -0.59974235355E+01 -0.47170875099E+02  0.63334798854E+02  0.00000000000E+00 0. -1.
        -14    1    6    6    0    0  0.38399952999E+01  0.50439936098E+02 -0.13848430883E+03  0.14743417687E+03  0.00000000000E+00 0.  1.
</event>
<event>
12    1  0.8417180E-002  0.1823443E+03  0.7818608E-02  0.1165636E+00
         21   -1    0    0  501  502  0.00000000000E+00  0.00000000000E+00  0.15672333918E+04  0.15672333918E+04  0.00000000000E+00 0.  1.
         21   -1    0    0  502  503 -0.00000000000E+00 -0.00000000000E+00 -0.73615760589E+03  0.73615760589E+03  0.00000000000E+00 0.  1.
         -6    2    1    2    0  503  0.55761510285E+02  0.24959690822E+02 -0.71946158626E+03  0.74220915356E+03  0.17180547526E+03 0.  0.
        -24    2    3    3    0    0 -0.26407008260E+02  0.36125780947E+02 -0.28324638389E+03  0.29815719738E+03  0.81650463740E+02 0.  0.
          6    2    1    2  501    0 -0.55761510285E+02 -0.24959690822E+02  0.15505373721E+04  0.15611818441E+04  0.17143592316E+03 0.  0.
         24    2    5    5    0    0 -0.31771143857E+02 -0.18813405763E+02  0.15152371964E+04  0.15178055037E+04  0.80165053595E+02 0.  0.
          5    1    5    5  501    0 -0.23990366428E+02 -0.61462850595E+01  0.35300175746E+02  0.43376340430E+02  0.47000000000E+01 0. -1.
        -11    1    6    6    0    0 -0.57970627215E+02 -0.13959841097E+02  0.11828807086E+04  0.11843826415E+04  0.00000000000E+00 0.  1.
         12    1    6    6    0    0  0.26199483358E+02 -0.48535646653E+01  0.33235648782E+03  0.33342286217E+03  0.00000000000E+00 0. -1.
         -5    1    3    3    0  503  0.82168518544E+02 -0.11166090125E+02 -0.43621520238E+03  0.44405195619E+03  0.47000000000E+01 0.  1.
         11    1    4    4    0    0 -0.49545774840E+02  0.32925360893E+02 -0.25322463064E+03  0.26011838988E+03  0.00000000000E+00 0. -1.
        -12    1    4    4    0    0  0.23138766580E+02  0.32004200536E+01 -0.30021753250E+02  0.38038807494E+02  0.00000000000E+00 0.  1.
</event>
<event>
12    1  0.8417180E-002  0.1866706E+03  0.7818608E-02  0.1161939E+00
         21   -1    0    0  503  502  0.00000000000E+00  0.00000000000E+00  0.52003283255E+03  0.52003283255E+03  0.00000000000E+00 0.  1.
         21   -1    0    0  501  503 -0.00000000000E+00 -0.00000000000E+00 -0.10562785815E+03  0.10562785815E+03  0.00000000000E+00 0.  1.
          6    2    1    2  501    0  0.65272169198E+02 -0.10975242687E+02  0.15724942884E+02  0.18544294340E+03  0.17251347601E+03 0.  0.
         24    2    3    3    0    0  0.65038409946E+02 -0.65700594259E+02 -0.13488292841E+02  0.12323022854E+03  0.80356657030E+02 0.  0.
         -6    2    1    2    0  502 -0.65272169198E+02  0.10975242687E+02  0.39868003152E+03  0.44021774731E+03  0.17454221692E+03 0.  0.
        -24    2    5    5    0    0 -0.81672908452E+02  0.34401723004E+02  0.39055925764E+03  0.41012088374E+03  0.88366639800E+02 0.  0.
          5    1    3    3  501    0  0.23375925112E+00  0.54725351573E+02  0.29213235725E+02  0.62212714855E+02  0.47000000000E+01 0. -1.
        -11    1    4    4    0    0  0.74883767282E+02 -0.39846776395E+02 -0.31199911048E+02  0.90381295857E+02  0.00000000000E+00 0.  1.
         12    1    4    4    0    0 -0.98453573355E+01 -0.25853817864E+02  0.17711618206E+02  0.32848932687E+02  0.00000000000E+00 0. -1.
         -5    1    5    5    0  502  0.16400739255E+02 -0.23426480317E+02  0.81207738763E+01  0.30096863566E+02  0.47000000000E+01 0.  1.
         13    1    6    6    0    0 -0.12462539425E+02 -0.23520836856E+02  0.16572763700E+03  0.16785170336E+03  0.00000000000E+00 0. -1.
        -14    1    6    6    0    0 -0.69210369027E+02  0.57922559861E+02  0.22483162064E+03  0.24226918038E+03  0.00000000000E+00 0.  1.
</event>
<event>
12    1  0.8417180E-002  0.2055927E+03  0.7818608E-02  0.1145299E+00
         21   -1    0    0  501  502  0.00000000000E+00  0.00000000000E+00  0.21714921661E+03  0.21714921661E+03  0.00000000000E+00 0. -1.
         21   -1    0    0  502  503 -0.00000000000E+00 -0.00000000000E+00 -0.21589418780E+03  0.21589418780E+03  0.00000000000E+00 0. -1.
         -6    2    1    2    0  503  0.71817762732E+02  0.88028116226E+02 -0.68714275393E+02  0.21677181334E+03  0.17135234788E+03 0.  0.
        -24    2    3    3    0    0  0.30086571276E+02  0.10501916829E+03 -0.93869222636E+02  0.16495434947E+03  0.80400739881E+02 0.  0.
          6    2    1    2  501    0 -0.71817762732E+02 -0.88028116226E+02  0.69969304197E+02  0.21627159107E+03  0.17020856995E+03 0.  0.
         24    2    5    5    0    0 -0.87910407607E+02 -0.47750227219E+02  0.10042962146E+03  0.16306254588E+03  0.80591321107E+02 0.  0.
          5    1    5    5  501    0  0.16092644875E+02 -0.40277889007E+02 -0.30460317263E+02  0.53209045187E+02  0.47000000000E+01 0. -1.
        -11    1    6    6    0    0 -0.28237620361E+01 -0.67816938977E+01  0.59812973592E+02  0.60262399671E+02  0.00000000000E+00 0.  1.
         12    1    6    6    0    0 -0.85086645571E+02 -0.40968533321E+02  0.40616647868E+02  0.10280014621E+03  0.00000000000E+00 0. -1.
         -5    1    3    3    0  503  0.41731191456E+02 -0.16991052062E+02  0.25154947243E+02  0.51817463864E+02  0.47000000000E+01 0.  1.
         11    1    4    4    0    0  0.18329247204E+02  0.37986737869E+02 -0.86834616528E+02  0.96536025320E+02  0.00000000000E+00 0. -1.
        -12    1    4    4    0    0  0.11757324072E+02  0.67032430418E+02 -0.70346061085E+01  0.68418324155E+02  0.00000000000E+00 0.  1.
</event>
<event>
12    1  0.8417180E-002  0.1969939E+03  0.7818608E-02  0.1152620E+00
         21   -1    0    0  501  502  0.00000000000E+00  0.00000000000E+00  0.42057160097E+03  0.42057160097E+03  0.00000000000E+00 0.  1.
         21   -1    0    0  502  503 -0.00000000000E+00 -0.00000000000E+00 -0.30266370781E+03  0.30266370781E+03  0.00000000000E+00 0.  1.
         -6    2    1    2    0  503  0.49402165317E+02 -0.81626695621E+02 -0.24310642332E+03  0.31197149649E+03  0.17065166331E+03 0.  0.
        -24    2    3    3    0    0  0.79835347137E+02 -0.66358251326E+02 -0.96900776930E+02  0.16178000212E+03  0.77497795737E+02 0.  0.
          6    2    1    2  501    0 -0.49402165317E+02  0.81626695621E+02  0.36101431647E+03  0.41126381229E+03  0.17234585931E+03 0.  0.
         24    2    5    5    0    0 -0.60882387199E+02  0.36172387655E+02  0.98372833712E+02  0.14442954148E+03  0.78533886578E+02 0.  0.
          5    1    5    5  501    0  0.11480221882E+02  0.45454307966E+02  0.26264148276E+03  0.26683427080E+03  0.47000000000E+01 0. -1.
        -11    1    6    6    0    0 -0.26773023611E+02  0.57764007094E+02  0.47222361585E+02  0.79268068870E+02  0.00000000000E+00 0.  1.
         12    1    6    6    0    0 -0.34109363588E+02 -0.21591619439E+02  0.51150472127E+02  0.65161472614E+02  0.00000000000E+00 0. -1.
         -5    1    3    3    0  503 -0.30433181820E+02 -0.15268444295E+02 -0.14620564639E+03  0.15019149437E+03  0.47000000000E+01 0.  1.
         11    1    4    4    0    0  0.83041174435E+01 -0.43982248741E+02 -0.79446666882E+01  0.45458929812E+02  0.00000000000E+00 0. -1.
        -12    1    4    4    0    0  0.71531229693E+02 -0.22376002585E+02 -0.88956110242E+02  0.11632107231E+03  0.00000000000E+00 0.  1.
</event>
<event>
12    1  0.8417180E-002  0.1741712E+03  0.7818608E-02  0.1174123E+00
         21   -1    0    0  501  502  0.00000000000E+00  0.00000000000E+00  0.74528546499E+03  0.74528546499E+03  0.00000000000E+00 0.  1.
         21   -1    0    0  502  503 -0.00000000000E+00 -0.00000000000E+00 -0.42494247484E+02  0.42494247484E+02  0.00000000000E+00 0.  1.
         -6    2    1    2    0  503 -0.38281162134E+01 -0.52940293559E+01  0.25764907566E+03  0.30977641759E+03  0.17185953998E+03 0.  0.
        -24    2    3    3    0    0  0.39220657320E+02  0.36311596031E+02  0.21031460272E+03  0.23331160676E+03  0.85704619266E+02 0.  0.
          6    2    1    2  501    0  0.38281162134E+01  0.52940293559E+01  0.44514214185E+03  0.47800329489E+03  0.17404867784E+03 0.  0.
         24    2    5    5    0    0  0.47576328897E+02 -0.15069989381E+02  0.13642350094E+03  0.16550067311E+03  0.79299997109E+02 0.  0.
          5    1    5    5  501    0 -0.43748212684E+02  0.20364018737E+02  0.30871864091E+03  0.31250262178E+03  0.47000000000E+01 0. -1.
        -11    1    6    6    0    0  0.33255679340E+02  0.93132763250E+01  0.13253060003E+03  0.13695633343E+03  0.00000000000E+00 0.  1.
         12    1    6    6    0    0  0.14320649558E+02 -0.24383265706E+02  0.38929009116E+01  0.28544339679E+02  0.00000000000E+00 0. -1.
         -5    1    3    3    0  503 -0.43048773533E+02 -0.41605625387E+02  0.47334472938E+02  0.76464810827E+02  0.47000000000E+01 0.  1.
         11    1    4    4    0    0  0.46242027629E+02 -0.12007861976E+02  0.70046086663E+02  0.84787782877E+02  0.00000000000E+00 0. -1.
        -12    1    4    4    0    0 -0.70213703091E+01  0.48319458007E+02  0.14026851606E+03  0.14852382388E+03  0.00000000000E+00 0.  1.
</event>
<event>
12    1  0.8417180E-002  0.1993740E+03  0.7818608E-02  0.1150676E+00
         21   -1    0    0  501  502  0.00000000000E+00  0.00000000000E+00  0.95022585764E+02  0.95022585764E+02  0.00000000000E+00 0.  1.
         21   -1    0    0  502  503 -0.00000000000E+00 -0.00000000000E+00 -0.47036954136E+03  0.47036954136E+03  0.00000000000E+00 0. -1.
         -6    2    1    2    0  503 -0.89323165919E+02 -0.38550547539E+02 -0.28446440519E+03  0.34628109366E+03  0.17183080435E+03 0.  0.
        -24    2    3    3    0    0 -0.24400083575E+02 -0.50845291747E+02 -0.70679776348E+02  0.12246839321E+03  0.82597026454E+02 0.  0.
          6    2    1    2  501    0  0.89323165919E+02  0.38550547539E+02 -0.90882550407E+02  0.21911103346E+03  0.17402653341E+03 0.  0.
         24    2    5    5    0    0  0.79026647841E+02  0.37354813967E+02 -0.13090388256E+03  0.17750280001E+03  0.82041601329E+02 0.  0.
          5    1    5    5  501    0  0.10296518078E+02  0.11957335718E+01  0.40021332152E+02  0.41608233446E+02  0.47000000000E+01 0. -1.
        -11    1    6    6    0    0  0.24937662316E+02 -0.95543013100E+01  0.17481981056E+01  0.26762433968E+02  0.00000000000E+00 0.  1.
         12    1    6    6    0    0  0.54088985525E+02  0.46909115277E+02 -0.13265208066E+03  0.15074036605E+03  0.00000000000E+00 0. -1.
         -5    1    3    3    0  503 -0.64923082344E+02  0.12294744209E+02 -0.21378462884E+03  0.22381270045E+03  0.47000000000E+01 0.  1.
         11    1    4    4    0    0 -0.49750806120E+02 -0.84205090841E+01 -0.38875795917E+02  0.63697528923E+02  0.00000000000E+00 0. -1.
        -12    1    4    4    0    0  0.25350722544E+02 -0.42424782663E+02 -0.31803980431E+02  0.58770864285E+02  0.00000000000E+00 0.  1.
</event>
<event>
12    1  0.8417180E-002  0.1746995E+03  0.7818608E-02  0.1173705E+00
         21   -1    0    0  503  502  0.00000000000E+00  0.00000000000E+00  0.10867990301E+03  0.10867990301E+03  0.00000000000E+00 0.  1.
         21   -1    0    0  501  503 -0.00000000000E+00 -0.00000000000E+00 -0.28311592539E+03  0.28311592539E+03  0.00000000000E+00 0.  1.
          6    2    1    2  501    0 -0.27607128367E+02  0.11370984329E+02 -0.11761830055E+03  0.21060388729E+03  0.17212925346E+03 0.  0.
         24    2    3    3    0    0 -0.71230085312E+01  0.92135488115E+01 -0.15105064195E+03  0.17105562380E+03  0.79423568717E+02 0.  0.
         -6    2    1    2    0  502  0.27607128367E+02 -0.11370984329E+02 -0.56817721825E+02  0.18119194111E+03  0.16944265458E+03 0.  0.
        -24    2    5    5    0    0  0.77888982155E+01 -0.62023708666E+02  0.11879309291E+02  0.93443249879E+02  0.68431831676E+02 0.  0.
          5    1    3    3  501    0 -0.20484119836E+02  0.21574355176E+01  0.33432341402E+02  0.39548263490E+02  0.47000000000E+01 0. -1.
        -13    1    4    4    0    0 -0.19933736341E+02  0.36202142786E+01 -0.92533162587E+00  0.20280927852E+02  0.00000000000E+00 0.  1.
         14    1    4    4    0    0  0.12810727809E+02  0.55933345329E+01 -0.15012531032E+03  0.15077469595E+03  0.00000000000E+00 0. -1.
         -5    1    5    5    0  502  0.19818230151E+02  0.50652724337E+02 -0.68697031115E+02  0.87748691234E+02  0.47000000000E+01 0.  1.
         11    1    6    6    0    0  0.18969927994E+02  0.84550019978E+01 -0.15649944568E+01  0.20827732343E+02  0.00000000000E+00 0. -1.
        -12    1    6    6    0    0 -0.11181029779E+02 -0.70478710664E+02  0.13444303748E+02  0.72615517536E+02  0.00000000000E+00 0.  1.
</event>
<event>
12    1  0.8417180E-002  0.2516008E+03  0.7818608E-02  0.1112603E+00
         21   -1    0    0  503  502  0.00000000000E+00  0.00000000000E+00  0.67402816756E+02  0.67402816756E+02  0.00000000000E+00 0. -1.
         21   -1    0    0  501  503 -0.00000000000E+00 -0.00000000000E+00 -0.97484615732E+03  0.97484615732E+03  0.00000000000E+00 0. -1.
          6    2    1    2  501    0 -0.37187987200E+02 -0.18012606394E+03 -0.34606381947E+03  0.42785879015E+03  0.17168177499E+03 0.  0.
         24    2    3    3    0    0 -0.27744394454E+02 -0.13581810670E+02 -0.12545352647E+03  0.15124143509E+03  0.78620400543E+02 0.  0.
         -6    2    1    2    0  502  0.37187987200E+02  0.18012606394E+03 -0.56137952109E+03  0.61439018392E+03  0.16881938898E+03 0.  0.
        -24    2    5    5    0    0 -0.36410268524E+02  0.84842229044E+02 -0.21394700131E+03  0.24665772922E+03  0.80887604319E+02 0.  0.
          5    1    3    3  501    0 -0.94435927462E+01 -0.16654425327E+03 -0.22061029301E+03  0.27661735506E+03  0.47000000000E+01 0. -1.
        -13    1    4    4    0    0  0.37746584555E+01  0.16764219948E+02  0.12174574708E+01  0.17226993923E+02  0.00000000000E+00 0.  1.
         14    1    4    4    0    0 -0.31519052909E+02 -0.30346030618E+02 -0.12667098394E+03  0.13401444117E+03  0.00000000000E+00 0. -1.
         -5    1    5    5    0  502  0.73598255723E+02  0.95283834893E+02 -0.34743251978E+03  0.36773245470E+03  0.47000000000E+01 0.  1.
         13    1    6    6    0    0 -0.79594782282E+01  0.90953748800E+02 -0.13946138952E+03  0.16668958240E+03  0.00000000000E+00 0. -1.
        -14    1    6    6    0    0 -0.28450790295E+02 -0.61115197560E+01 -0.74485611789E+02  0.79968146819E+02  0.00000000000E+00 0.  1.
</event>
<event>
12    1  0.8417180E-002  0.1722203E+03  0.7818608E-02  0.1175656E+00
         21   -1    0    0  501  502  0.00000000000E+00  0.00000000000E+00  0.16922802520E+03  0.16922802520E+03  0.00000000000E+00 0. -1.
         21   -1    0    0  502  503 -0.00000000000E+00 -0.00000000000E+00 -0.29205395169E+03  0.29205395169E+03  0.00000000000E+00 0. -1.
         -6    2    1    2    0  503 -0.79600416546E+01 -0.41231254934E+01 -0.20756274240E+03  0.26970750146E+03  0.17198686545E+03 0.  0.
        -24    2    3    3    0    0  0.36799349170E+02  0.41937428152E+02 -0.16796040226E+03  0.19410715084E+03  0.79711663527E+02 0.  0.
          6    2    1    2  501    0  0.79600416546E+01  0.41231254934E+01  0.84736815901E+02  0.19157447543E+03  0.17158114476E+03 0.  0.
         24    2    5    5    0    0  0.69194587101E+02  0.23268266923E+02  0.50344158992E+02  0.11862825657E+03  0.78796102582E+02 0.  0.
          5    1    5    5  501    0 -0.61234545447E+02 -0.19145141430E+02  0.34392656908E+02  0.72946218858E+02  0.47000000000E+01 0. -1.
        -13    1    6    6    0    0  0.12114460917E+02 -0.23676868421E+02 -0.39975806786E+01  0.26894886369E+02  0.00000000000E+00 0.  1.
         14    1    6    6    0    0  0.57080126185E+02  0.46945135344E+02  0.54341739671E+02  0.91733370199E+02  0.00000000000E+00 0. -1.
         -5    1    3    3    0  503 -0.44759390825E+02 -0.46060553645E+02 -0.39602340137E+02  0.75600350617E+02  0.47000000000E+01 0.  1.
         11    1    4    4    0    0  0.10912883605E+02 -0.17742585960E+02 -0.96589231974E+01  0.22960513550E+02  0.00000000000E+00 0. -1.
        -12    1    4    4    0    0  0.25886465565E+02  0.59680014112E+02 -0.15830147906E+03  0.17114663729E+03  0.00000000000E+00 0.  1.
</event>
<event>
12    1  0.8417180E-002  0.1738236E+03  0.7818608E-02  0.1174209E+00
         21   -1    0    0  503  502  0.00000000000E+00  0.00000000000E+00  0.44674576176E+03  0.44674576176E+03  0.00000000000E+00 0. -1.
         21   -1    0    0  501  503 -0.00000000000E+00 -0.00000000000E+00 -0.19011760035E+03  0.19011760035E+03  0.00000000000E+00 0. -1.
          6    2    1    2  501    0 -0.12614081772E+02 -0.15566847190E+02 -0.12759062064E+03  0.21562467956E+03  0.17266497667E+03 0.  0.
         24    2    3    3    0    0 -0.37276906173E+02  0.44870225239E+02 -0.10933268334E+03  0.14768104920E+03  0.80331511879E+02 0.  0.
         -6    2    1    2    0  502  0.12614081772E+02  0.15566847190E+02  0.38421878205E+03  0.42123868256E+03  0.17151242932E+03 0.  0.
        -24    2    5    5    0    0 -0.24909956033E+02  0.48817160713E+02  0.13213129341E+03  0.16417093138E+03  0.80559263428E+02 0.  0.
          5    1    3    3  501    0  0.24662824401E+02 -0.60437072428E+02 -0.18257937303E+02  0.67943630354E+02  0.47000000000E+01 0. -1.
        -11    1    4    4    0    0 -0.26550794710E+02  0.94586933330E+01  0.39942053862E+01  0.28466915112E+02  0.00000000000E+00 0.  1.
         12    1    4    4    0    0 -0.10726111463E+02  0.35411531906E+02 -0.11332688872E+03  0.11921413409E+03  0.00000000000E+00 0. -1.
         -5    1    5    5    0  502  0.37524037805E+02 -0.33250313524E+02  0.25208748865E+03  0.25706775118E+03  0.47000000000E+01 0.  1.
         11    1    6    6    0    0 -0.11890405470E+02  0.38178466158E+02  0.14000624402E+03  0.14560468874E+03  0.00000000000E+00 0. -1.
        -12    1    6    6    0    0 -0.13019550563E+02  0.10638694555E+02 -0.78749506087E+01  0.18566242640E+02  0.00000000000E+00 0.  1.
</event>
<event>
12    1  0.8417180E-002  0.2074038E+03  0.7818608E-02  0.1144195E+00
         21   -1    0    0  501  502  0.00000000000E+00  0.00000000000E+00  0.11201677274E+04  0.11201677274E+04  0.00000000000E+00 0.  1.
         21   -1    0    0  502  503 -0.00000000000E+00 -0.00000000000E+00 -0.39967311906E+02  0.39967311906E+02  0.00000000000E+00 0.  1.
         -6    2    1    2    0  503 -0.75871639334E+02  0.79375481595E+02  0.41143146268E+03  0.46075174046E+03  0.17595267865E+03 0.  0.
        -24    2    3    3    0    0 -0.92579584526E+02  0.41053347027E+02  0.39616683909E+03  0.41599863819E+03  0.76487553239E+02 0.  0.
          6    2    1    2  501    0  0.75871639334E+02 -0.79375481595E+02  0.66876895282E+03  0.69938329885E+03  0.17270817502E+03 0.  0.
         24    2    5    5    0    0  0.37948326126E+02 -0.50082841150E+02  0.62835208255E+03  0.63651955833E+03  0.79890187523E+02 0.  0.
          5    1    5    5  501    0  0.37923313207E+02 -0.29292640445E+02  0.40416870265E+02  0.62863740510E+02  0.47000000000E+01 0. -1.
        -13    1    6    6    0    0  0.63167972509E+02 -0.36023553385E+02  0.44072511899E+03  0.44668391470E+03  0.00000000000E+00 0.  1.
         14    1    6    6    0    0 -0.25219646383E+02 -0.14059287765E+02  0.18762696357E+03  0.18983564363E+03  0.00000000000E+00 0. -1.
         -5    1    3    3    0  503  0.16707945193E+02  0.38322134568E+02  0.15264623586E+02  0.44753102279E+02  0.47000000000E+01 0.  1.
         11    1    4    4    0    0  0.13010798233E+02  0.23600559415E+01  0.26678172653E+02  0.29775419909E+02  0.00000000000E+00 0. -1.
        -12    1    4    4    0    0 -0.10559038276E+03  0.38693291086E+02  0.36948866644E+03  0.38622321828E+03  0.00000000000E+00 0.  1.
</event>
<event>
12    1  0.8417180E-002  0.1757029E+03  0.7818608E-02  0.1172251E+00
         21   -1    0    0  501  502  0.00000000000E+00  0.00000000000E+00  0.84255413798E+02  0.84255413798E+02  0.00000000000E+00 0.  1.
         21   -1    0    0  502  503 -0.00000000000E+00 -0.00000000000E+00 -0.48936138725E+03  0.48936138725E+03  0.00000000000E+00 0.  1.
         -6    2    1    2    0  503  0.27048981550E+02 -0.32865237215E+02 -0.34778537673E+03  0.38964879875E+03  0.17046919628E+03 0.  0.
        -24    2    3    3    0    0  0.26911222002E+02  0.46153569381E+02 -0.20680248609E+03  0.22796312769E+03  0.79658982522E+02 0.  0.
          6    2    1    2  501    0 -0.27048981550E+02  0.32865237215E+02 -0.57320596718E+02  0.18396800229E+03  0.16954882435E+03 0.  0.
         24    2    5    5    0    0 -0.50877238949E+02  0.78386264931E+02 -0.46230082022E+02  0.13119453044E+03  0.79635948925E+02 0.  0.
          5    1    5    5  501    0  0.23828257399E+02 -0.45521027715E+02 -0.11090514696E+02  0.52773471850E+02  0.47000000000E+01 0. -1.
        -13    1    6    6    0    0 -0.38652008980E+02 -0.16649684306E+01 -0.29132579733E+02  0.48429919677E+02  0.00000000000E+00 0.  1.
         14    1    6    6    0    0 -0.12225229969E+02  0.80051233361E+02 -0.17097502289E+02  0.82764610764E+02  0.00000000000E+00 0. -1.
         -5    1    3    3    0  503  0.13775954744E+00 -0.79018806597E+02 -0.14098289064E+03  0.16168567106E+03  0.47000000000E+01 0.  1.
         11    1    4    4    0    0  0.12943948027E+02 -0.22421528838E+02 -0.52838061288E+02  0.58839879900E+02  0.00000000000E+00 0. -1.
        -12    1    4    4    0    0  0.13967273976E+02  0.68575098220E+02 -0.15396442481E+03  0.16912324779E+03  0.00000000000E+00 0.  1.
</event>
<event>
12    1  0.8417180E-002  0.2382567E+03  0.7818608E-02  0.1121649E+00
         21   -1    0    0  501  502  0.00000000000E+00  0.00000000000E+00  0.21240598863E+04  0.21240598863E+04  0.00000000000E+00 0.  1.
         21   -1    0    0  502  503 -0.00000000000E+00 -0.00000000000E+00 -0.41377610915E+02  0.41377610915E+02  0.00000000000E+00 0. -1.
         -6    2    1    2    0  503 -0.52262932118E+02 -0.15362325037E+03  0.38148443719E+03  0.44763648059E+03  0.16886836832E+03 0.  0.
        -24    2    3    3    0    0 -0.76743309845E+02 -0.15367773250E+03  0.29609970269E+03  0.35868742356E+03  0.10712260647E+03 0.  0.
          6    2    1    2  501    0  0.52262932118E+02  0.15362325037E+03  0.17011978382E+04  0.17178010167E+04  0.17445552694E+03 0.  0.
         24    2    5    5    0    0  0.78003317891E+02  0.88584634016E+02  0.14512568535E+04  0.14582144705E+04  0.79443264410E+02 0.  0.
          5    1    5    5  501    0 -0.25740385773E+02  0.65038616352E+02  0.24994098476E+03  0.25958654614E+03  0.47000000000E+01 0. -1.
        -11    1    6    6    0    0  0.50918662704E+01  0.65143751996E+02  0.71926165346E+03  0.72222362303E+03  0.00000000000E+00 0.  1.
         12    1    6    6    0    0  0.72911451621E+02  0.23440882021E+02  0.73199520003E+03  0.73599084749E+03  0.00000000000E+00 0. -1.
         -5    1    3    3    0  503  0.24480377727E+02  0.54482134485E-01  0.85384734494E+02  0.88949057031E+02  0.47000000000E+01 0.  1.
         13    1    4    4    0    0 -0.81329990108E+02 -0.47122332523E+02  0.11512346540E+03  0.14862198290E+03  0.00000000000E+00 0. -1.
        -14    1    4    4    0    0  0.45866802630E+01 -0.10655539998E+03  0.18097623729E+03  0.21006544067E+03  0.00000000000E+00 0.  1.
</event>
<event>
12    1  0.8417180E-002  0.1820297E+03  0.7818608E-02  0.1166058E+00
         21   -1    0    0  501  502  0.00000000000E+00  0.00000000000E+00  0.91690284638E+03  0.91690284638E+03  0.00000000000E+00 0.  1.
         21   -1    0    0  502  503 -0.00000000000E+00 -0.00000000000E+00 -0.42656891672E+02  0.42656891672E+02  0.00000000000E+00 0.  1.
         -6    2    1    2    0  503  0.36903875517E+02 -0.44779253622E+02  0.24800415450E+03  0.30763758666E+03  0.17253331994E+03 0.  0.
        -24    2    3    3    0    0  0.76386367672E+02 -0.53886059105E+02  0.23417849237E+03  0.26456741106E+03  0.80110949136E+02 0.  0.
          6    2    1    2  501    0 -0.36903875517E+02  0.44779253622E+02  0.62624180020E+03  0.65192215139E+03  0.17162931443E+03 0.  0.
         24    2    5    5    0    0 -0.82769452403E+02  0.60643960057E+02  0.42879377300E+03  0.44854281738E+03  0.82450513184E+02 0.  0.
          5    1    5    5  501    0  0.45865576886E+02 -0.15864706435E+02  0.19744802721E+03  0.20337933401E+03  0.47000000000E+01 0. -1.
        -13    1    6    6    0    0 -0.46402115852E+02  0.76659531648E+02  0.25572701156E+03  0.27097259010E+03  0.00000000000E+00 0.  1.
         14    1    6    6    0    0 -0.36367336551E+02 -0.16015571591E+02  0.17306676144E+03  0.17757022728E+03  0.00000000000E+00 0. -1.
         -5    1    3    3    0  503 -0.39482492155E+02  0.91068054833E+01  0.13825662130E+02  0.43070175600E+02  0.47000000000E+01 0.  1.
         13    1    4    4    0    0  0.19379237734E+02 -0.86088874748E+01  0.15717370442E+03  0.15859773378E+03  0.00000000000E+00 0. -1.
        -14    1    4    4    0    0  0.57007129938E+02 -0.45277171630E+02  0.77004787949E+02  0.10596967727E+03  0.00000000000E+00 0.  1.
</event>
<event>
12    1  0.8417180E-002  0.2003350E+03  0.7818608E-02  0.1149472E+00
         21   -1    0    0  501  502  0.00000000000E+00  0.00000000000E+00  0.75163726574E+03  0.75163726574E+03  0.00000000000E+00 0.  1.
         21   -1    0    0  502  503 -0.00000000000E+00 -0.00000000000E+00 -0.78603409789E+02  0.78603409789E+02  0.00000000000E+00 0.  1.
         -6    2    1    2    0  503  0.49298647014E+02 -0.91376889295E+02  0.57173256572E+03  0.60581534426E+03  0.17133012622E+03 0.  0.
        -24    2    3    3    0    0  0.72314208920E+02 -0.10613276714E+03  0.32929140184E+03  0.36179227166E+03  0.77248374960E+02 0.  0.
          6    2    1    2  501    0 -0.49298647014E+02  0.91376889295E+02  0.10130129024E+03  0.22442533127E+03  0.17124451938E+03 0.  0.
         24    2    5    5    0    0  0.51826081996E+01  0.28173546971E+02 -0.24360957814E+01  0.91209698145E+02  0.86560188866E+02 0.  0.
          5    1    5    5  501    0 -0.54481255214E+02  0.63203342324E+02  0.10373738602E+03  0.13321563312E+03  0.47000000000E+01 0. -1.
        -13    1    6    6    0    0  0.17550597493E+02  0.57089967106E+02 -0.15874577845E+01  0.59747868906E+02  0.00000000000E+00 0.  1.
         14    1    6    6    0    0 -0.12367989294E+02 -0.28916420136E+02 -0.84863799683E+00  0.31461829239E+02  0.00000000000E+00 0. -1.
         -5    1    3    3    0  503 -0.23015561907E+02  0.14755877848E+02  0.24244116387E+03  0.24402307260E+03  0.47000000000E+01 0.  1.
         13    1    4    4    0    0  0.30193614070E+02  0.40817106930E+01  0.89513477109E+02  0.94556741045E+02  0.00000000000E+00 0. -1.
        -14    1    4    4    0    0  0.42120594851E+02 -0.11021447784E+03  0.23977792473E+03  0.26723553062E+03  0.00000000000E+00 0.  1.
</event>
<event>
12    1  0.8417180E-002  0.2564813E+03  0.7818608E-02  0.1109503E+00
         21   -1    0    0  503  502  0.00000000000E+00  0.00000000000E+00  0.41298642024E+02  0.41298642024E+02  0.00000000000E+00 0. -1.
         21   -1    0    0  501  503 -0.00000000000E+00 -0.00000000000E+00 -0.16051994378E+04  0.16051994378E+04  0.00000000000E+00 0.  1.
          6    2    1    2  501    0 -0.17586972750E+03  0.69027324951E+02 -0.87507462521E+03  0.91147144391E+03  0.17125904571E+03 0.  0.
         24    2    3    3    0    0 -0.17845120880E+03  0.88733802847E+02 -0.63268450168E+03  0.66822245357E+03  0.80703451612E+02 0.  0.
         -6    2    1    2    0  502  0.17586972750E+03 -0.69027324951E+02 -0.68882617057E+03  0.73502663591E+03  0.17345814943E+03 0.  0.
        -24    2    5    5    0    0  0.19535245572E+03 -0.30743904161E+02 -0.58352569051E+03  0.62120450228E+03  0.79278197252E+02 0.  0.
          5    1    3    3  501    0  0.25814812952E+01 -0.19706477895E+02 -0.24239012353E+03  0.24324899034E+03  0.47000000000E+01 0. -1.
        -13    1    4    4    0    0 -0.35348170565E+02 -0.38076193980E+01 -0.20094364405E+03  0.20406454668E+03  0.00000000000E+00 0.  1.
         14    1    4    4    0    0 -0.14310303823E+03  0.92541422245E+02 -0.43174085763E+03  0.46415790689E+03  0.00000000000E+00 0. -1.
         -5    1    5    5    0  502 -0.19482728220E+02 -0.38283420790E+02 -0.10530048005E+03  0.11382213364E+03  0.47000000000E+01 0.  1.
         13    1    6    6    0    0  0.11086189738E+03 -0.19155022738E+02 -0.21184858609E+03  0.23986891965E+03  0.00000000000E+00 0. -1.
        -14    1    6    6    0    0  0.84490558336E+02 -0.11588881423E+02 -0.37167710443E+03  0.38133558262E+03  0.00000000000E+00 0.  1.
</event>
<event>
12    1  0.8417180E-002  0.3482798E+03  0.7818608E-02  0.1063423E+00
         21   -1    0    0  501  502  0.00000000000E+00  0.00000000000E+00  0.56106628196E+03  0.56106628196E+03  0.00000000000E+00 0.  1.
         21   -1    0    0  502  503 -0.00000000000E+00 -0.00000000000E+00 -0.26960417717E+03  0.26960417717E+03  0.00000000000E+00 0.  1.
         -6    2    1    2    0  503 -0.30144537914E+03  0.21825896013E+02 -0.39998078110E+02  0.35056909285E+03  0.17306980173E+03 0.  0.
        -24    2    3    3    0    0 -0.11030918022E+03 -0.42804521535E+02  0.34940175365E+01  0.14411379553E+03  0.82196323507E+02 0.  0.
          6    2    1    2  501    0  0.30144537914E+03 -0.21825896013E+02  0.33146018291E+03  0.48010136628E+03  0.17113089349E+03 0.  0.
         24    2    5    5    0    0  0.77614116172E+02  0.27347845166E+02  0.13950809035E+03  0.18112613831E+03  0.81069815836E+02 0.  0.
          5    1    5    5  501    0  0.22383126297E+03 -0.49173741179E+02  0.19195209255E+03  0.29897522797E+03  0.47000000000E+01 0. -1.
        -11    1    6    6    0    0  0.65875080887E+02  0.24556706466E+00  0.13634099463E+03  0.15142144301E+03  0.00000000000E+00 0.  1.
         12    1    6    6    0    0  0.11739035285E+02  0.27102278101E+02  0.31670957243E+01  0.29704695303E+02  0.00000000000E+00 0. -1.
         -5    1    3    3    0  503 -0.19113619892E+03  0.64630417549E+02 -0.43492095646E+02  0.20645529733E+03  0.47000000000E+01 0.  1.
         11    1    4    4    0    0 -0.18080787620E+02 -0.25979757271E+02 -0.30918321617E+02  0.44247093469E+02  0.00000000000E+00 0. -1.
        -12    1    4    4    0    0 -0.92228392599E+02 -0.16824764264E+02  0.34412339153E+02  0.99866702058E+02  0.00000000000E+00 0.  1.
</event>
<event>
12    1  0.8417180E-002  0.2084889E+03  0.7818608E-02  0.1142811E+00
         21   -1    0    0  501  502  0.00000000000E+00  0.00000000000E+00  0.10510301148E+04  0.10510301148E+04  0.00000000000E+00 0. -1.
         21   -1    0    0  502  503 -0.00000000000E+00 -0.00000000000E+00 -0.42549941300E+02  0.42549941300E+02  0.00000000000E+00 0. -1.
         -6    2    1    2    0  503  0.11718672359E+03  0.74079080399E+01  0.41132382214E+03  0.46114522847E+03  0.17227893018E+03 0.  0.
        -24    2    3    3    0    0  0.88964143790E+02  0.39047771012E+02  0.39629678065E+03  0.41591805836E+03  0.80606113995E+02 0.  0.
          6    2    1    2  501    0 -0.11718672359E+03 -0.74079080399E+01  0.59715635131E+03  0.63243482759E+03  0.17201888835E+03 0.  0.
         24    2    5    5    0    0 -0.53386267176E+02 -0.37369563032E+01  0.53549513784E+03  0.54350693898E+03  0.76030860213E+02 0.  0.
          5    1    5    5  501    0 -0.63800456419E+02 -0.36709517367E+01  0.61661213471E+02  0.88927888610E+02  0.47000000000E+01 0. -1.
        -11    1    6    6    0    0 -0.42556162720E+02  0.17118021200E+02  0.49144143412E+03  0.49357748815E+03  0.00000000000E+00 0.  1.
         12    1    6    6    0    0 -0.10830104456E+02 -0.20854977503E+02  0.44053703721E+02  0.49929450835E+02  0.00000000000E+00 0. -1.
         -5    1    3    3    0  503  0.28222579804E+02 -0.31639862973E+02  0.15027041492E+02  0.45227170105E+02  0.47000000000E+01 0.  1.
         11    1    4    4    0    0  0.54375817755E+02 -0.20091600702E+00  0.89733921794E+02  0.10492352760E+03  0.00000000000E+00 0. -1.
        -12    1    4    4    0    0  0.34588326036E+02  0.39248687019E+02  0.30656285886E+03  0.31099453076E+03  0.00000000000E+00 0.  1.
</event>
<event>
12    1  0.8417180E-002  0.1889376E+03  0.7818608E-02  0.1161036E+00
         21   -1    0    0  501  502  0.00000000000E+00  0.00000000000E+00  0.19446453668E+02  0.19446453668E+02  0.00000000000E+00 0. -1.
         21   -1    0    0  502  503 -0.00000000000E+00 -0.00000000000E+00 -0.22976438072E+04  0.22976438072E+04  0.00000000000E+00 0. -1.
         -6    2    1    2    0  503 -0.79223193536E+02  0.44018157420E+01 -0.17113662421E+04  0.17217641657E+04  0.17146934848E+03 0.  0.
        -24    2    3    3    0    0 -0.10528491275E+02  0.53986155837E+02 -0.11229037845E+04  0.11272158305E+04  0.81714534836E+02 0.  0.
          6    2    1    2  501    0  0.79223193536E+02 -0.44018157420E+01 -0.56683111148E+03  0.59532609517E+03  0.16376800748E+03 0.  0.
         24    2    5    5    0    0  0.62748853508E+02  0.51236630704E+02 -0.44988448116E+03  0.46469055274E+03  0.83538329391E+02 0.  0.
          5    1    5    5  501    0  0.16474340028E+02 -0.55638446446E+02 -0.11694663032E+03  0.13063554243E+03  0.47000000000E+01 0. -1.
        -11    1    6    6    0    0  0.49070703505E+02 -0.11758243242E+02 -0.23443906274E+03  0.23980797394E+03  0.00000000000E+00 0.  1.
         12    1    6    6    0    0  0.13678150003E+02  0.62994873946E+02 -0.21544541842E+03  0.22488257880E+03  0.00000000000E+00 0. -1.
         -5    1    3    3    0  503 -0.68694702261E+02 -0.49584340095E+02 -0.58846245756E+03  0.59454833518E+03  0.47000000000E+01 0.  1.
         13    1    4    4    0    0  0.98681558036E+01  0.17670262945E+02 -0.56789069582E+02  0.60287785791E+02  0.00000000000E+00 0. -1.
        -14    1    4    4    0    0 -0.20396647079E+02  0.36315892893E+02 -0.10661147149E+04  0.10669280447E+04  0.00000000000E+00 0.  1.
</event>
<event>
12    1  0.8417180E-002  0.1737300E+03  0.7818608E-02  0.1174262E+00
         21   -1    0    0  501  502  0.00000000000E+00  0.00000000000E+00  0.10924991238E+03  0.10924991238E+03  0.00000000000E+00 0. -1.
         21   -1    0    0  502  503 -0.00000000000E+00 -0.00000000000E+00 -0.42284177398E+03  0.42284177398E+03  0.00000000000E+00 0. -1.
         -6    2    1    2    0  503 -0.17517161988E+02 -0.10330695076E+02 -0.31397546897E+03  0.35836125519E+03  0.17154771895E+03 0.  0.
        -24    2    3    3    0    0  0.35956881415E+02  0.96779795939E+01 -0.82616765779E+02  0.12001537223E+03  0.78686714083E+02 0.  0.
          6    2    1    2  501    0  0.17517161988E+02  0.10330695076E+02  0.38360737338E+00  0.17373043118E+03  0.17253562339E+03 0.  0.
         24    2    5    5    0    0 -0.48044352719E+02 -0.35124415582E+01 -0.33704063922E+02  0.98404446443E+02  0.78910544802E+02 0.  0.
          5    1    5    5  501    0  0.65561514707E+02  0.13843136634E+02  0.34087671295E+02  0.75325984739E+02  0.47000000000E+01 0. -1.
        -11    1    6    6    0    0 -0.10769306205E+02  0.18371724690E+02 -0.48296739608E+02  0.52783267055E+02  0.00000000000E+00 0.  1.
         12    1    6    6    0    0 -0.37275046514E+02 -0.21884166248E+02  0.14592675686E+02  0.45621179388E+02  0.00000000000E+00 0. -1.
         -5    1    3    3    0  503 -0.53474043403E+02 -0.20008674670E+02 -0.23135870319E+03  0.23834588296E+03  0.47000000000E+01 0.  1.
         13    1    4    4    0    0  0.53240634643E+02 -0.16154979895E+02 -0.47883069767E+02  0.73405292200E+02  0.00000000000E+00 0. -1.
        -14    1    4    4    0    0 -0.17283753228E+02  0.25832959489E+02 -0.34733696012E+02  0.46610080028E+02  0.00000000000E+00 0.  1.
</event>
<event>
12    1  0.8417180E-002  0.2662291E+03  0.7818608E-02  0.1103536E+00
         21   -1    0    0  503  502  0.00000000000E+00  0.00000000000E+00  0.23831690404E+03  0.23831690404E+03  0.00000000000E+00 0.  1.
         21   -1    0    0  501  503 -0.00000000000E+00 -0.00000000000E+00 -0.81729607975E+03  0.81729607975E+03  0.00000000000E+00 0.  1.
          6    2    1    2  501    0  0.16223031869E+03 -0.12473374067E+03 -0.71079896279E+03  0.75902112793E+03  0.17029599164E+03 0.  0.
         24    2    3    3    0    0  0.13401402281E+03 -0.53545698096E+02 -0.32019351401E+03  0.36095253663E+03  0.83282334204E+02 0.  0.
         -6    2    1    2    0  502 -0.16223031869E+03  0.12473374067E+03  0.13181978709E+03  0.29659185586E+03  0.16944937396E+03 0.  0.
        -24    2    5    5    0    0 -0.42482739631E+02  0.11025909077E+03  0.89002546429E+02  0.16851217646E+03  0.80703470055E+02 0.  0.
          5    1    3    3  501    0  0.28216295874E+02 -0.71188042573E+02 -0.39060544878E+03  0.39806859130E+03  0.47000000000E+01 0. -1.
        -11    1    4    4    0    0  0.77960631394E+02 -0.73453278828E+02 -0.20285409350E+03  0.22939709560E+03  0.00000000000E+00 0.  1.
         12    1    4    4    0    0  0.56053391418E+02  0.19907580732E+02 -0.11733942051E+03  0.13155544103E+03  0.00000000000E+00 0. -1.
         -5    1    5    5    0  502 -0.11974757906E+03  0.14474649897E+02  0.42817240659E+02  0.12807967941E+03  0.47000000000E+01 0.  1.
         13    1    6    6    0    0 -0.21467236414E+02  0.37610350572E+02 -0.94904906292E+01  0.44333397363E+02  0.00000000000E+00 0. -1.
        -14    1    6    6    0    0 -0.21015503217E+02  0.72648740201E+02  0.98493037058E+02  0.12417877909E+03  0.00000000000E+00 0.  1.
</event>
<event>
12    1  0.8417180E-002  0.1818693E+03  0.7818608E-02  0.1166751E+00
         21   -1    0    0  503  502  0.00000000000E+00  0.00000000000E+00  0.88910875998E+01  0.88910875998E+01  0.00000000000E+00 0. -1.
         21   -1    0    0  501  503 -0.00000000000E+00 -0.00000000000E+00 -0.36573855547E+04  0.36573855547E+04  0.00000000000E+00 0. -1.
          6    2    1    2  501    0  0.26863184302E+02 -0.46569314288E+02 -0.18524195999E+04  0.18613260886E+04  0.17374148177E+03 0.  0.
         24    2    3    3    0    0 -0.41051639162E+02  0.13558461540E+02 -0.10534522279E+04  0.10572124623E+04  0.77894318592E+02 0.  0.
         -6    2    1    2    0  502 -0.26863184302E+02  0.46569314288E+02 -0.17960748672E+04  0.18049505537E+04  0.17050290564E+03 0.  0.
        -24    2    5    5    0    0 -0.73998449093E+02  0.44163206319E+02 -0.15438253786E+04  0.15482806937E+04  0.79687812173E+02 0.  0.
          5    1    3    3  501    0  0.67914823464E+02 -0.60127775828E+02 -0.79896737195E+03  0.80411362637E+03  0.47000000000E+01 0. -1.
        -13    1    4    4    0    0 -0.56510375809E+02  0.18446165881E+02 -0.49976765266E+03  0.50329056245E+03  0.00000000000E+00 0.  1.
         14    1    4    4    0    0  0.15458736647E+02 -0.48877043407E+01 -0.55368457527E+03  0.55392189980E+03  0.00000000000E+00 0. -1.
         -5    1    5    5    0  502  0.47135264790E+02  0.24061079690E+01 -0.25224948862E+03  0.25666986004E+03  0.47000000000E+01 0.  1.
         13    1    6    6    0    0 -0.58068690503E+02  0.19600827984E+02 -0.46057633109E+03  0.46463611788E+03  0.00000000000E+00 0. -1.
        -14    1    6    6    0    0 -0.15929758590E+02  0.24562378335E+02 -0.10832490475E+04  0.10836445758E+04  0.00000000000E+00 0.  1.
</event>
<event>
12    1  0.8417180E-002  0.1796523E+03  0.7818608E-02  0.1168673E+00
         21   -1    0    0  503  502  0.00000000000E+00  0.00000000000E+00  0.38574909665E+03  0.38574909665E+03  0.00000000000E+00 0.  1.
         21   -1    0    0  501  503 -0.00000000000E+00 -0.00000000000E+00 -0.85391038527E+02  0.85391038527E+02  0.00000000000E+00 0.  1.
          6    2    1    2  501    0  0.40812737022E+02  0.21313851703E+02  0.10890339822E+03  0.21008311269E+03  0.17365196318E+03 0.  0.
         24    2    3    3    0    0  0.31936777204E+02  0.11619458352E+01 -0.14150586515E+02  0.84986129786E+02  0.77466736738E+02 0.  0.
         -6    2    1    2    0  502 -0.40812737022E+02 -0.21313851703E+02  0.19145465991E+03  0.26105702249E+03  0.17139405595E+03 0.  0.
        -24    2    5    5    0    0 -0.88216924853E+02 -0.25403158246E+02  0.16939490237E+03  0.20840151609E+03  0.79429293586E+02 0.  0.
          5    1    3    3  501    0  0.88759598180E+01  0.20151905868E+02  0.12305398473E+03  0.12509698290E+03  0.47000000000E+01 0. -1.
        -13    1    4    4    0    0  0.27908611631E+02  0.31306148873E+02 -0.29150897844E+02  0.51075829954E+02  0.00000000000E+00 0.  1.
         14    1    4    4    0    0  0.40281655733E+01 -0.30144203038E+02  0.15000311329E+02  0.33910299831E+02  0.00000000000E+00 0. -1.
         -5    1    5    5    0  502  0.47404187830E+02  0.40893065426E+01  0.22059757537E+02  0.52655506402E+02  0.47000000000E+01 0.  1.
         11    1    6    6    0    0  0.12619151486E+02  0.64530596072E+01  0.10958440684E+02  0.17915702184E+02  0.00000000000E+00 0. -1.
        -12    1    6    6    0    0 -0.10083607634E+03 -0.31856217853E+02  0.15843646169E+03  0.19048581391E+03  0.00000000000E+00 0.  1.
</event>
<event>
12    1  0.8417180E-002  0.2165945E+03  0.7818608E-02  0.1136466E+00
         21   -1    0    0  501  502  0.00000000000E+00  0.00000000000E+00  0.65111184180E+02  0.65111184180E+02  0.00000000000E+00 0.  1.
         21   -1    0    0  502  503 -0.00000000000E+00 -0.00000000000E+00 -0.86279698502E+03  0.86279698502E+03  0.00000000000E+00 0.  1.
         -6    2    1    2    0  503  0.79955133806E+02 -0.10457313250E+03 -0.58738714016E+03  0.62601631922E+03  0.17188489183E+03 0.  0.
        -24    2    3    3    0    0  0.39919061487E+02 -0.14927021661E+02 -0.15040128919E+03  0.17811227121E+03  0.85364430058E+02 0.  0.
          6    2    1    2  501    0 -0.79955133806E+02  0.10457313250E+03 -0.21029866067E+03  0.30189184998E+03  0.17200232248E+03 0.  0.
         24    2    5    5    0    0 -0.11846524005E+03  0.93373981692E+02 -0.19423182291E+03  0.25843287464E+03  0.79428182055E+02 0.  0.
          5    1    5    5  501    0  0.38510106246E+02  0.11199150808E+02 -0.16066837765E+02  0.43458975340E+02  0.47000000000E+01 0. -1.
        -13    1    6    6    0    0 -0.58742620378E+02  0.90080161840E+02 -0.14743154042E+03  0.18248613678E+03  0.00000000000E+00 0.  1.
         14    1    6    6    0    0 -0.59722619675E+02  0.32938198515E+01 -0.46800282487E+02  0.75946737855E+02  0.00000000000E+00 0. -1.
         -5    1    3    3    0  503  0.40036072319E+02 -0.89646110838E+02 -0.43698585097E+03  0.44790404801E+03  0.47000000000E+01 0.  1.
         13    1    4    4    0    0  0.48619894452E+02  0.22941742193E+02 -0.10774172493E+03  0.12040970460E+03  0.00000000000E+00 0. -1.
        -14    1    4    4    0    0 -0.87008329645E+01 -0.37868763855E+02 -0.42659564262E+02  0.57702566608E+02  0.00000000000E+00 0.  1.
</event>
<event>
12    1  0.8417180E-002  0.2442791E+03  0.7818608E-02  0.1117359E+00
         21   -1    0    0  503  502  0.00000000000E+00  0.00000000000E+00  0.22789333445E+03  0.22789333445E+03  0.00000000000E+00 0. -1.
         21   -1    0    0  501  503 -0.00000000000E+00 -0.00000000000E+00 -0.76673550669E+03  0.76673550669E+03  0.00000000000E+00 0.  1.
          6    2    1    2  501    0 -0.17319629978E+03 -0.14630783998E+02 -0.67354206754E+03  0.71567302499E+03  0.16827936251E+03 0.  0.
         24    2    3    3    0    0 -0.67779065643E+02 -0.30377944991E+02 -0.49423714203E+03  0.50702712245E+03  0.85377567656E+02 0.  0.
         -6    2    1    2    0  502  0.17319629978E+03  0.14630783998E+02  0.13469989530E+03  0.27895581615E+03  0.17164284860E+03 0.  0.
        -24    2    5    5    0    0  0.36026283336E+02 -0.35529282171E+02  0.67142921273E+02  0.11796612584E+03  0.82750299008E+02 0.  0.
          5    1    3    3  501    0 -0.10541723413E+03  0.15747160993E+02 -0.17930492551E+03  0.20864590253E+03  0.47000000000E+01 0. -1.
        -11    1    4    4    0    0 -0.59658655129E+02  0.19385794967E+02 -0.27781708009E+03  0.28481097971E+03  0.00000000000E+00 0.  1.
         12    1    4    4    0    0 -0.81204105146E+01 -0.49763739958E+02 -0.21642006194E+03  0.22221614274E+03  0.00000000000E+00 0. -1.
         -5    1    5    5    0  502  0.13717001644E+03  0.50160066169E+02  0.67556974026E+02  0.16098969032E+03  0.47000000000E+01 0.  1.
         11    1    6    6    0    0  0.45025590972E+02 -0.49177827570E+02  0.74550585707E+02  0.10001776040E+03  0.00000000000E+00 0. -1.
        -12    1    6    6    0    0 -0.89993076361E+01  0.13648545399E+02 -0.74076644338E+01  0.17948365436E+02  0.00000000000E+00 0.  1.
</event>
<event>
12    1  0.8417180E-002  0.1951506E+03  0.7818608E-02  0.1154123E+00
         21   -1    0    0  503  502  0.00000000000E+00  0.00000000000E+00  0.75800596700E+03  0.75800596700E+03  0.00000000000E+00 0. -1.
         21   -1    0    0  501  503 -0.00000000000E+00 -0.00000000000E+00 -0.52425735678E+02  0.52425735678E+02  0.00000000000E+00 0. -1.
          6    2    1    2  501    0 -0.32476199882E+02 -0.83540419089E+02  0.26427396100E+03  0.32790191552E+03  0.17217791543E+03 0.  0.
         24    2    3    3    0    0 -0.51636939592E+02  0.59634404609E+01  0.92447709433E+02  0.13315996948E+03  0.80517466062E+02 0.  0.
         -6    2    1    2    0  502  0.32476199882E+02  0.83540419089E+02  0.44130627032E+03  0.48252978715E+03  0.17334954884E+03 0.  0.
        -24    2    5    5    0    0 -0.19597387336E+02  0.19864917554E+02  0.34781004471E+03  0.35791091946E+03  0.79685171313E+02 0.  0.
          5    1    3    3  501    0  0.19160739711E+02 -0.89503859550E+02  0.17182625156E+03  0.19474194604E+03  0.47000000000E+01 0. -1.
        -13    1    4    4    0    0  0.33405161819E+01 -0.23881492875E+01  0.74664743745E+02  0.74777578617E+02  0.00000000000E+00 0.  1.
         14    1    4    4    0    0 -0.54977455774E+02  0.83515897483E+01  0.17782965689E+02  0.58382390867E+02  0.00000000000E+00 0. -1.
         -5    1    5    5    0  502  0.52073587217E+02  0.63675501535E+02  0.93496225610E+02  0.12461886769E+03  0.47000000000E+01 0.  1.
         13    1    6    6    0    0  0.25998995149E+02  0.11805774771E+02  0.22240881366E+03  0.22423426246E+03  0.00000000000E+00 0. -1.
        -14    1    6    6    0    0 -0.45596382484E+02  0.80591427826E+01  0.12540123105E+03  0.13367665700E+03  0.00000000000E+00 0.  1.
</event>
<event>
12    1  0.8417180E-002  0.1777311E+03  0.7818608E-02  0.1170398E+00
         21   -1    0    0  501  502  0.00000000000E+00  0.00000000000E+00  0.13153802943E+03  0.13153802943E+03  0.00000000000E+00 0.  1.
         21   -1    0    0  502  503 -0.00000000000E+00 -0.00000000000E+00 -0.23818315184E+03  0.23818315184E+03  0.00000000000E+00 0.  1.
         -6    2    1    2    0  503  0.29404350176E+02  0.22989467967E+02 -0.57623644464E+02  0.18683901880E+03  0.17376766989E+03 0.  0.
        -24    2    3    3    0    0  0.20290332182E+02 -0.52037059879E+02 -0.23066493988E+02  0.10360241716E+03  0.84153695788E+02 0.  0.
          6    2    1    2  501    0 -0.29404350176E+02 -0.22989467967E+02 -0.49021477951E+02  0.18288216247E+03  0.17219073320E+03 0.  0.
         24    2    5    5    0    0 -0.67072863296E+02  0.31275831819E+02 -0.39763573652E+02  0.11601334736E+03  0.80006301815E+02 0.  0.
          5    1    5    5  501    0  0.37668513119E+02 -0.54265299786E+02 -0.92579042987E+01  0.66868815105E+02  0.47000000000E+01 0. -1.
        -11    1    6    6    0    0  0.72248069569E+00 -0.22335101114E+02 -0.11111683150E+02  0.24956927346E+02  0.00000000000E+00 0.  1.
         12    1    6    6    0    0 -0.67795343991E+02  0.53610932934E+02 -0.28651890502E+02  0.91056420017E+02  0.00000000000E+00 0. -1.
         -5    1    3    3    0  503  0.91140179945E+01  0.75026527845E+02 -0.34557150476E+02  0.83236601646E+02  0.47000000000E+01 0.  1.
         13    1    4    4    0    0 -0.13960792065E+02 -0.42759530512E+02  0.18772963835E+02  0.48741207780E+02  0.00000000000E+00 0. -1.
        -14    1    4    4    0    0  0.34251124246E+02 -0.92775293671E+01 -0.41839457823E+02  0.54861209377E+02  0.00000000000E+00 0.  1.
</event>
<event>
12    1  0.8417180E-002  0.2039411E+03  0.7818608E-02  0.1146844E+00
         21   -1    0    0  501  502  0.00000000000E+00  0.00000000000E+00  0.15236863132E+03  0.15236863132E+03  0.00000000000E+00 0. -1.
         21   -1    0    0  502  503 -0.00000000000E+00 -0.00000000000E+00 -0.59569269341E+03  0.59569269341E+03  0.00000000000E+00 0.  1.
         -6    2    1    2    0  503  0.23354650673E+02  0.10548635971E+03 -0.49756558758E+03  0.53703026368E+03  0.17075473163E+03 0.  0.
        -24    2    3    3    0    0  0.72860607720E+02  0.81438745660E+02 -0.25672522950E+03  0.28993656566E+03  0.78831663630E+02 0.  0.
          6    2    1    2  501    0 -0.23354650673E+02 -0.10548635971E+03  0.54241525486E+02  0.21103106106E+03  0.17297154058E+03 0.  0.
         24    2    5    5    0    0 -0.31397504631E+02 -0.68156774351E+02 -0.37870537203E+02  0.11120667758E+03  0.72812075676E+02 0.  0.
          5    1    5    5  501    0  0.80428539579E+01 -0.37329585360E+02  0.92112062689E+02  0.99824383473E+02  0.47000000000E+01 0. -1.
        -11    1    6    6    0    0 -0.11675787416E+00 -0.45290710861E+02  0.13130961290E+02  0.47155956857E+02  0.00000000000E+00 0.  1.
         12    1    6    6    0    0 -0.31280746756E+02 -0.22866063491E+02 -0.51001498493E+02  0.64050720728E+02  0.00000000000E+00 0. -1.
         -5    1    3    3    0  503 -0.49505957047E+02  0.24047614051E+02 -0.24084035808E+03  0.24709369802E+03  0.47000000000E+01 0.  1.
         11    1    4    4    0    0  0.51419952655E+02  0.50056831422E+01 -0.13567667055E+03  0.14517998253E+03  0.00000000000E+00 0. -1.
        -12    1    4    4    0    0  0.21440655064E+02  0.76433062518E+02 -0.12104855895E+03  0.14475658313E+03  0.00000000000E+00 0.  1.
</event>
<event>
12    1  0.8417180E-002  0.2238419E+03  0.7818608E-02  0.1131066E+00
         21   -1    0    0  501  502  0.00000000000E+00  0.00000000000E+00  0.10942013989E+03  0.10942013989E+03  0.00000000000E+00 0. -1.
         21   -1    0    0  502  503 -0.00000000000E+00 -0.00000000000E+00 -0.63400636713E+03  0.63400636713E+03  0.00000000000E+00 0.  1.
         -6    2    1    2    0  503 -0.14073224805E+03  0.27932457102E+02 -0.45825099218E+03  0.50996225394E+03  0.17170247760E+03 0.  0.
        -24    2    3    3    0    0 -0.48830866870E+02 -0.26489978107E+02 -0.11047179721E+03  0.14612145940E+03  0.77854289672E+02 0.  0.
          6    2    1    2  501    0  0.14073224805E+03 -0.27932457102E+02 -0.66335235055E+02  0.23346425308E+03  0.17181212488E+03 0.  0.
         24    2    5    5    0    0  0.48768910912E+01 -0.27708780265E+02 -0.44362149050E+02  0.95763001984E+02  0.80068668717E+02 0.  0.
          5    1    5    5  501    0  0.13585535696E+03 -0.22367683654E+00 -0.21973086004E+02  0.13770125110E+03  0.47000000000E+01 0. -1.
        -13    1    6    6    0    0  0.22462866529E+02  0.13810305129E+02 -0.43256000125E+02  0.50659514874E+02  0.00000000000E+00 0.  1.
         14    1    6    6    0    0 -0.17585975438E+02 -0.41519085394E+02 -0.11061489251E+01  0.45103487110E+02  0.00000000000E+00 0. -1.
         -5    1    3    3    0  503 -0.91901381177E+02  0.54422435208E+02 -0.34777919497E+03  0.36384079454E+03  0.47000000000E+01 0.  1.
         13    1    4    4    0    0 -0.17124491774E+02 -0.31180920213E+02 -0.10830399548E+03  0.11399672557E+03  0.00000000000E+00 0. -1.
        -14    1    4    4    0    0 -0.31706375097E+02  0.46909421059E+01 -0.21678017299E+01  0.32124733835E+02  0.00000000000E+00 0.  1.
</event>
<event>
12    1  0.8417180E-002  0.2320616E+03  0.7818608E-02  0.1127066E+00
         21   -1    0    0  503  502  0.00000000000E+00  0.00000000000E+00  0.37259671765E+03  0.37259671765E+03  0.00000000000E+00 0. -1.
         21   -1    0    0  501  503 -0.00000000000E+00 -0.00000000000E+00 -0.16071963415E+03  0.16071963415E+03  0.00000000000E+00 0. -1.
          6    2    1    2  501    0  0.12163747377E+03 -0.68365174848E+02  0.79782619003E+01  0.23219871719E+03  0.18542685739E+03 0.  0.
         24    2    3    3    0    0  0.71532059954E+02 -0.10727329261E+03  0.47789648341E+02  0.15715585869E+03  0.76090199910E+02 0.  0.
         -6    2    1    2    0  502 -0.12163747377E+03  0.68365174848E+02  0.20389882160E+03  0.30111763461E+03  0.17212677962E+03 0.  0.
        -24    2    5    5    0    0 -0.10872255436E+03  0.79621466932E+02  0.22460958683E+03  0.27383164825E+03  0.79838169242E+02 0.  0.
          5    1    3    3  501    0  0.50105413820E+02  0.38908117761E+02 -0.39811386440E+02  0.75042858502E+02  0.47000000000E+01 0. -1.
        -13    1    4    4    0    0 -0.14508527601E+02 -0.33001919366E+02  0.11661739273E+02  0.37889579278E+02  0.00000000000E+00 0.  1.
         14    1    4    4    0    0  0.86040587555E+02 -0.74271373242E+02  0.36127909067E+02  0.11926627941E+03  0.00000000000E+00 0. -1.
         -5    1    5    5    0  502 -0.12914919418E+02 -0.11256292084E+02 -0.20710765227E+02  0.27285986354E+02  0.47000000000E+01 0.  1.
         11    1    6    6    0    0 -0.58447784513E+02  0.50762979520E+02  0.19268204638E+03  0.20765209992E+03  0.00000000000E+00 0. -1.
        -12    1    6    6    0    0 -0.50274769844E+02  0.28858487411E+02  0.31927540448E+02  0.66179548333E+02  0.00000000000E+00 0.  1.
</event>
<event>
12    1  0.8417180E-002  0.1896059E+03  0.7818608E-02  0.1159056E+00
         21   -1    0    0  501  502  0.00000000000E+00  0.00000000000E+00  0.18932035919E+04  0.18932035919E+04  0.00000000000E+00 0. -1.
         21   -1    0    0  502  503 -0.00000000000E+00 -0.00000000000E+00 -0.20301706083E+02  0.20301706083E+02  0.00000000000E+00 0.  1.
         -6    2    1    2    0  503  0.65252478544E+02 -0.47165527649E+02  0.11917289123E+04  0.12067179422E+04  0.17166222224E+03 0.  0.
        -24    2    3    3    0    0  0.10267372837E+03 -0.60264216263E+02  0.10386833081E+04  0.10485503964E+04  0.80132695508E+02 0.  0.
          6    2    1    2  501    0 -0.65252478544E+02  0.47165527649E+02  0.68117297347E+03  0.70678735578E+03  0.17049713651E+03 0.  0.
         24    2    5    5    0    0 -0.39105554079E+01  0.27382105589E+02  0.16771247885E+03  0.18927601789E+03  0.83263817074E+02 0.  0.
          5    1    5    5  501    0 -0.61341923137E+02  0.19783422060E+02  0.51346049462E+03  0.51751133790E+03  0.47000000000E+01 0. -1.
        -11    1    6    6    0    0 -0.34097290068E+02  0.14125661213E+02  0.14402730600E+03  0.14868094823E+03  0.00000000000E+00 0.  1.
         12    1    6    6    0    0  0.30186734660E+02  0.13256444376E+02  0.23685172856E+02  0.40595069654E+02  0.00000000000E+00 0. -1.
         -5    1    3    3    0  503 -0.37421249822E+02  0.13098688613E+02  0.15304560420E+03  0.15816754581E+03  0.47000000000E+01 0.  1.
         11    1    4    4    0    0  0.42818075579E+02 -0.21036099235E+02  0.73508272555E+03  0.73662915939E+03  0.00000000000E+00 0. -1.
        -12    1    4    4    0    0  0.59855652787E+02 -0.39228117028E+02  0.30360058258E+03  0.31192123698E+03  0.00000000000E+00 0.  1.
</event>
<event>
12    1  0.8417180E-002  0.1773021E+03  0.7818608E-02  0.1170455E+00
         21   -1    0    0  503  502  0.00000000000E+00  0.00000000000E+00  0.88147084255E+02  0.88147084255E+02  0.00000000000E+00 0. -1.
         21   -1    0    0  501  503 -0.00000000000E+00 -0.00000000000E+00 -0.55385419573E+03  0.55385419573E+03  0.00000000000E+00 0. -1.
          6    2    1    2  501    0 -0.30683609338E+02  0.28991533559E+02 -0.42443827510E+03  0.45995966353E+03  0.17214252758E+03 0.  0.
         24    2    3    3    0    0 -0.17243327894E+02 -0.40969553555E+02 -0.14348652469E+03  0.17007835862E+03  0.79764833276E+02 0.  0.
         -6    2    1    2    0  502  0.30683609338E+02 -0.28991533559E+02 -0.41268836372E+02  0.18204161646E+03  0.17220348535E+03 0.  0.
        -24    2    5    5    0    0 -0.37302200507E+02  0.21511781798E+02 -0.84574253378E+01  0.91094742422E+02  0.79828022241E+02 0.  0.
          5    1    3    3  501    0 -0.13440281444E+02  0.69961087114E+02 -0.28095175042E+03  0.28988130491E+03  0.47000000000E+01 0. -1.
        -13    1    4    4    0    0 -0.25726360277E+02 -0.54123714873E+02 -0.14227330927E+03  0.15437913284E+03  0.00000000000E+00 0.  1.
         14    1    4    4    0    0  0.84830323830E+01  0.13154161318E+02 -0.12132154153E+01  0.15699225778E+02  0.00000000000E+00 0. -1.
         -5    1    5    5    0  502  0.67985809846E+02 -0.50503315358E+02 -0.32811411034E+02  0.90946874034E+02  0.47000000000E+01 0.  1.
         11    1    6    6    0    0  0.84064328923E+01 -0.22997243102E+02 -0.11856487589E+02  0.27205102503E+02  0.00000000000E+00 0. -1.
        -12    1    6    6    0    0 -0.45708633400E+02  0.44509024900E+02  0.33990622517E+01  0.63889639919E+02  0.00000000000E+00 0.  1.
</event>
<event>
12    1  0.8417180E-002  0.2193722E+03  0.7818608E-02  0.1135434E+00
         21   -1    0    0  503  502  0.00000000000E+00  0.00000000000E+00  0.38916732716E+03  0.38916732716E+03  0.00000000000E+00 0.  1.
         21   -1    0    0  501  503 -0.00000000000E+00 -0.00000000000E+00 -0.24267733902E+03  0.24267733902E+03  0.00000000000E+00 0.  1.
          6    2    1    2  501    0 -0.34497732463E+02  0.13284240886E+03 -0.15141682615E+03  0.26188163306E+03  0.16376121444E+03 0.  0.
         24    2    3    3    0    0 -0.35245287241E+02  0.14246103858E+03 -0.17180949621E+03  0.23883759115E+03  0.77379029285E+02 0.  0.
         -6    2    1    2    0  502  0.34497732463E+02 -0.13284240886E+03  0.29790681430E+03  0.36996303312E+03  0.17113438208E+03 0.  0.
        -24    2    5    5    0    0 -0.10390824322E+02  0.98831666051E+00  0.84737269380E+02  0.11425032224E+03  0.75919597665E+02 0.  0.
          5    1    3    3  501    0  0.74755477716E+00 -0.96186297185E+01  0.20392670052E+02  0.23044041913E+02  0.47000000000E+01 0. -1.
        -13    1    4    4    0    0 -0.51009589356E+02  0.14087618036E+03 -0.15142873375E+03  0.21302285746E+03  0.00000000000E+00 0.  1.
         14    1    4    4    0    0  0.15764302115E+02  0.15848582238E+01 -0.20380762461E+02  0.25814733685E+02  0.00000000000E+00 0. -1.
         -5    1    5    5    0  502  0.44888556785E+02 -0.13383072552E+03  0.21316954492E+03  0.25571271088E+03  0.47000000000E+01 0.  1.
         13    1    6    6    0    0 -0.18113385322E+01  0.14189049045E+01 -0.14480100331E+02  0.14661771516E+02  0.00000000000E+00 0. -1.
        -14    1    6    6    0    0 -0.85794857898E+01 -0.43058824398E+00  0.99217369711E+02  0.99588550722E+02  0.00000000000E+00 0.  1.
</event>
<event>
12    1  0.8417180E-002  0.2034344E+03  0.7818608E-02  0.1146874E+00
         21   -1    0    0  501  502  0.00000000000E+00  0.00000000000E+00  0.74434849046E+02  0.74434849046E+02  0.00000000000E+00 0.  1.
         21   -1    0    0  502  503 -0.00000000000E+00 -0.00000000000E+00 -0.55599786497E+03  0.55599786497E+03  0.00000000000E+00 0. -1.
         -6    2    1    2    0  503  0.10464449338E+02  0.10885892662E+03 -0.23976946332E+03  0.31444390012E+03  0.17153950034E+03 0.  0.
        -24    2    3    3    0    0 -0.28492656894E+02  0.72917346523E+01 -0.16469196163E+03  0.18218554737E+03  0.72132728748E+02 0.  0.
          6    2    1    2  501    0 -0.10464449338E+02 -0.10885892662E+03 -0.24179355261E+03  0.31598881390E+03  0.17153727823E+03 0.  0.
         24    2    5    5    0    0 -0.27864405943E+02  0.14019623291E+02 -0.73531795376E+02  0.10685726328E+03  0.70982919277E+02 0.  0.
          5    1    5    5  501    0  0.17399956605E+02 -0.12287854991E+03 -0.16826175723E+03  0.20913155062E+03  0.47000000000E+01 0. -1.
        -13    1    6    6    0    0 -0.38626907920E+02 -0.59489966437E+01 -0.11395575416E+02  0.40709798767E+02  0.00000000000E+00 0.  1.
         14    1    6    6    0    0  0.10762501977E+02  0.19968619934E+02 -0.62136219959E+02  0.66147464515E+02  0.00000000000E+00 0. -1.
         -5    1    3    3    0  503  0.38957106232E+02  0.10156719197E+03 -0.75077501694E+02  0.13225835274E+03  0.47000000000E+01 0.  1.
         11    1    4    4    0    0 -0.30608148967E+02  0.30537057806E+02 -0.14604420775E+03  0.15230982011E+03  0.00000000000E+00 0. -1.
        -12    1    4    4    0    0  0.21154920735E+01 -0.23245323154E+02 -0.18647753871E+02  0.29875727266E+02  0.00000000000E+00 0.  1.
</event>
<event>
12    1  0.8417180E-002  0.2027941E+03  0.7818608E-02  0.1147447E+00
         21   -1    0    0  503  502  0.00000000000E+00  0.00000000000E+00  0.35361070196E+03  0.35361070196E+03  0.00000000000E+00 0. -1.
         21   -1    0    0  501  503 -0.00000000000E+00 -0.00000000000E+00 -0.13357489212E+03  0.13357489212E+03  0.00000000000E+00 0.  1.
          6    2    1    2  501    0 -0.29496816036E+02  0.10249063957E+03  0.22160327789E+02  0.20400132653E+03  0.17248497831E+03 0.  0.
         24    2    3    3    0    0 -0.31754776246E+02 -0.26048525179E+02  0.81717035061E+01  0.74598131561E+02  0.61735022602E+02 0.  0.
         -6    2    1    2    0  502  0.29496816036E+02 -0.10249063957E+03  0.19787548206E+03  0.28318426755E+03  0.17223306776E+03 0.  0.
        -24    2    5    5    0    0  0.69120887369E+02 -0.74560617415E+02  0.19680360398E+03  0.23446679543E+03  0.76850744176E+02 0.  0.
          5    1    3    3  501    0  0.22579602101E+01  0.12853916475E+03  0.13988624283E+02  0.12940319497E+03  0.47000000000E+01 0. -1.
        -11    1    4    4    0    0 -0.49518499628E+02 -0.11471082648E+02  0.23066953408E+01  0.50882102805E+02  0.00000000000E+00 0.  1.
         12    1    4    4    0    0  0.17763723382E+02 -0.14577442531E+02  0.58650081653E+01  0.23716028755E+02  0.00000000000E+00 0. -1.
         -5    1    5    5    0  502 -0.39624071333E+02 -0.27930022155E+02  0.10718780748E+01  0.48717472114E+02  0.47000000000E+01 0.  1.
         13    1    6    6    0    0 -0.13862015101E+02 -0.23801968567E+02  0.25848239907E+02  0.37773279929E+02  0.00000000000E+00 0. -1.
        -14    1    6    6    0    0  0.82982902469E+02 -0.50758648847E+02  0.17095536408E+03  0.19669351550E+03  0.00000000000E+00 0.  1.
</event>
<event>
12    1  0.8417180E-002  0.1785150E+03  0.7818608E-02  0.1169686E+00
         21   -1    0    0  503  502  0.00000000000E+00  0.00000000000E+00  0.25481048963E+03  0.25481048963E+03  0.00000000000E+00 0.  1.
         21   -1    0    0  501  503 -0.00000000000E+00 -0.00000000000E+00 -0.13716189403E+03  0.13716189403E+03  0.00000000000E+00 0.  1.
          6    2    1    2  501    0  0.33910186732E+02  0.24872929706E+02 -0.20355072637E+01  0.17852656318E+03  0.17349071178E+03 0.  0.
         24    2    3    3    0    0  0.78528134840E+02  0.46091317631E+02 -0.25513974783E+02  0.12362383359E+03  0.79629214482E+02 0.  0.
         -6    2    1    2    0  502 -0.33910186732E+02 -0.24872929706E+02  0.11968410286E+03  0.21344582048E+03  0.17165742165E+03 0.  0.
        -24    2    5    5    0    0  0.34994889134E+02 -0.48328615784E+02  0.90752675834E+02  0.13497801715E+03  0.80141871539E+02 0.  0.
          5    1    3    3  501    0 -0.44617948107E+02 -0.21218387926E+02  0.23478467519E+02  0.54902729591E+02  0.47000000000E+01 0. -1.
        -11    1    4    4    0    0  0.61182311889E+02 -0.94828981805E+01 -0.59135271024E+01  0.62194617522E+02  0.00000000000E+00 0.  1.
         12    1    4    4    0    0  0.17345822951E+02  0.55574215812E+02 -0.19600447681E+02  0.61429216064E+02  0.00000000000E+00 0. -1.
         -5    1    5    5    0  502 -0.68905075866E+02  0.23455686079E+02  0.28931427029E+02  0.78467803330E+02  0.47000000000E+01 0.  1.
         11    1    6    6    0    0  0.65306726122E+01 -0.51668038538E+02  0.92620110600E+02  0.10625780338E+03  0.00000000000E+00 0. -1.
        -12    1    6    6    0    0  0.28464216522E+02  0.33394227536E+01 -0.18674347663E+01  0.28720213772E+02  0.00000000000E+00 0.  1.
</event>
<event>
12    1  0.8417180E-002  0.1732930E+03  0.7818608E-02  0.1174713E+00
         21   -1    0    0  501  502  0.00000000000E+00  0.00000000000E+00  0.14233201381E+04  0.14233201381E+04  0.00000000000E+00 0. -1.
         21   -1    0    0  502  503 -0.00000000000E+00 -0.00000000000E+00 -0.23704642671E+02  0.23704642671E+02  0.00000000000E+00 0. -1.
         -6    2    1    2    0  503  0.86278525945E+01  0.26800359239E+01  0.45617170134E+03  0.48797856996E+03  0.17305733502E+03 0.  0.
        -24    2    3    3    0    0  0.27738597321E+02 -0.28856951845E+02  0.12041793671E+03  0.15017317832E+03  0.80307848636E+02 0.  0.
          6    2    1    2  501    0 -0.86278525945E+01 -0.26800359239E+01  0.94344379404E+03  0.95904621077E+03  0.17205179287E+03 0.  0.
         24    2    5    5    0    0 -0.27650681157E+02 -0.47954707332E+02  0.35286055354E+03  0.36640608569E+03  0.81722917638E+02 0.  0.
          5    1    5    5  501    0  0.19022828563E+02  0.45274671408E+02  0.59058324051E+03  0.59264012507E+03  0.47000000000E+01 0. -1.
        -11    1    6    6    0    0  0.44597764971E+01 -0.71216418767E+01 -0.12591352341E+01  0.84966352729E+01  0.00000000000E+00 0.  1.
         12    1    6    6    0    0 -0.32110457654E+02 -0.40833065456E+02  0.35411968877E+03  0.35790945042E+03  0.00000000000E+00 0. -1.
         -5    1    3    3    0  503 -0.19110744727E+02  0.31536987769E+02  0.33575376463E+03  0.33780539164E+03  0.47000000000E+01 0.  1.
         13    1    4    4    0    0  0.43329504032E+02 -0.47156914947E+02  0.73731286799E+02  0.97660243703E+02  0.00000000000E+00 0. -1.
        -14    1    4    4    0    0 -0.15590906711E+02  0.18299963102E+02  0.46686649915E+02  0.52512934615E+02  0.00000000000E+00 0.  1.
</event>
<event>
12    1  0.8417180E-002  0.1942505E+03  0.7818608E-02  0.1154841E+00
         21   -1    0    0  503  502  0.00000000000E+00  0.00000000000E+00  0.34412291471E+03  0.34412291471E+03  0.00000000000E+00 0.  1.
         21   -1    0    0  501  503 -0.00000000000E+00 -0.00000000000E+00 -0.31391330489E+03  0.31391330489E+03  0.00000000000E+00 0. -1.
          6    2    1    2  501    0  0.76605125097E+02  0.47501195881E+02 -0.25055545762E+03  0.31703519009E+03  0.17207139686E+03 0.  0.
         24    2    3    3    0    0 -0.17800034426E+02  0.12779760277E+02 -0.57413237860E+02  0.99218938894E+02  0.77897076038E+02 0.  0.
         -6    2    1    2    0  502 -0.76605125097E+02 -0.47501195881E+02  0.28076506743E+03  0.34100102950E+03  0.17125411012E+03 0.  0.
        -24    2    5    5    0    0 -0.89397668580E+02 -0.88879164613E+02  0.20721573098E+03  0.25551781269E+03  0.80371290810E+02 0.  0.
          5    1    3    3  501    0  0.94405159524E+02  0.34721435604E+02 -0.19314221975E+03  0.21781625120E+03  0.47000000000E+01 0. -1.
        -13    1    4    4    0    0 -0.63727176807E+01 -0.17338323146E+02 -0.63763989543E+02  0.66385806786E+02  0.00000000000E+00 0.  1.
         14    1    4    4    0    0 -0.11427316746E+02  0.30118083423E+02  0.63507516827E+01  0.32833132108E+02  0.00000000000E+00 0. -1.
         -5    1    5    5    0  502  0.12792543482E+02  0.41377968732E+02  0.73549336449E+02  0.85483216816E+02  0.47000000000E+01 0.  1.
         13    1    6    6    0    0 -0.10600818952E+02 -0.58133896421E+02  0.51826638697E+02  0.78599794874E+02  0.00000000000E+00 0. -1.
        -14    1    6    6    0    0 -0.78796849627E+02 -0.30745268191E+02  0.15538909228E+03  0.17691801781E+03  0.00000000000E+00 0.  1.
</event>
<event>
12    1  0.8417180E-002  0.2135543E+03  0.7818608E-02  0.1139139E+00
         21   -1    0    0  501  502  0.00000000000E+00  0.00000000000E+00  0.19276271419E+03  0.19276271419E+03  0.00000000000E+00 0.  1.
         21   -1    0    0  502  503 -0.00000000000E+00 -0.00000000000E+00 -0.23506187436E+03  0.23506187436E+03  0.00000000000E+00 0.  1.
         -6    2    1    2    0  503  0.12356085744E+03  0.21881588730E+02 -0.11171562141E+02  0.21201368562E+03  0.17052539305E+03 0.  0.
        -24    2    3    3    0    0  0.85891765423E+02  0.33063015579E+02 -0.70553829886E+02  0.14065313264E+03  0.79592100375E+02 0.  0.
          6    2    1    2  501    0 -0.12356085744E+03 -0.21881588730E+02 -0.31127598028E+02  0.21581090294E+03  0.17279852155E+03 0.  0.
         24    2    5    5    0    0 -0.77460389305E+02  0.13775035300E+02  0.45108195446E+02  0.11973471335E+03  0.78177930231E+02 0.  0.
          5    1    5    5  501    0 -0.46100468133E+02 -0.35656624030E+02 -0.76235793474E+02  0.96076189589E+02  0.47000000000E+01 0. -1.
        -13    1    6    6    0    0 -0.23620361807E+02  0.21725840512E+02 -0.17681701293E+02  0.36641181728E+02  0.00000000000E+00 0.  1.
         14    1    6    6    0    0 -0.53840027498E+02 -0.79508052115E+01  0.62789896738E+02  0.83093531619E+02  0.00000000000E+00 0. -1.
         -5    1    3    3    0  503  0.37669092016E+02 -0.11181426850E+02  0.59382267745E+02  0.71360552985E+02  0.47000000000E+01 0.  1.
         13    1    4    4    0    0 -0.11265832896E+02  0.74115496207E+01 -0.28869072991E+02  0.31863355661E+02  0.00000000000E+00 0. -1.
        -14    1    4    4    0    0  0.97157598319E+02  0.25651465959E+02 -0.41684756895E+02  0.10878977697E+03  0.00000000000E+00 0.  1.
</event>
<event>
12    1  0.8417180E-002  0.2238487E+03  0.7818608E-02  0.1131376E+00
         21   -1    0    0  501  502  0.00000000000E+00  0.00000000000E+00  0.22118578192E+03  0.22118578192E+03  0.00000000000E+00 0.  1.
         21   -1    0    0  502  503 -0.00000000000E+00 -0.00000000000E+00 -0.10155301848E+04  0.10155301848E+04  0.00000000000E+00 0. -1.
         -6    2    1    2    0  503 -0.18060965440E+02  0.14151659622E+03 -0.94319431025E+03  0.96939349900E+03  0.17249667687E+03 0.  0.
        -24    2    3    3    0    0  0.36925365712E+02  0.13974571500E+03 -0.63371475896E+03  0.65502696881E+03  0.81077658161E+02 0.  0.
          6    2    1    2  501    0  0.18060965440E+02 -0.14151659622E+03  0.14884990740E+03  0.26732246770E+03  0.17015246495E+03 0.  0.
         24    2    5    5    0    0  0.48100764253E+02 -0.15892285645E+03  0.10753811071E+03  0.21315493172E+03  0.79375196632E+02 0.  0.
          5    1    5    5  501    0 -0.30039798813E+02  0.17406260233E+02  0.41311796687E+02  0.54167535974E+02  0.47000000000E+01 0. -1.
        -11    1    6    6    0    0  0.32722775908E+02 -0.10524233976E+03  0.24198342853E+02  0.11283744918E+03  0.00000000000E+00 0.  1.
         12    1    6    6    0    0  0.15377988345E+02 -0.53680516690E+02  0.83339767856E+02  0.10031748254E+03  0.00000000000E+00 0. -1.
         -5    1    3    3    0  503 -0.54986331153E+02  0.17708812137E+01 -0.30947955129E+03  0.31436653018E+03  0.47000000000E+01 0.  1.
         11    1    4    4    0    0  0.88366318489E+00  0.90599116686E+02 -0.49911859972E+03  0.50727542557E+03  0.00000000000E+00 0. -1.
        -12    1    4    4    0    0  0.36041702528E+02  0.49146598316E+02 -0.13459615924E+03  0.14775154324E+03  0.00000000000E+00 0.  1.
</event>
<event>
12    1  0.8417180E-002  0.2131881E+03  0.7818608E-02  0.1139359E+00
         21   -1    0    0  501  502  0.00000000000E+00  0.00000000000E+00  0.41863032659E+02  0.41863032659E+02  0.00000000000E+00 0.  1.
         21   -1    0    0  502  503 -0.00000000000E+00 -0.00000000000E+00 -0.14301830493E+04  0.14301830493E+04  0.00000000000E+00 0.  1.
         -6    2    1    2    0  503  0.13931798156E+02  0.12660751785E+03 -0.10612431483E+04  0.10824445477E+04  0.17095502437E+03 0.  0.
        -24    2    3    3    0    0  0.71211218295E+02  0.72215930235E+02 -0.77077372956E+03  0.78138981841E+03  0.78687533641E+02 0.  0.
          6    2    1    2  501    0 -0.13931798156E+02 -0.12660751785E+03 -0.32707686836E+03  0.38960153432E+03  0.16907548360E+03 0.  0.
         24    2    5    5    0    0 -0.49033877249E+02 -0.18204817114E+02 -0.11333100599E+03  0.14733580178E+03  0.78282725324E+02 0.  0.
          5    1    5    5  501    0  0.35102079092E+02 -0.10840270073E+03 -0.21374586237E+03  0.24226573254E+03  0.47000000000E+01 0. -1.
        -13    1    6    6    0    0 -0.42759344316E+02 -0.44006529274E+02 -0.51730043448E+02  0.80255426858E+02  0.00000000000E+00 0.  1.
         14    1    6    6    0    0 -0.62745329330E+01  0.25801712161E+02 -0.61600962541E+02  0.67080374924E+02  0.00000000000E+00 0. -1.
         -5    1    3    3    0  503 -0.57279420138E+02  0.54391587613E+02 -0.29046941874E+03  0.30105472924E+03  0.47000000000E+01 0.  1.
         11    1    4    4    0    0 -0.11111946835E+02  0.10356102671E+02 -0.31413656716E+02  0.34893295248E+02  0.00000000000E+00 0. -1.
        -12    1    4    4    0    0  0.82323165129E+02  0.61859827564E+02 -0.73936007284E+03  0.74649652316E+03  0.00000000000E+00 0.  1.
</event>
<event>
12    1  0.8417180E-002  0.1994795E+03  0.7818608E-02  0.1151202E+00
         21   -1    0    0  503  502  0.00000000000E+00  0.00000000000E+00  0.19600243233E+03  0.19600243233E+03  0.00000000000E+00 0.  1.
         21   -1    0    0  501  503 -0.00000000000E+00 -0.00000000000E+00 -0.24786084886E+03  0.24786084886E+03  0.00000000000E+00 0.  1.
          6    2    1    2  501    0  0.98073734386E+02 -0.22729848237E+02 -0.12502305959E+03  0.23138941278E+03  0.16665890776E+03 0.  0.
         24    2    3    3    0    0  0.40042659840E+02  0.39400144672E+01  0.31957481099E+01  0.88067956467E+02  0.78273966484E+02 0.  0.
         -6    2    1    2    0  502 -0.98073734386E+02  0.22729848237E+02  0.73164643060E+02  0.21247386842E+03  0.17221201000E+03 0.  0.
        -24    2    5    5    0    0 -0.23870141970E+02  0.14616991233E+02  0.10155828107E+03  0.13247211684E+03  0.80320216484E+02 0.  0.
          5    1    3    3  501    0  0.58031074545E+02 -0.26669862704E+02 -0.12821880770E+03  0.14332145631E+03  0.47000000000E+01 0. -1.
        -13    1    4    4    0    0  0.51134920254E+02 -0.18455355398E+02 -0.15871721439E+02  0.56632956427E+02  0.00000000000E+00 0.  1.
         14    1    4    4    0    0 -0.11092260413E+02  0.22395369865E+02  0.19067469549E+02  0.31435000040E+02  0.00000000000E+00 0. -1.
         -5    1    5    5    0  502 -0.74203592416E+02  0.81128570039E+01 -0.28393638008E+02  0.80001751578E+02  0.47000000000E+01 0.  1.
         11    1    6    6    0    0  0.27792449534E+02 -0.44566867340E+01  0.22059314124E+02  0.35761650512E+02  0.00000000000E+00 0. -1.
        -12    1    6    6    0    0 -0.51662591504E+02  0.19073677967E+02  0.79498966944E+02  0.96710466328E+02  0.00000000000E+00 0.  1.
</event>
<event>
12    1  0.8417180E-002  0.2905161E+03  0.7818608E-02  0.1090121E+00
         21   -1    0    0  501  502  0.00000000000E+00  0.00000000000E+00  0.49369922165E+03  0.49369922165E+03  0.00000000000E+00 0. -1.
         21   -1    0    0  502  503 -0.00000000000E+00 -0.00000000000E+00 -0.25120424879E+03  0.25120424879E+03  0.00000000000E+00 0.  1.
         -6    2    1    2    0  503 -0.21008461897E+03 -0.10275459717E+03 -0.89463099171E+02  0.30397905021E+03  0.17235301705E+03 0.  0.
        -24    2    3    3    0    0 -0.57287153854E+02  0.49439004324E+01 -0.51837729022E+02  0.11323369585E+03  0.82634493873E+02 0.  0.
          6    2    1    2  501    0  0.21008461897E+03  0.10275459717E+03  0.33195807203E+03  0.44092442022E+03  0.17182586648E+03 0.  0.
         24    2    5    5    0    0  0.20770439651E+03  0.13140334114E+03  0.27542443429E+03  0.37732757922E+03  0.78163473829E+02 0.  0.
          5    1    5    5  501    0  0.23802224585E+01 -0.28648743962E+02  0.56533637740E+02  0.63596841004E+02  0.47000000000E+01 0. -1.
        -13    1    6    6    0    0  0.53149436058E+02  0.76621524794E+02  0.11323839491E+03  0.14669238118E+03  0.00000000000E+00 0.  1.
         14    1    6    6    0    0  0.15455496045E+03  0.54781816342E+02  0.16218603938E+03  0.23063519803E+03  0.00000000000E+00 0. -1.
         -5    1    3    3    0  503 -0.15279746511E+03 -0.10769849761E+03 -0.37625370149E+02  0.19074535436E+03  0.47000000000E+01 0.  1.
         11    1    4    4    0    0 -0.29650999991E+02  0.43379394412E+02 -0.34304125909E+02  0.62751308468E+02  0.00000000000E+00 0. -1.
        -12    1    4    4    0    0 -0.27636153863E+02 -0.38435493979E+02 -0.17533603113E+02  0.50482387383E+02  0.00000000000E+00 0.  1.
</event>
<event>
12    1  0.8417180E-002  0.1808512E+03  0.7818608E-02  0.1167543E+00
         21   -1    0    0  503  502  0.00000000000E+00  0.00000000000E+00  0.27435754357E+03  0.27435754357E+03  0.00000000000E+00 0.  1.
         21   -1    0    0  501  503 -0.00000000000E+00 -0.00000000000E+00 -0.36658526836E+03  0.36658526836E+03  0.00000000000E+00 0.  1.
          6    2    1    2  501    0  0.49203651991E+02 -0.29702105058E+02 -0.31008106323E+03  0.35780462621E+03  0.16902860807E+03 0.  0.
         24    2    3    3    0    0  0.41137333306E+02 -0.81214436707E+02 -0.16180533250E+03  0.20055842392E+03  0.75859415103E+02 0.  0.
         -6    2    1    2    0  502 -0.49203651991E+02  0.29702105058E+02  0.21785333845E+03  0.28313818572E+03  0.17147577301E+03 0.  0.
        -24    2    5    5    0    0 -0.25879202528E+02  0.48804881336E+02  0.44216156636E+02  0.10684040664E+03  0.80050948881E+02 0.  0.
          5    1    3    3  501    0  0.80663186856E+01  0.51512331649E+02 -0.14827573073E+03  0.15724620228E+03  0.47000000000E+01 0. -1.
        -13    1    4    4    0    0 -0.12831750153E+02 -0.18155747569E+02 -0.83644939343E+02  0.86549181738E+02  0.00000000000E+00 0.  1.
         14    1    4    4    0    0  0.53969083459E+02 -0.63058689138E+02 -0.78160393159E+02  0.11400924219E+03  0.00000000000E+00 0. -1.
         -5    1    5    5    0  502 -0.23324449463E+02 -0.19102776279E+02  0.17363718181E+03  0.17629777909E+03  0.47000000000E+01 0.  1.
         13    1    6    6    0    0 -0.52365423518E+02  0.18563865690E+02  0.16307665199E+02  0.57902457926E+02  0.00000000000E+00 0. -1.
        -14    1    6    6    0    0  0.26486220990E+02  0.30241015646E+02  0.27908491437E+02  0.48937948710E+02  0.00000000000E+00 0.  1.
</event>
<event>
12    1  0.8417180E-002  0.1909818E+03  0.7818608E-02  0.1158442E+00
         21   -1    0    0  501  502  0.00000000000E+00  0.00000000000E+00  0.13138559484E+03  0.13138559484E+03  0.00000000000E+00 0. -1.
         21   -1    0    0  502  503 -0.00000000000E+00 -0.00000000000E+00 -0.37708358895E+03  0.37708358895E+03  0.00000000000E+00 0.  1.
         -6    2    1    2    0  503 -0.39174387982E+02 -0.73949569371E+02 -0.25609682688E+03  0.31720448818E+03  0.16742141768E+03 0.  0.
        -24    2    3    3    0    0 -0.65483106820E+01 -0.98289862525E+01 -0.22405258215E+03  0.23830687275E+03  0.80318843935E+02 0.  0.
          6    2    1    2  501    0  0.39174387982E+02  0.73949569371E+02  0.10398832766E+02  0.19126469561E+03  0.17167083788E+03 0.  0.
         24    2    5    5    0    0 -0.20638889758E+02  0.38649219568E+02 -0.44451868980E+02  0.10263946008E+03  0.81481066305E+02 0.  0.
          5    1    5    5  501    0  0.59813277740E+02  0.35300349803E+02  0.54850701745E+02  0.88625235526E+02  0.47000000000E+01 0. -1.
        -11    1    6    6    0    0  0.21261120086E+02  0.32207422925E+02 -0.46216287087E+02  0.60210451841E+02  0.00000000000E+00 0.  1.
         12    1    6    6    0    0 -0.41900009844E+02  0.64417966437E+01  0.17644181079E+01  0.42429008240E+02  0.00000000000E+00 0. -1.
         -5    1    3    3    0  503 -0.32626077300E+02 -0.64120583118E+02 -0.32044244732E+02  0.78897615426E+02  0.47000000000E+01 0.  1.
         11    1    4    4    0    0 -0.21045731591E+02  0.26438477479E+02 -0.53034435815E+02  0.62885350375E+02  0.00000000000E+00 0. -1.
        -12    1    4    4    0    0  0.14497420909E+02 -0.36267463732E+02 -0.17101814633E+03  0.17542152238E+03  0.00000000000E+00 0.  1.
</event>
<event>
12    1  0.8417180E-002  0.1810107E+03  0.7818608E-02  0.1167221E+00
         21   -1    0    0  501  502  0.00000000000E+00  0.00000000000E+00  0.45176209443E+03  0.45176209443E+03  0.00000000000E+00 0. -1.
         21   -1    0    0  502  503 -0.00000000000E+00 -0.00000000000E+00 -0.10316539676E+03  0.10316539676E+03  0.00000000000E+00 0. -1.
         -6    2    1    2    0  503 -0.51134818595E+02 -0.93713894584E+01  0.22044325812E+02  0.18234811993E+03  0.17338480882E+03 0.  0.
        -24    2    3    3    0    0 -0.37334512333E+02  0.27604324220E+02  0.72365523676E+02  0.11822351616E+03  0.81142875404E+02 0.  0.
          6    2    1    2  501    0  0.51134818595E+02  0.93713894584E+01  0.32655237186E+03  0.37257937127E+03  0.17168676045E+03 0.  0.
         24    2    5    5    0    0  0.32560871630E+02 -0.49914039515E+02  0.11337107760E+03  0.15048005155E+03  0.78991284189E+02 0.  0.
          5    1    5    5  501    0  0.18573946965E+02  0.59285428974E+02  0.21318129426E+03  0.22209931971E+03  0.47000000000E+01 0. -1.
        -13    1    6    6    0    0  0.19702904878E+02  0.17635158951E+02  0.51896670520E+02  0.58244894221E+02  0.00000000000E+00 0.  1.
         14    1    6    6    0    0  0.12857966753E+02 -0.67549198466E+02  0.61474407077E+02  0.92235157331E+02  0.00000000000E+00 0. -1.
         -5    1    3    3    0  503 -0.13800306262E+02 -0.36975713678E+02 -0.50321197863E+02  0.64124603775E+02  0.47000000000E+01 0.  1.
         13    1    4    4    0    0  0.13559806029E+02  0.14407568724E+01 -0.10714596323E+02  0.17342049887E+02  0.00000000000E+00 0. -1.
        -14    1    4    4    0    0 -0.50894318362E+02  0.26163567347E+02  0.83080119998E+02  0.10088146627E+03  0.00000000000E+00 0.  1.
</event>
<event>
12    1  0.8417180E-002  0.2842951E+03  0.7818608E-02  0.1093380E+00
         21   -1    0    0  503  502  0.00000000000E+00  0.00000000000E+00  0.97227239518E+03  0.97227239518E+03  0.00000000000E+00 0. -1.
         21   -1    0    0  501  503 -0.00000000000E+00 -0.00000000000E+00 -0.15665876233E+03  0.15665876233E+03  0.00000000000E+00 0. -1.
          6    2    1    2  501    0 -0.28323251649E+02 -0.22426969398E+03  0.21049790241E+02  0.28507336698E+03  0.17240831961E+03 0.  0.
         24    2    3    3    0    0 -0.34484761164E+02 -0.21244025997E+03  0.65374102526E+02  0.23854773568E+03  0.79442973930E+02 0.  0.
         -6    2    1    2    0  502  0.28323251649E+02  0.22426969398E+03  0.79456384261E+03  0.84385779054E+03  0.17223579317E+03 0.  0.
        -24    2    5    5    0    0  0.27187858037E+02  0.24722978246E+03  0.73372811941E+03  0.77865403298E+03  0.77996185187E+02 0.  0.
          5    1    3    3  501    0  0.61615095149E+01 -0.11829434002E+02 -0.44324312285E+02  0.46525631300E+02  0.47000000000E+01 0. -1.
        -11    1    4    4    0    0  0.15172851435E+02 -0.18578911475E+02 -0.81717394578E+01  0.25341047689E+02  0.00000000000E+00 0.  1.
         12    1    4    4    0    0 -0.49657612599E+02 -0.19386134850E+03  0.73545841984E+02  0.21320668799E+03  0.00000000000E+00 0. -1.
         -5    1    5    5    0  502  0.11353936119E+01 -0.22960088489E+02  0.60835723203E+02  0.65203757559E+02  0.47000000000E+01 0.  1.
         13    1    6    6    0    0  0.29482376670E+02  0.13068643579E+03  0.49763057358E+03  0.51534875841E+03  0.00000000000E+00 0. -1.
        -14    1    6    6    0    0 -0.22945186323E+01  0.11654334668E+03  0.23609754582E+03  0.26330527457E+03  0.00000000000E+00 0.  1.
</event>
<event>
12    1  0.8417180E-002  0.1729810E+03  0.7818608E-02  0.1174829E+00
         21   -1    0    0  503  502  0.00000000000E+00  0.00000000000E+00  0.19395457459E+03  0.19395457459E+03  0.00000000000E+00 0. -1.
         21   -1    0    0  501  503 -0.00000000000E+00 -0.00000000000E+00 -0.16943747332E+03  0.16943747332E+03  0.00000000000E+00 0. -1.
          6    2    1    2  501    0  0.12298710967E+02  0.11436534282E+02 -0.42440713015E+02  0.17790411801E+03  0.17194943581E+03 0.  0.
         24    2    3    3    0    0  0.40454243653E+01 -0.85150352542E+01  0.42287587465E+02  0.90341815798E+02  0.79275042381E+02 0.  0.
         -6    2    1    2    0  502 -0.12298710967E+02 -0.11436534282E+02  0.66957814286E+02  0.18548792990E+03  0.17216379014E+03 0.  0.
        -24    2    5    5    0    0 -0.51066329019E+02  0.86272966398E+01  0.94313592088E+02  0.13375869155E+03  0.79461523432E+02 0.  0.
          5    1    3    3  501    0  0.82532866015E+01  0.19951569537E+02 -0.84728300481E+02  0.87562302214E+02  0.47000000000E+01 0. -1.
        -13    1    4    4    0    0 -0.25648179239E+02 -0.27855687101E+02  0.38480133502E+01  0.38060157762E+02  0.00000000000E+00 0.  1.
         14    1    4    4    0    0  0.29693603604E+02  0.19340651847E+02  0.38439574115E+02  0.52281658036E+02  0.00000000000E+00 0. -1.
         -5    1    5    5    0  502  0.38767618052E+02 -0.20063830922E+02 -0.27355777801E+02  0.51729238346E+02  0.47000000000E+01 0.  1.
         13    1    6    6    0    0 -0.42810161004E+02  0.41639900722E+02  0.69552808996E+02  0.91674339139E+02  0.00000000000E+00 0. -1.
        -14    1    6    6    0    0 -0.82561680150E+01 -0.33012604082E+02  0.24760783092E+02  0.42084352412E+02  0.00000000000E+00 0.  1.
</event>
<event>
12    1  0.8417180E-002  0.2753854E+03  0.7818608E-02  0.1098825E+00
         21   -1    0    0  503  502  0.00000000000E+00  0.00000000000E+00  0.95852937115E+02  0.95852937115E+02  0.00000000000E+00 0. -1.
         21   -1    0    0  501  503 -0.00000000000E+00 -0.00000000000E+00 -0.16451989251E+04  0.16451989251E+04  0.00000000000E+00 0.  1.
          6    2    1    2  501    0  0.18798727686E+03  0.93378999555E+02 -0.14034390342E+04  0.14294015280E+04  0.17172289200E+03 0.  0.
         24    2    3    3    0    0  0.18631373058E+03  0.26996609939E+02 -0.10704202893E+04  0.10897944067E+04  0.80066408924E+02 0.  0.
         -6    2    1    2    0  502 -0.18798727686E+03 -0.93378999555E+02 -0.14590695374E+03  0.31165033419E+03  0.17826451648E+03 0.  0.
        -24    2    5    5    0    0 -0.12297405260E+03  0.61434392647E+01 -0.38184674942E+02  0.15115854467E+03  0.78933369159E+02 0.  0.
          5    1    3    3  501    0  0.16735462747E+01  0.66382389617E+02 -0.33301874492E+03  0.33960712136E+03  0.47000000000E+01 0. -1.
        -11    1    4    4    0    0  0.14647608763E+03  0.53915777939E+02 -0.78774971941E+03  0.80306399233E+03  0.00000000000E+00 0.  1.
         12    1    4    4    0    0  0.39837642953E+02 -0.26919168001E+02 -0.28267056991E+03  0.28673041432E+03  0.00000000000E+00 0. -1.
         -5    1    5    5    0  502 -0.65013224260E+02 -0.99522438820E+02 -0.10772227879E+03  0.16049178953E+03  0.47000000000E+01 0.  1.
         11    1    6    6    0    0 -0.12899190938E+03  0.22204730711E+01 -0.18659030707E+02  0.13035337591E+03  0.00000000000E+00 0. -1.
        -12    1    6    6    0    0  0.60178567796E+01  0.39229661935E+01 -0.19525644235E+02  0.20805168751E+02  0.00000000000E+00 0.  1.
</event>
<event>
12    1  0.8417180E-002  0.2100328E+03  0.7818608E-02  0.1142050E+00
         21   -1    0    0  501  502  0.00000000000E+00  0.00000000000E+00  0.24302337657E+03  0.24302337657E+03  0.00000000000E+00 0. -1.
         21   -1    0    0  502  503 -0.00000000000E+00 -0.00000000000E+00 -0.31899689617E+03  0.31899689617E+03  0.00000000000E+00 0. -1.
         -6    2    1    2    0  503 -0.92213697274E+02 -0.76815032584E+02 -0.22380375862E+03  0.30517880450E+03  0.16923966778E+03 0.  0.
        -24    2    3    3    0    0 -0.48664617186E+02 -0.45242654271E+02 -0.36746371471E+02  0.11048444522E+03  0.80258171477E+02 0.  0.
          6    2    1    2  501    0  0.92213697274E+02  0.76815032584E+02  0.14783023902E+03  0.25684146824E+03  0.17236544040E+03 0.  0.
         24    2    5    5    0    0  0.20017474238E+02  0.10472102589E+03  0.96338226537E+02  0.16375786908E+03  0.78539119262E+02 0.  0.
          5    1    5    5  501    0  0.72196223036E+02 -0.27905993307E+02  0.51492012485E+02  0.93083599162E+02  0.47000000000E+01 0. -1.
        -11    1    6    6    0    0 -0.28350209487E+02  0.33162997517E+02  0.18153490418E+02  0.47255348867E+02  0.00000000000E+00 0.  1.
         12    1    6    6    0    0  0.48367683724E+02  0.71558028374E+02  0.78184736119E+02  0.11650252021E+03  0.00000000000E+00 0. -1.
         -5    1    3    3    0  503 -0.43549080089E+02 -0.31572378313E+02 -0.18705738714E+03  0.19469435928E+03  0.47000000000E+01 0.  1.
         13    1    4    4    0    0 -0.63778443897E+02 -0.55808172770E+02 -0.24045981101E+02  0.88093423483E+02  0.00000000000E+00 0. -1.
        -14    1    4    4    0    0  0.15113826711E+02  0.10565518499E+02 -0.12700390371E+02  0.22391021741E+02  0.00000000000E+00 0.  1.
</event>
<event>
12    1  0.8417180E-002  0.2985052E+03  0.7818608E-02  0.1086044E+00
         21   -1    0    0  503  502  0.00000000000E+00  0.00000000000E+00  0.20907633466E+03  0.20907633466E+03  0.00000000000E+00 0.  1.
         21   -1    0    0  501  503 -0.00000000000E+00 -0.00000000000E+00 -0.10867198781E+04  0.10867198781E+04  0.00000000000E+00 0.  1.
          6    2    1    2  501    0  0.22915681908E+03 -0.82231317328E+02 -0.94429596903E+03  0.99035360068E+03  0.17271519898E+03 0.  0.
         24    2    3    3    0    0  0.88911782485E+02 -0.93571059914E+02 -0.39377221509E+03  0.42211443122E+03  0.80393950931E+02 0.  0.
         -6    2    1    2    0  502 -0.22915681908E+03  0.82231317328E+02  0.66652425594E+02  0.30544261208E+03  0.17198199370E+03 0.  0.
        -24    2    5    5    0    0 -0.23682765435E+03  0.44252161602E+02  0.37301357428E+02  0.25660785821E+03  0.80066284764E+02 0.  0.
          5    1    3    3  501    0  0.14024503659E+03  0.11339742586E+02 -0.55052375394E+03  0.56823916946E+03  0.47000000000E+01 0. -1.
        -11    1    4    4    0    0  0.82579017464E+02 -0.61494447257E+02 -0.19346660278E+03  0.21915790554E+03  0.00000000000E+00 0.  1.
         12    1    4    4    0    0  0.63327650210E+01 -0.32076612657E+02 -0.20030561231E+03  0.20295652568E+03  0.00000000000E+00 0. -1.
         -5    1    5    5    0  502  0.76708352715E+01  0.37979155726E+02  0.29351068165E+02  0.48834753874E+02  0.47000000000E+01 0.  1.
         11    1    6    6    0    0 -0.49573497564E+02 -0.60753105859E-02 -0.23438431723E+02  0.54835132709E+02  0.00000000000E+00 0. -1.
        -12    1    6    6    0    0 -0.18725415679E+03  0.44258236912E+02  0.60739789152E+02  0.20177272550E+03  0.00000000000E+00 0.  1.
</event>
<event>
12    1  0.8417180E-002  0.1864082E+03  0.7818608E-02  0.1161982E+00
         21   -1    0    0  503  502  0.00000000000E+00  0.00000000000E+00  0.43653701842E+03  0.43653701842E+03  0.00000000000E+00 0.  1.
         21   -1    0    0  501  503 -0.00000000000E+00 -0.00000000000E+00 -0.13575589472E+03  0.13575589472E+03  0.00000000000E+00 0.  1.
          6    2    1    2  501    0 -0.19741082135E+02  0.66020390621E+02 -0.34127206332E+02  0.18950646851E+03  0.17320402159E+03 0.  0.
         24    2    3    3    0    0 -0.51664282557E+02  0.11513734291E+02  0.38280404092E+02  0.93303462549E+02  0.66621187447E+02 0.  0.
         -6    2    1    2    0  502  0.19741082135E+02 -0.66020390621E+02  0.33490833003E+03  0.38278644462E+03  0.17208564833E+03 0.  0.
        -24    2    5    5    0    0 -0.10973874437E+02 -0.68276476537E+02  0.97170318695E+02  0.14301582400E+03  0.78926243477E+02 0.  0.
          5    1    3    3  501    0  0.31923200422E+02  0.54506656329E+02 -0.72407610424E+02  0.96203005965E+02  0.47000000000E+01 0. -1.
        -13    1    4    4    0    0 -0.45838621597E+02  0.33325330126E+01 -0.73827992634E+01  0.46548799460E+02  0.00000000000E+00 0.  1.
         14    1    4    4    0    0 -0.58256609601E+01  0.81812012787E+01  0.45663203355E+02  0.46754663090E+02  0.00000000000E+00 0. -1.
         -5    1    5    5    0  502  0.30714956572E+02  0.22560859160E+01  0.23773801134E+03  0.23977062063E+03  0.47000000000E+01 0.  1.
         13    1    6    6    0    0 -0.39742217527E+02 -0.60829925665E+02  0.82300579584E+02  0.10978665270E+03  0.00000000000E+00 0. -1.
        -14    1    6    6    0    0  0.28768343090E+02 -0.74465508719E+01  0.14869739111E+02  0.33229171300E+02  0.00000000000E+00 0.  1.
</event>
<event>
12    1  0.8417180E-002  0.1757793E+03  0.7818608E-02  0.1172876E+00
         21   -1    0    0  503  502  0.00000000000E+00  0.00000000000E+00  0.18370372279E+03  0.18370372279E+03  0.00000000000E+00 0.  1.
         21   -1    0    0  501  503 -0.00000000000E+00 -0.00000000000E+00 -0.16529333437E+03  0.16529333437E+03  0.00000000000E+00 0.  1.
          6    2    1    2  501    0  0.14102695852E+02 -0.74674311960E+01  0.19464644981E+02  0.17321456751E+03  0.17137609353E+03 0.  0.
         24    2    3    3    0    0  0.72354034438E+02 -0.24105948099E+02  0.12811946126E+02  0.11208841031E+03  0.81138540344E+02 0.  0.
         -6    2    1    2    0  502 -0.14102695852E+02  0.74674311960E+01 -0.10542565659E+01  0.17578248965E+03  0.17505348798E+03 0.  0.
        -24    2    5    5    0    0  0.38053152583E+02  0.36437564498E+02 -0.41206675518E+02  0.10371441144E+03  0.79265064849E+02 0.  0.
          5    1    3    3  501    0 -0.58251338586E+02  0.16638516903E+02  0.66526988543E+01  0.61126157198E+02  0.47000000000E+01 0. -1.
        -11    1    4    4    0    0  0.23065199499E+02 -0.49841763380E+02 -0.46518139212E+00  0.54921955523E+02  0.00000000000E+00 0.  1.
         12    1    4    4    0    0  0.49288834939E+02  0.25735815281E+02  0.13277127518E+02  0.57166454788E+02  0.00000000000E+00 0. -1.
         -5    1    5    5    0  502 -0.52155848435E+02 -0.28970133302E+02  0.40152418952E+02  0.72068078213E+02  0.47000000000E+01 0.  1.
         13    1    6    6    0    0 -0.14108008646E+02 -0.15558491837E+02 -0.47407975538E+01  0.21530855479E+02  0.00000000000E+00 0. -1.
        -14    1    6    6    0    0  0.52161161229E+02  0.51996056335E+02 -0.36465877964E+02  0.82183555964E+02  0.00000000000E+00 0.  1.
</event>
<event>
12    1  0.8417180E-002  0.2260241E+03  0.7818608E-02  0.1129747E+00
         21   -1    0    0  503  502  0.00000000000E+00  0.00000000000E+00  0.13838817697E+03  0.13838817697E+03  0.00000000000E+00 0.  1.
         21   -1    0    0  501  503 -0.00000000000E+00 -0.00000000000E+00 -0.40805573564E+03  0.40805573564E+03  0.00000000000E+00 0.  1.
          6    2    1    2  501    0  0.34963108789E+01  0.14555977563E+03 -0.22226898683E+03  0.31700221097E+03  0.17287864756E+03 0.  0.
         24    2    3    3    0    0  0.30274298485E+02  0.11731968053E+03 -0.23239721919E+03  0.27651474770E+03  0.88156098009E+02 0.  0.
         -6    2    1    2    0  502 -0.34963108789E+01 -0.14555977563E+03 -0.47398571839E+02  0.22944170163E+03  0.17087128889E+03 0.  0.
        -24    2    5    5    0    0  0.28568267867E+02 -0.63152898809E+02  0.32631616916E+02  0.11008529557E+03  0.79053876062E+02 0.  0.
          5    1    3    3  501    0 -0.26777987606E+02  0.28240095099E+02  0.10128232366E+02  0.40487463273E+02  0.47000000000E+01 0. -1.
        -13    1    4    4    0    0 -0.25434413053E+02  0.61356398404E+02 -0.14010924831E+03  0.15505521099E+03  0.00000000000E+00 0.  1.
         14    1    4    4    0    0  0.55708711538E+02  0.55963282123E+02 -0.92287970883E+02  0.12145953671E+03  0.00000000000E+00 0. -1.
         -5    1    5    5    0  502 -0.32064578746E+02 -0.82406876817E+02 -0.80030188756E+02  0.11935640607E+03  0.47000000000E+01 0.  1.
         13    1    6    6    0    0 -0.12880927853E+02  0.13078462514E+02  0.62730286924E+01  0.19398849787E+02  0.00000000000E+00 0. -1.
        -14    1    6    6    0    0  0.41449195720E+02 -0.76231361323E+02  0.26358588224E+02  0.90686445780E+02  0.00000000000E+00 0.  1.
</event>
<event>
12    1  0.8417180E-002  0.5278694E+03  0.7818608E-02  0.1006761E+00
         21   -1    0    0  501  502  0.00000000000E+00  0.00000000000E+00  0.11767441392E+04  0.11767441392E+04  0.00000000000E+00 0.  1.
         21   -1    0    0  502  503 -0.00000000000E+00 -0.00000000000E+00 -0.27683144932E+03  0.27683144932E+03  0.00000000000E+00 0. -1.
         -6    2    1    2    0  503  0.34640790976E+03 -0.35889970854E+03  0.17321603374E+03  0.55539180483E+03  0.17218833233E+03 0.  0.
        -24    2    3    3    0    0  0.30699404007E+03 -0.31600543224E+03  0.94496239999E+02  0.45734963028E+03  0.78322226074E+02 0.  0.
          6    2    1    2  501    0 -0.34640790976E+03  0.35889970854E+03  0.72669665619E+03  0.89818378374E+03  0.17273864225E+03 0.  0.
         24    2    5    5    0    0 -0.74148223645E+02  0.10005631239E+03  0.26136980353E+03  0.30012324314E+03  0.79060496834E+02 0.  0.
          5    1    5    5  501    0 -0.27225968612E+03  0.25884339615E+03  0.46532685266E+03  0.59806054060E+03  0.47000000000E+01 0. -1.
        -13    1    6    6    0    0 -0.40808488220E+02  0.92311702553E+02  0.23844929503E+03  0.25893020187E+03  0.00000000000E+00 0.  1.
         14    1    6    6    0    0 -0.33339735425E+02  0.77446098335E+01  0.22920508500E+02  0.41193041276E+02  0.00000000000E+00 0. -1.
         -5    1    3    3    0  503  0.39413869689E+02 -0.42894276296E+02  0.78719793743E+02  0.98042174546E+02  0.47000000000E+01 0.  1.
         11    1    4    4    0    0  0.12583335207E+03 -0.14979049455E+03  0.49554664309E+01  0.19569307959E+03  0.00000000000E+00 0. -1.
        -12    1    4    4    0    0  0.18116068800E+03 -0.16621493769E+03  0.89540773568E+02  0.26165655069E+03  0.00000000000E+00 0.  1.
</event>
<event>
12    1  0.8417180E-002  0.1885105E+03  0.7818608E-02  0.1159979E+00
         21   -1    0    0  501  502  0.00000000000E+00  0.00000000000E+00  0.32472167840E+03  0.32472167840E+03  0.00000000000E+00 0. -1.
         21   -1    0    0  502  503 -0.00000000000E+00 -0.00000000000E+00 -0.19020228291E+03  0.19020228291E+03  0.00000000000E+00 0. -1.
         -6    2    1    2    0  503  0.52680516865E+02  0.57743561878E+02 -0.10102734429E+03  0.21323130614E+03  0.17073813232E+03 0.  0.
        -24    2    3    3    0    0  0.27415857036E+02 -0.34956614426E+02 -0.54709274990E+02  0.10646483543E+03  0.79800139755E+02 0.  0.
          6    2    1    2  501    0 -0.52680516865E+02 -0.57743561878E+02  0.23554673978E+03  0.30169265517E+03  0.17154193589E+03 0.  0.
         24    2    5    5    0    0 -0.38295851739E+02 -0.83483271569E+02  0.24228471863E+03  0.27108315330E+03  0.79675355208E+02 0.  0.
          5    1    5    5  501    0 -0.14384665127E+02  0.25739709691E+02 -0.67379788543E+01  0.30609501872E+02  0.47000000000E+01 0. -1.
        -13    1    6    6    0    0 -0.17081193172E+02  0.78720904205E+01  0.92246893901E+02  0.94144709900E+02  0.00000000000E+00 0.  1.
         14    1    6    6    0    0 -0.21214658566E+02 -0.91355361990E+02  0.15003782473E+03  0.17693844340E+03  0.00000000000E+00 0. -1.
         -5    1    3    3    0  503  0.25264659830E+02  0.92700176305E+02 -0.46318069303E+02  0.10676647071E+03  0.47000000000E+01 0.  1.
         13    1    4    4    0    0  0.63160169342E+01  0.23127111633E+02 -0.33365317367E+02  0.41085274313E+02  0.00000000000E+00 0. -1.
        -14    1    4    4    0    0  0.21099840102E+02 -0.58083726060E+02 -0.21343957623E+02  0.65379561120E+02  0.00000000000E+00 0.  1.
</event>
<event>
12    1  0.8417180E-002  0.1905253E+03  0.7818608E-02  0.1158586E+00
         21   -1    0    0  501  502  0.00000000000E+00  0.00000000000E+00  0.94478234023E+03  0.94478234023E+03  0.00000000000E+00 0.  1.
         21   -1    0    0  502  503 -0.00000000000E+00 -0.00000000000E+00 -0.16650133387E+03  0.16650133387E+03  0.00000000000E+00 0. -1.
         -6    2    1    2    0  503  0.49309892651E+01 -0.85024307438E+02 -0.98580917984E+02  0.21451825015E+03  0.17043014624E+03 0.  0.
        -24    2    3    3    0    0 -0.30244350790E+01 -0.51329359808E+02  0.14019490432E+02  0.96621769085E+02  0.80593856858E+02 0.  0.
          6    2    1    2  501    0 -0.49309892651E+01  0.85024307438E+02  0.87686192435E+03  0.89676542395E+03  0.16747520326E+03 0.  0.
         24    2    5    5    0    0  0.11790531812E+02  0.11901931388E+03  0.77162995205E+03  0.78482290422E+03  0.78927779414E+02 0.  0.
          5    1    5    5  501    0 -0.16721521077E+02 -0.33995006443E+02  0.10523197230E+03  0.11194251973E+03  0.47000000000E+01 0.  1.
        -11    1    6    6    0    0  0.44754924852E+01  0.12136598456E+03  0.55839689854E+03  0.57145151023E+03  0.00000000000E+00 0.  1.
         12    1    6    6    0    0  0.73150393265E+01 -0.23466706778E+01  0.21323305351E+03  0.21337139399E+03  0.00000000000E+00 0. -1.
         -5    1    3    3    0  503  0.79554243441E+01 -0.33694947630E+02 -0.11260040842E+03  0.11789648107E+03  0.47000000000E+01 0.  1.
         13    1    4    4    0    0  0.14415829082E+02 -0.72801612406E+01 -0.28633585419E+02  0.32873988041E+02  0.00000000000E+00 0. -1.
        -14    1    4    4    0    0 -0.17440264161E+02 -0.44049198568E+02  0.42653075850E+02  0.63747781043E+02  0.00000000000E+00 0.  1.
</event>
<event>
12    1  0.8417180E-002  0.4301510E+03  0.7818608E-02  0.1033879E+00
         21   -1    0    0  501  502  0.00000000000E+00  0.00000000000E+00  0.35914962384E+03  0.35914962384E+03  0.00000000000E+00 0. -1.
         21   -1    0    0  502  503 -0.00000000000E+00 -0.00000000000E+00 -0.54315163165E+03  0.54315163165E+03  0.00000000000E+00 0.  1.
         -6    2    1    2    0  503  0.30910582297E+03  0.24492484900E+03 -0.19627418377E+03  0.47281440336E+03  0.17174199648E+03 0.  0.
        -24    2    3    3    0    0  0.27786156510E+03  0.17696550401E+03 -0.20747141820E+03  0.39703746570E+03  0.77913547161E+02 0.  0.
          6    2    1    2  501    0 -0.30910582297E+03 -0.24492484900E+03  0.12272175962E+02  0.42948685213E+03  0.16962829481E+03 0.  0.
         24    2    5    5    0    0 -0.25947066797E+03 -0.13164139734E+03 -0.15340552640E+02  0.30267462161E+03  0.81988468550E+02 0.  0.
          5    1    5    5  501    0 -0.49635154995E+02 -0.11328345166E+03  0.27612728602E+02  0.12681223053E+03  0.47000000000E+01 0. -1.
        -13    1    6    6    0    0 -0.50300611540E+02  0.47955402512E+01  0.10496751646E+02  0.51607465766E+02  0.00000000000E+00 0.  1.
         14    1    6    6    0    0 -0.20917005643E+03 -0.13643693759E+03 -0.25837304286E+02  0.25106715584E+03  0.00000000000E+00 0. -1.
         -5    1    3    3    0  503  0.31244257872E+02  0.67959344993E+02  0.11197234431E+02  0.75776937657E+02  0.47000000000E+01 0.  1.
         13    1    4    4    0    0  0.67986715694E+01 -0.14442597456E+01 -0.22424439909E+02  0.23476867904E+02  0.00000000000E+00 0. -1.
        -14    1    4    4    0    0  0.27106289353E+03  0.17840976375E+03 -0.18504697829E+03  0.37356059779E+03  0.00000000000E+00 0.  1.
</event>
<event>
12    1  0.8417180E-002  0.1920122E+03  0.7818608E-02  0.1156920E+00
         21   -1    0    0  503  502  0.00000000000E+00  0.00000000000E+00  0.30488284468E+02  0.30488284468E+02  0.00000000000E+00 0.  1.
         21   -1    0    0  501  503 -0.00000000000E+00 -0.00000000000E+00 -0.12021852045E+04  0.12021852045E+04  0.00000000000E+00 0.  1.
          6    2    1    2  501    0  0.40647941074E+02 -0.73610441923E+02 -0.59684481602E+03  0.62697084157E+03  0.17262082580E+03 0.  0.
         24    2    3    3    0    0  0.40592657172E+02 -0.63712439640E+02 -0.60406980091E+03  0.61384590683E+03  0.78736485703E+02 0.  0.
         -6    2    1    2    0  502 -0.40647941074E+02  0.73610441923E+02 -0.57485210403E+03  0.60570264741E+03  0.17131842663E+03 0.  0.
        -24    2    5    5    0    0 -0.45315684833E+02 -0.20527835787E+02 -0.23404644293E+03  0.25207234356E+03  0.79295810786E+02 0.  0.
          5    1    3    3  501    0  0.55283901999E-01 -0.98980022834E+01  0.72249848847E+01  0.13124934746E+02  0.47000000000E+01 0. -1.
        -13    1    4    4    0    0  0.21596818996E+02 -0.31165706779E+02 -0.52379612254E+03  0.52516673720E+03  0.00000000000E+00 0.  1.
         14    1    4    4    0    0  0.18995838176E+02 -0.32546732861E+02 -0.80273678362E+02  0.88679169627E+02  0.00000000000E+00 0. -1.
         -5    1    5    5    0  502  0.46677437587E+01  0.94138277711E+02 -0.34080566110E+03  0.35363030385E+03  0.47000000000E+01 0.  1.
         13    1    6    6    0    0 -0.27045810514E+02  0.56029393807E+01 -0.21082907684E+03  0.21263059149E+03  0.00000000000E+00 0. -1.
        -14    1    6    6    0    0 -0.18269874319E+02 -0.26130775168E+02 -0.23217366086E+02  0.39441752072E+02  0.00000000000E+00 0.  1.
</event>
<event>
12    1  0.8417180E-002  0.2346626E+03  0.7818608E-02  0.1124573E+00
         21   -1    0    0  501  502  0.00000000000E+00  0.00000000000E+00  0.13352588399E+03  0.13352588399E+03  0.00000000000E+00 0.  1.
         21   -1    0    0  502  503 -0.00000000000E+00 -0.00000000000E+00 -0.42362926351E+03  0.42362926351E+03  0.00000000000E+00 0.  1.
         -6    2    1    2    0  503 -0.91142410749E+02  0.13038814282E+03 -0.21192363502E+03  0.31619324505E+03  0.17250662107E+03 0.  0.
        -24    2    3    3    0    0 -0.13079630226E+03  0.96871352565E+02 -0.15964012366E+03  0.24235922917E+03  0.82227095608E+02 0.  0.
          6    2    1    2  501    0  0.91142410749E+02 -0.13038814282E+03 -0.78179744495E+02  0.24096190245E+03  0.16322548563E+03 0.  0.
         24    2    5    5    0    0  0.67421226705E+02 -0.25758211567E+02 -0.80520867217E+02  0.13354827230E+03  0.78373616123E+02 0.  0.
          5    1    5    5  501    0  0.23721184044E+02 -0.10462993125E+03  0.23411227216E+01  0.10741363015E+03  0.47000000000E+01 0. -1.
        -13    1    6    6    0    0  0.64936995183E+02 -0.50033519525E+02 -0.58858608484E+02  0.10091829473E+03  0.00000000000E+00 0.  1.
         14    1    6    6    0    0  0.24842315223E+01  0.24275307958E+02 -0.21662258733E+02  0.32629977569E+02  0.00000000000E+00 0. -1.
         -5    1    3    3    0  503  0.39653891506E+02  0.33516790255E+02 -0.52283511364E+02  0.73834015881E+02  0.47000000000E+01 0.  1.
         13    1    4    4    0    0 -0.61793790184E+02  0.42805302741E+02 -0.12936042584E+03  0.14961579536E+03  0.00000000000E+00 0. -1.
        -14    1    4    4    0    0 -0.69002512071E+02  0.54066049824E+02 -0.30279697824E+02  0.92743433816E+02  0.00000000000E+00 0.  1.
</event>
<event>
12    1  0.8417180E-002  0.1992276E+03  0.7818608E-02  0.1153509E+00
         21   -1    0    0  501  502  0.00000000000E+00  0.00000000000E+00  0.71045513659E+02  0.71045513659E+02  0.00000000000E+00 0.  1.
         21   -1    0    0  502  503 -0.00000000000E+00 -0.00000000000E+00 -0.51975745533E+03  0.51975745533E+03  0.00000000000E+00 0.  1.
         -6    2    1    2    0  503 -0.16028420110E+02  0.66593392727E+02 -0.23396069685E+03  0.30729340622E+03  0.18708297526E+03 0.  0.
        -24    2    3    3    0    0  0.23929320750E+02  0.11126449221E+03 -0.15532273127E+03  0.20830781225E+03  0.79464420815E+02 0.  0.
          6    2    1    2  501    0  0.16028420110E+02 -0.66593392727E+02 -0.21475124482E+03  0.28350956276E+03  0.17195343795E+03 0.  0.
         24    2    5    5    0    0 -0.45459391043E+02 -0.80646161669E+02 -0.12400241885E+03  0.17289459701E+03  0.77107601227E+02 0.  0.
          5    1    5    5  501    0  0.61487811153E+02  0.14052768942E+02 -0.90748825966E+02  0.11061496576E+03  0.47000000000E+01 0. -1.
        -11    1    6    6    0    0 -0.20716326262E+02 -0.76137981264E+02 -0.12489018903E+03  0.14772852697E+03  0.00000000000E+00 0.  1.
         12    1    6    6    0    0 -0.24743064782E+02 -0.45081804049E+01  0.88777017442E+00  0.25166070040E+02  0.00000000000E+00 0. -1.
         -5    1    3    3    0  503 -0.39957740859E+02 -0.44671099485E+02 -0.78637965575E+02  0.98985593970E+02  0.47000000000E+01 0.  1.
         11    1    4    4    0    0 -0.23994777802E+01  0.26246545799E+02 -0.10022402449E+03  0.10363152872E+03  0.00000000000E+00 0. -1.
        -12    1    4    4    0    0  0.26328798530E+02  0.85017946413E+02 -0.55098706783E+02  0.10467628353E+03  0.00000000000E+00 0.  1.
</event>
<event>
12    1  0.8417180E-002  0.1914001E+03  0.7818608E-02  0.1157410E+00
         21   -1    0    0  503  502  0.00000000000E+00  0.00000000000E+00  0.38286366291E+03  0.38286366291E+03  0.00000000000E+00 0.  1.
         21   -1    0    0  501  503 -0.00000000000E+00 -0.00000000000E+00 -0.31760749062E+03  0.31760749062E+03  0.00000000000E+00 0.  1.
          6    2    1    2  501    0 -0.76115832597E+02 -0.31553007648E+02 -0.26041363651E+03  0.32318610814E+03  0.17275643591E+03 0.  0.
         24    2    3    3    0    0 -0.20120772394E+02  0.17801851642E+02 -0.22541610971E+03  0.24061331731E+03  0.79753335658E+02 0.  0.
         -6    2    1    2    0  502  0.76115832597E+02  0.31553007648E+02  0.32566980881E+03  0.37728504539E+03  0.17173808211E+03 0.  0.
        -24    2    5    5    0    0  0.25134729609E+02 -0.20289309876E+02  0.27312792103E+03  0.28745499074E+03  0.83594854666E+02 0.  0.
          5    1    3    3  501    0 -0.55995060202E+02 -0.49354859290E+02 -0.34997526807E+02  0.82572790829E+02  0.47000000000E+01 0. -1.
        -13    1    4    4    0    0 -0.32319256445E+02 -0.99991458468E+01 -0.38518153251E+02  0.51265635515E+02  0.00000000000E+00 0.  1.
         14    1    4    4    0    0  0.12198484051E+02  0.27800997489E+02 -0.18689795646E+03  0.18934768180E+03  0.00000000000E+00 0. -1.
         -5    1    5    5    0  502  0.50981102988E+02  0.51842317524E+02  0.52541887777E+02  0.89830054654E+02  0.47000000000E+01 0.  1.
         13    1    6    6    0    0 -0.11326209204E+02 -0.12001531782E+02  0.57498526883E+01  0.17475141944E+02  0.00000000000E+00 0. -1.
        -14    1    6    6    0    0  0.36460938813E+02 -0.82877780941E+01  0.26737806834E+03  0.26997984880E+03  0.00000000000E+00 0.  1.
</event>
<event>
12    1  0.8417180E-002  0.2070274E+03  0.7818608E-02  0.1144539E+00
         21   -1    0    0  503  502  0.00000000000E+00  0.00000000000E+00  0.14155902773E+04  0.14155902773E+04  0.00000000000E+00 0.  1.
         21   -1    0    0  501  503 -0.00000000000E+00 -0.00000000000E+00 -0.50839732384E+02  0.50839732384E+02  0.00000000000E+00 0. -1.
          6    2    1    2  501    0 -0.31306963987E+00 -0.11070546843E+03  0.21411538015E+03  0.29783512031E+03  0.17494160202E+03 0.  0.
         24    2    3    3    0    0 -0.42289699719E+02 -0.92994046866E+01  0.13306641582E+03  0.16132046228E+03  0.80266573995E+02 0.  0.
         -6    2    1    2    0  502  0.31306963987E+00  0.11070546843E+03  0.11506351648E+04  0.11685948894E+04  0.17145534208E+03 0.  0.
        -24    2    5    5    0    0  0.62824279288E+02  0.79692759498E+02  0.83151564842E+03  0.84190115641E+03  0.84151396974E+02 0.  0.
          5    1    3    3  501    0  0.41976630080E+02 -0.10140606375E+03  0.81048964327E+02  0.13651465803E+03  0.47000000000E+01 0. -1.
        -11    1    4    4    0    0  0.17706407862E+02  0.31219255727E+01  0.39550153865E+01  0.18409384709E+02  0.00000000000E+00 0.  1.
         12    1    4    4    0    0 -0.59996107582E+02 -0.12421330259E+02  0.12911140043E+03  0.14291107757E+03  0.00000000000E+00 0. -1.
         -5    1    5    5    0  502 -0.62511209648E+02  0.31012708936E+02  0.31911951636E+03  0.32669373298E+03  0.47000000000E+01 0.  1.
         13    1    6    6    0    0  0.52832357040E+02  0.13401111331E+02  0.21704697454E+03  0.22378614098E+03  0.00000000000E+00 0. -1.
        -14    1    6    6    0    0  0.99919222478E+01  0.66291648166E+02  0.61446867388E+03  0.61811501544E+03  0.00000000000E+00 0.  1.
</event>
<event>
12    1  0.8417180E-002  0.1772883E+03  0.7818608E-02  0.1170706E+00
         21   -1    0    0  503  502  0.00000000000E+00  0.00000000000E+00  0.37281433379E+02  0.37281433379E+02  0.00000000000E+00 0.  1.
         21   -1    0    0  501  503 -0.00000000000E+00 -0.00000000000E+00 -0.84361776347E+03  0.84361776347E+03  0.00000000000E+00 0.  1.
          6    2    1    2  501    0 -0.36066996290E+02  0.15257147005E+02 -0.43720319692E+03  0.47139899375E+03  0.17186264038E+03 0.  0.
         24    2    3    3    0    0 -0.55693259948E+02  0.67548817588E+02 -0.26420596861E+03  0.28954812067E+03  0.79804375660E+02 0.  0.
         -6    2    1    2    0  502  0.36066996290E+02 -0.15257147005E+02 -0.36913313317E+03  0.40950020310E+03  0.17290904422E+03 0.  0.
        -24    2    5    5    0    0 -0.10133427400E+02 -0.64065714656E+02 -0.28167801951E+03  0.29910435929E+03  0.76901293372E+02 0.  0.
          5    1    3    3  501    0  0.19626263657E+02 -0.52291670583E+02 -0.17299722831E+03  0.18185087309E+03  0.47000000000E+01 0. -1.
        -11    1    4    4    0    0 -0.71528324956E+02  0.29733474190E+02 -0.17378573198E+03  0.19026786749E+03  0.00000000000E+00 0.  1.
         12    1    4    4    0    0  0.15835065009E+02  0.37815343398E+02 -0.90420236627E+02  0.99280253182E+02  0.00000000000E+00 0. -1.
         -5    1    5    5    0  502  0.46200423690E+02  0.48808567651E+02 -0.87455113663E+02  0.11039584381E+03  0.47000000000E+01 0.  1.
         11    1    6    6    0    0  0.23617401853E+01 -0.64122634156E+02 -0.11286775523E+03  0.12983227719E+03  0.00000000000E+00 0. -1.
        -12    1    6    6    0    0 -0.12495167585E+02  0.56919499489E-01 -0.16881026428E+03  0.16927208210E+03  0.00000000000E+00 0.  1.
</event>
<event>
12    1  0.8417180E-002  0.2296659E+03  0.7818608E-02  0.1127179E+00
         21   -1    0    0  501  502  0.00000000000E+00  0.00000000000E+00  0.72146413285E+03  0.72146413285E+03  0.00000000000E+00 0. -1.
         21   -1    0    0  502  503 -0.00000000000E+00 -0.00000000000E+00 -0.73995380851E+02  0.73995380851E+02  0.00000000000E+00 0. -1.
         -6    2    1    2    0  503  0.11262727570E+03 -0.10085116006E+03  0.38023916299E+03  0.44421643407E+03  0.17288886462E+03 0.  0.
        -24    2    3    3    0    0  0.12595942990E+03 -0.52276283086E+02  0.35319739886E+03  0.38685257772E+03  0.79422456319E+02 0.  0.
          6    2    1    2  501    0 -0.11262727570E+03  0.10085116006E+03  0.26722958901E+03  0.35124307963E+03  0.17059949597E+03 0.  0.
         24    2    5    5    0    0  0.41101817675E+01  0.11036328357E+02  0.80270886658E+02  0.11318849690E+03  0.78927349181E+02 0.  0.
          5    1    5    5  501    0 -0.11673745747E+03  0.89814831707E+02  0.18695870235E+03  0.23805458273E+03  0.47000000000E+01 0. -1.
        -11    1    6    6    0    0  0.32126578131E+02  0.29896182618E+02  0.32161936011E+02  0.54408536880E+02  0.00000000000E+00 0.  1.
         12    1    6    6    0    0 -0.28016396363E+02 -0.18859854261E+02  0.48108950647E+02  0.58779960023E+02  0.00000000000E+00 0. -1.
         -5    1    3    3    0  503 -0.13332154195E+02 -0.48574876978E+02  0.27041764127E+02  0.57363856356E+02  0.47000000000E+01 0.  1.
         11    1    4    4    0    0  0.10911206595E+03 -0.41455121727E+02  0.19404253203E+03  0.22644309282E+03  0.00000000000E+00 0. -1.
        -12    1    4    4    0    0  0.16847363953E+02 -0.10821161359E+02  0.15915486684E+03  0.16040948489E+03  0.00000000000E+00 0.  1.
</event>
<event>
12    1  0.8417180E-002  0.2101876E+03  0.7818608E-02  0.1141419E+00
         21   -1    0    0  503  502  0.00000000000E+00  0.00000000000E+00  0.19328024056E+03  0.19328024056E+03  0.00000000000E+00 0. -1.
         21   -1    0    0  501  503 -0.00000000000E+00 -0.00000000000E+00 -0.31376804905E+03  0.31376804905E+03  0.00000000000E+00 0. -1.
          6    2    1    2  501    0 -0.11251643284E+03  0.46444445616E+02 -0.19235474519E+03  0.28491390869E+03  0.17134337799E+03 0.  0.
         24    2    3    3    0    0 -0.98453267298E+02 -0.57114961701E+01 -0.55056669893E+02  0.13729661171E+03  0.78060589648E+02 0.  0.
         -6    2    1    2    0  502  0.11251643284E+03 -0.46444445616E+02  0.71866936698E+02  0.22213438091E+03  0.17135283016E+03 0.  0.
        -24    2    5    5    0    0  0.25877506600E+01 -0.49907103643E+02  0.89823687730E+01  0.95355581225E+02  0.80713000654E+02 0.  0.
          5    1    3    3  501    0 -0.14063165547E+02  0.52155941786E+02 -0.13729807529E+03  0.14761729698E+03  0.47000000000E+01 0. -1.
        -11    1    4    4    0    0 -0.86755442402E+02 -0.26057980388E+02 -0.65322000646E+02  0.11168029771E+03  0.00000000000E+00 0.  1.
         12    1    4    4    0    0 -0.11697824895E+02  0.20346484218E+02  0.10265330752E+02  0.25616313996E+02  0.00000000000E+00 0. -1.
         -5    1    5    5    0  502  0.10992868218E+03  0.34626580274E+01  0.62884567925E+02  0.12677879969E+03  0.47000000000E+01 0.  1.
         11    1    6    6    0    0  0.27409831917E+01 -0.56539546688E+02  0.36299118627E+02  0.67244771853E+02  0.00000000000E+00 0. -1.
        -12    1    6    6    0    0 -0.15323253174E+00  0.66324430444E+01 -0.27316749854E+02  0.28110809372E+02  0.00000000000E+00 0.  1.
</event>
<event>
12    1  0.8417180E-002  0.2060447E+03  0.7818608E-02  0.1144745E+00
         21   -1    0    0  501  502  0.00000000000E+00  0.00000000000E+00  0.29375958898E+03  0.29375958898E+03  0.00000000000E+00 0.  1.
         21   -1    0    0  502  503 -0.00000000000E+00 -0.00000000000E+00 -0.18880096972E+03  0.18880096972E+03  0.00000000000E+00 0.  1.
         -6    2    1    2    0  503  0.10162296863E+03  0.45973493552E+02 -0.64400092071E+02  0.21587445989E+03  0.17324439591E+03 0.  0.
        -24    2    3    3    0    0  0.86271149395E+02  0.81214820254E+01 -0.10552571635E+03  0.15772069731E+03  0.78939672295E+02 0.  0.
          6    2    1    2  501    0 -0.10162296863E+03 -0.45973493552E+02  0.16935871133E+03  0.26668609880E+03  0.17320020879E+03 0.  0.
         24    2    5    5    0    0 -0.23384448457E+02 -0.81377551734E+01  0.15829297985E+03  0.17895155856E+03  0.79711588579E+02 0.  0.
          5    1    5    5  501    0 -0.78238520168E+02 -0.37835738379E+02  0.11065731483E+02  0.87734540234E+02  0.47000000000E+01 0. -1.
        -11    1    6    6    0    0 -0.18965020339E+01 -0.42634472028E+02  0.75710707827E+02  0.86910334280E+02  0.00000000000E+00 0.  1.
         12    1    6    6    0    0 -0.21487946423E+02  0.34496716854E+02  0.82582272023E+02  0.92041224284E+02  0.00000000000E+00 0. -1.
         -5    1    3    3    0  503  0.15351819230E+02  0.37852011527E+02  0.41125624276E+02  0.58153762582E+02  0.47000000000E+01 0.  1.
         13    1    4    4    0    0  0.34078910650E+02 -0.32507443196E+02 -0.64585038165E+02  0.79933304505E+02  0.00000000000E+00 0. -1.
        -14    1    4    4    0    0  0.52192238745E+02  0.40628925222E+02 -0.40940678182E+02  0.77787392808E+02  0.00000000000E+00 0.  1.
</event>
<event>
12    1  0.8417180E-002  0.2396219E+03  0.7818608E-02  0.1120259E+00
         21   -1    0    0  503  502  0.00000000000E+00  0.00000000000E+00  0.18602788717E+03  0.18602788717E+03  0.00000000000E+00 0. -1.
         21   -1    0    0  501  503 -0.00000000000E+00 -0.00000000000E+00 -0.34212059948E+03  0.34212059948E+03  0.00000000000E+00 0.  1.
          6    2    1    2  501    0  0.11184925334E+03 -0.11948210463E+03 -0.16245424648E+03  0.28844220021E+03  0.17326653417E+03 0.  0.
         24    2    3    3    0    0  0.88132489953E+02 -0.11347401345E+03 -0.47307088250E+02  0.17063074035E+03  0.78950626598E+02 0.  0.
         -6    2    1    2    0  502 -0.11184925334E+03  0.11948210463E+03  0.63615341704E+01  0.23970628645E+03  0.17502115828E+03 0.  0.
        -24    2    5    5    0    0 -0.10180739029E+03  0.95750903342E+02  0.65012207857E+02  0.17547233552E+03  0.83850898348E+02 0.  0.
          5    1    3    3  501    0  0.23716763384E+02 -0.60080911764E+01 -0.11514715823E+03  0.11781145986E+03  0.47000000000E+01 0. -1.
        -11    1    4    4    0    0 -0.74738393770E+01 -0.30724457578E+02  0.80052482501E+01  0.32618009873E+02  0.00000000000E+00 0.  1.
         12    1    4    4    0    0  0.95606329330E+02 -0.82749555871E+02 -0.55312336500E+02  0.13801273048E+03  0.00000000000E+00 0. -1.
         -5    1    5    5    0  502 -0.10041863048E+02  0.23731201283E+02 -0.58650673686E+02  0.64233950927E+02  0.47000000000E+01 0.  1.
         13    1    6    6    0    0 -0.53985329798E+02  0.28745878937E+02  0.70055940256E+02  0.92997721233E+02  0.00000000000E+00 0. -1.
        -14    1    6    6    0    0 -0.47822060490E+02  0.67005024405E+02 -0.50437323999E+01  0.82474614286E+02  0.00000000000E+00 0.  1.
</event>
<event>
12    1  0.8417180E-002  0.1841066E+03  0.7818608E-02  0.1163896E+00
         21   -1    0    0  503  502  0.00000000000E+00  0.00000000000E+00  0.25377992802E+03  0.25377992802E+03  0.00000000000E+00 0.  1.
         21   -1    0    0  501  503 -0.00000000000E+00 -0.00000000000E+00 -0.32750249198E+03  0.32750249198E+03  0.00000000000E+00 0. -1.
          6    2    1    2  501    0  0.37289856361E+02  0.52313515962E+02 -0.26053805440E+03  0.31902241423E+03  0.17253401302E+03 0.  0.
         24    2    3    3    0    0  0.42037433827E+02 -0.25519702705E+02 -0.64435634531E+02  0.10793286333E+03  0.71268162039E+02 0.  0.
         -6    2    1    2    0  502 -0.37289856361E+02 -0.52313515962E+02  0.18681549044E+03  0.26226000578E+03  0.17249071227E+03 0.  0.
        -24    2    5    5    0    0 -0.13941876527E+01 -0.38030940481E+02  0.19879370038E+03  0.22154074120E+03  0.90072573545E+02 0.  0.
          5    1    3    3  501    0 -0.47475774664E+01  0.77833218667E+02 -0.19610241987E+03  0.21108955090E+03  0.47000000000E+01 0. -1.
        -13    1    4    4    0    0  0.15069482973E+02  0.14536309493E+02  0.66754489693E+01  0.21976242392E+02  0.00000000000E+00 0.  1.
         14    1    4    4    0    0  0.26967950855E+02 -0.40056012198E+02 -0.71111083500E+02  0.85956620938E+02  0.00000000000E+00 0. -1.
         -5    1    5    5    0  502 -0.35895668708E+02 -0.14282575481E+02 -0.11978209940E+02  0.40719264578E+02  0.47000000000E+01 0.  1.
         11    1    6    6    0    0  0.72948593402E+01 -0.14697284630E+02 -0.42713132652E+01  0.16954918616E+02  0.00000000000E+00 0. -1.
        -12    1    6    6    0    0 -0.86890469929E+01 -0.23333655851E+02  0.20306501365E+03  0.20458582258E+03  0.00000000000E+00 0.  1.
</event>
<event>
12    1  0.8417180E-002  0.1901858E+03  0.7818608E-02  0.1158565E+00
         21   -1    0    0  503  502  0.00000000000E+00  0.00000000000E+00  0.17852620174E+03  0.17852620174E+03  0.00000000000E+00 0.  1.
         21   -1    0    0  501  503 -0.00000000000E+00 -0.00000000000E+00 -0.23975709506E+03  0.23975709506E+03  0.00000000000E+00 0. -1.
          6    2    1    2  501    0 -0.74636860693E+02 -0.30364337601E+02 -0.11442529370E+03  0.22195444879E+03  0.17227296807E+03 0.  0.
         24    2    3    3    0    0 -0.56541897287E+02 -0.66885105910E+02 -0.13226043428E+03  0.17721770262E+03  0.79010683495E+02 0.  0.
         -6    2    1    2    0  502  0.74636860693E+02  0.30364337601E+02  0.53194400386E+02  0.19632884801E+03  0.17094653654E+03 0.  0.
        -24    2    5    5    0    0 -0.15608473017E+02  0.42665793034E+02  0.52521341973E+02  0.10512528958E+03  0.78923005653E+02 0.  0.
          5    1    3    3  501    0 -0.18094963407E+02  0.36520768309E+02  0.17835140577E+02  0.44736746171E+02  0.47000000000E+01 0. -1.
        -13    1    4    4    0    0 -0.26146516271E+02  0.82671232215E+01 -0.74939732002E+01  0.28427896049E+02  0.00000000000E+00 0.  1.
         14    1    4    4    0    0 -0.30395381016E+02 -0.75152229132E+02 -0.12476646108E+03  0.14878980657E+03  0.00000000000E+00 0. -1.
         -5    1    5    5    0  502  0.90245333711E+02 -0.12301455433E+02  0.67305841317E+00  0.91203558428E+02  0.47000000000E+01 0.  1.
         11    1    6    6    0    0 -0.32445125571E+02 -0.96147868141E+01  0.31754751509E+02  0.46405759796E+02  0.00000000000E+00 0. -1.
        -12    1    6    6    0    0  0.16836652554E+02  0.52280579848E+02  0.20766590464E+02  0.58719529784E+02  0.00000000000E+00 0.  1.
</event>
<event>
12    1  0.8417180E-002  0.2390771E+03  0.7818608E-02  0.1120607E+00
         21   -1    0    0  503  502  0.00000000000E+00  0.00000000000E+00  0.37001621915E+02  0.37001621915E+02  0.00000000000E+00 0.  1.
         21   -1    0    0  501  503 -0.00000000000E+00 -0.00000000000E+00 -0.16158705725E+04  0.16158705725E+04  0.00000000000E+00 0.  1.
          6    2    1    2  501    0 -0.14120514920E+03  0.85360173195E+02 -0.97372434234E+03  0.10026449685E+04  0.17301035987E+03 0.  0.
         24    2    3    3    0    0 -0.60460461369E+02  0.98165759915E+02 -0.77529259796E+03  0.78798026518E+03  0.80884498226E+02 0.  0.
         -6    2    1    2    0  502  0.14120514920E+03 -0.85360173195E+02 -0.60514460825E+03  0.65022722594E+03  0.17137734720E+03 0.  0.
        -24    2    5    5    0    0  0.88986030725E+02 -0.11050813197E+03 -0.53406601975E+03  0.55839307157E+03  0.80285416095E+02 0.  0.
          5    1    3    3  501    0 -0.80744687833E+02 -0.12805586720E+02 -0.19843174438E+03  0.21466470330E+03  0.47000000000E+01 0. -1.
        -11    1    4    4    0    0 -0.78250662490E+02  0.59644085339E+02 -0.54658005168E+03  0.55536504750E+03  0.00000000000E+00 0.  1.
         12    1    4    4    0    0  0.17790201121E+02  0.38521674576E+02 -0.22871254629E+03  0.23261521768E+03  0.00000000000E+00 0. -1.
         -5    1    5    5    0  502  0.52219118477E+02  0.25147958773E+02 -0.71078588503E+02  0.91834154368E+02  0.47000000000E+01 0.  1.
         13    1    6    6    0    0 -0.13363988519E+02 -0.28184566863E+02 -0.86556854057E+02  0.92005733423E+02  0.00000000000E+00 0. -1.
        -14    1    6    6    0    0  0.10235001924E+03 -0.82323565105E+02 -0.44750916569E+03  0.46638733815E+03  0.00000000000E+00 0.  1.
</event>
<event>
12    1  0.8417180E-002  0.2060760E+03  0.7818608E-02  0.1144923E+00
         21   -1    0    0  503  502  0.00000000000E+00  0.00000000000E+00  0.41391409845E+03  0.41391409845E+03  0.00000000000E+00 0.  1.
         21   -1    0    0  501  503 -0.00000000000E+00 -0.00000000000E+00 -0.18866915326E+03  0.18866915326E+03  0.00000000000E+00 0.  1.
          6    2    1    2  501    0  0.51889165051E+02  0.10384262068E+03 -0.91641474188E+02  0.22458285277E+03  0.16900746328E+03 0.  0.
         24    2    3    3    0    0 -0.31030450053E+02  0.24739477113E+02 -0.52033443668E+02  0.10324095574E+03  0.79851644469E+02 0.  0.
         -6    2    1    2    0  502 -0.51889165051E+02 -0.10384262068E+03  0.31688641938E+03  0.37800039894E+03  0.17026897396E+03 0.  0.
        -24    2    5    5    0    0 -0.39773217129E+02 -0.87659258806E+02  0.33050329319E+03  0.35317688895E+03  0.78964761897E+02 0.  0.
          5    1    3    3  501    0  0.82919615105E+02  0.79103143569E+02 -0.39608030520E+02  0.12134189702E+03  0.47000000000E+01 0. -1.
        -13    1    4    4    0    0 -0.55815353883E+00  0.41163941331E+02 -0.54769396279E+02  0.68516190569E+02  0.00000000000E+00 0.  1.
         14    1    4    4    0    0 -0.30472296514E+02 -0.16424464218E+02  0.27359526113E+01  0.34724765174E+02  0.00000000000E+00 0. -1.
         -5    1    5    5    0  502 -0.12115947923E+02 -0.16183361877E+02 -0.13616873815E+02  0.24823509990E+02  0.47000000000E+01 0.  1.
         11    1    6    6    0    0  0.18141991658E+02 -0.42851671244E+00  0.72495814418E+02  0.74732580552E+02  0.00000000000E+00 0. -1.
        -12    1    6    6    0    0 -0.57915208786E+02 -0.87230742093E+02  0.25800747878E+03  0.27844430840E+03  0.00000000000E+00 0.  1.
</event>
<event>
12    1  0.8417180E-002  0.2326473E+03  0.7818608E-02  0.1125004E+00
         21   -1    0    0  501  502  0.00000000000E+00  0.00000000000E+00  0.12891866697E+03  0.12891866697E+03  0.00000000000E+00 0. -1.
         21   -1    0    0  502  503 -0.00000000000E+00 -0.00000000000E+00 -0.42205506750E+03  0.42205506750E+03  0.00000000000E+00 0.  1.
         -6    2    1    2    0  503  0.15548885070E+03 -0.13757859288E+02 -0.11872707114E+03  0.26119123433E+03  0.17250704938E+03 0.  0.
        -24    2    3    3    0    0  0.58062564650E+02  0.54654305034E+02 -0.74777773562E+02  0.13420408459E+03  0.77850282145E+02 0.  0.
          6    2    1    2  501    0 -0.15548885070E+03  0.13757859288E+02 -0.17440932939E+03  0.28978250014E+03  0.17084853475E+03 0.  0.
         24    2    5    5    0    0 -0.17092801542E+03 -0.23770912598E+02 -0.13679663384E+03  0.23425249570E+03  0.79871584262E+02 0.  0.
          5    1    5    5  501    0  0.15439164718E+02  0.37528771885E+02 -0.37612695550E+02  0.55530004439E+02  0.47000000000E+01 0. -1.
        -11    1    6    6    0    0 -0.12605272315E+03  0.19755120982E+02 -0.89214656291E+02  0.15568817783E+03  0.00000000000E+00 0.  1.
         12    1    6    6    0    0 -0.44875292263E+02 -0.43526033580E+02 -0.47581977549E+02  0.78564317870E+02  0.00000000000E+00 0. -1.
         -5    1    3    3    0  503  0.97426286050E+02 -0.68412164322E+02 -0.43949297577E+02  0.12698714974E+03  0.47000000000E+01 0.  1.
         11    1    4    4    0    0  0.29715534352E+02  0.13630965904E+02  0.11413639922E+02  0.34627841249E+02  0.00000000000E+00 0. -1.
        -12    1    4    4    0    0  0.28347030298E+02  0.41023339130E+02 -0.86191413484E+02  0.99576243344E+02  0.00000000000E+00 0.  1.
</event>
<event>
12    1  0.8417180E-002  0.2145080E+03  0.7818608E-02  0.1138169E+00
         21   -1    0    0  503  502  0.00000000000E+00  0.00000000000E+00  0.28240945617E+03  0.28240945617E+03  0.00000000000E+00 0.  1.
         21   -1    0    0  501  503 -0.00000000000E+00 -0.00000000000E+00 -0.44786494141E+03  0.44786494141E+03  0.00000000000E+00 0.  1.
          6    2    1    2  501    0 -0.11160784798E+03  0.62107616343E+02 -0.37417321147E+03  0.43098060931E+03  0.17153724282E+03 0.  0.
         24    2    3    3    0    0 -0.80426654430E+02  0.10325992568E+03 -0.32304452302E+03  0.35816569203E+03  0.82424754154E+02 0.  0.
         -6    2    1    2    0  502  0.11160784798E+03 -0.62107616343E+02  0.20871772623E+03  0.29929378828E+03  0.17233692211E+03 0.  0.
        -24    2    5    5    0    0  0.32604160138E+02 -0.95244551623E+02  0.13309882284E+03  0.18492618918E+03  0.79673351463E+02 0.  0.
          5    1    3    3  501    0 -0.31181193554E+02 -0.41152309341E+02 -0.51128688454E+02  0.72814917281E+02  0.47000000000E+01 0. -1.
        -13    1    4    4    0    0 -0.29469602247E+02 -0.79504033543E+01 -0.88857156730E+02  0.93953502714E+02  0.00000000000E+00 0.  1.
         14    1    4    4    0    0 -0.50957052183E+02  0.11121032904E+03 -0.23418736629E+03  0.26421218931E+03  0.00000000000E+00 0. -1.
         -5    1    5    5    0  502  0.79003687846E+02  0.33136935280E+02  0.75618903388E+02  0.11436759909E+03  0.47000000000E+01 0.  1.
         11    1    6    6    0    0  0.19710645645E+02 -0.49026589390E+02  0.12572813778E+03  0.13638064616E+03  0.00000000000E+00 0. -1.
        -12    1    6    6    0    0  0.12893514492E+02 -0.46217962233E+02  0.73706850596E+01  0.48545543020E+02  0.00000000000E+00 0.  1.
</event>
<event>
12    1  0.8417180E-002  0.2119552E+03  0.7818608E-02  0.1140169E+00
         21   -1    0    0  501  502  0.00000000000E+00  0.00000000000E+00  0.17674363465E+03  0.17674363465E+03  0.00000000000E+00 0.  1.
         21   -1    0    0  502  503 -0.00000000000E+00 -0.00000000000E+00 -0.11113140892E+04  0.11113140892E+04  0.00000000000E+00 0.  1.
         -6    2    1    2    0  503  0.43017494882E+02  0.11618389538E+03 -0.10333564811E+04  0.10548699515E+04  0.17197614695E+03 0.  0.
        -24    2    3    3    0    0 -0.22782811276E+02  0.48747573486E+01 -0.41742189131E+03  0.42549175566E+03  0.79116237494E+02 0.  0.
          6    2    1    2  501    0 -0.43017494882E+02 -0.11618389538E+03  0.98786026562E+02  0.23318777235E+03  0.17108084556E+03 0.  0.
         24    2    5    5    0    0 -0.73360854702E+01 -0.31985851665E+02  0.11128056105E+03  0.14077198941E+03  0.79727516452E+02 0.  0.
          5    1    5    5  501    0 -0.35681409412E+02 -0.84198043712E+02 -0.12494534487E+02  0.92415782931E+02  0.47000000000E+01 0. -1.
        -11    1    6    6    0    0 -0.21981145416E+02 -0.52498859880E+02  0.55193182534E+02  0.79281703064E+02  0.00000000000E+00 0.  1.
         12    1    6    6    0    0  0.14645059945E+02  0.20513008215E+02  0.56087378515E+02  0.61490286351E+02  0.00000000000E+00 0. -1.
         -5    1    3    3    0  503  0.65800306158E+02  0.11130913803E+03 -0.61593458976E+03  0.62937819581E+03  0.47000000000E+01 0.  1.
         11    1    4    4    0    0  0.27606475906E+01 -0.15930213104E+02 -0.16088885337E+02  0.22808881955E+02  0.00000000000E+00 0. -1.
        -12    1    4    4    0    0 -0.25543458867E+02  0.20804970452E+02 -0.40133300598E+03  0.40268287370E+03  0.00000000000E+00 0.  1.
</event>
<event>
12    1  0.8417180E-002  0.2043369E+03  0.7818608E-02  0.1146405E+00
         21   -1    0    0  503  502  0.00000000000E+00  0.00000000000E+00  0.98703457592E+02  0.98703457592E+02  0.00000000000E+00 0.  1.
         21   -1    0    0  501  503 -0.00000000000E+00 -0.00000000000E+00 -0.45771480888E+03  0.45771480888E+03  0.00000000000E+00 0.  1.
          6    2    1    2  501    0 -0.10395677946E+03 -0.35957055916E+02 -0.25854643444E+03  0.32871945116E+03  0.17061739931E+03 0.  0.
         24    2    3    3    0    0 -0.12480807928E+03 -0.53827422220E+02 -0.25624812386E+03  0.30076414884E+03  0.79508013506E+02 0.  0.
         -6    2    1    2    0  502  0.10395677946E+03  0.35957055916E+02 -0.10046491686E+03  0.22769881531E+03  0.17220229125E+03 0.  0.
        -24    2    5    5    0    0  0.12568913699E+03 -0.57534781519E+00 -0.39837438317E+02  0.15350519672E+03  0.78604921893E+02 0.  0.
          5    1    3    3  501    0  0.20851299822E+02  0.17870366304E+02 -0.22983105771E+01  0.27955302317E+02  0.47000000000E+01 0. -1.
        -11    1    4    4    0    0 -0.45546516245E+02 -0.32864358400E+02 -0.18087857943E+03  0.18939802451E+03  0.00000000000E+00 0.  1.
         12    1    4    4    0    0 -0.79261563040E+02 -0.20963063820E+02 -0.75369544433E+02  0.11136612433E+03  0.00000000000E+00 0. -1.
         -5    1    5    5    0  502 -0.21732357528E+02  0.36532403731E+02 -0.60627478540E+02  0.74193618595E+02  0.47000000000E+01 0.  1.
         11    1    6    6    0    0  0.80959914959E+02 -0.34391598857E+02 -0.41818881481E+02  0.97396656772E+02  0.00000000000E+00 0. -1.
        -12    1    6    6    0    0  0.44729222032E+02  0.33816251042E+02  0.19814431632E+01  0.56108539948E+02  0.00000000000E+00 0.  1.
</event>
<event>
12    1  0.8417180E-002  0.2599789E+03  0.7818608E-02  0.1107194E+00
         21   -1    0    0  501  502  0.00000000000E+00  0.00000000000E+00  0.14683775112E+04  0.14683775112E+04  0.00000000000E+00 0.  1.
         21   -1    0    0  502  503 -0.00000000000E+00 -0.00000000000E+00 -0.52699486081E+02  0.52699486081E+02  0.00000000000E+00 0.  1.
         -6    2    1    2    0  503  0.13059047935E+03 -0.14552724563E+03  0.43606756550E+03  0.50755557369E+03  0.17095521691E+03 0.  0.
        -24    2    3    3    0    0  0.81013365402E+02 -0.79455637964E+01  0.20940445450E+03  0.23776887037E+03  0.77830025017E+02 0.  0.
          6    2    1    2  501    0 -0.13059047935E+03  0.14552724563E+03  0.97961045959E+03  0.10135214236E+04  0.17133876081E+03 0.  0.
         24    2    5    5    0    0 -0.19339865595E+02  0.10397919175E+03  0.64109754973E+03  0.65475127432E+03  0.80668830633E+02 0.  0.
          5    1    5    5  501    0 -0.11125061376E+03  0.41548053880E+02  0.33851290985E+03  0.35877014923E+03  0.47000000000E+01 0. -1.
        -13    1    6    6    0    0 -0.39857272634E+02  0.10213134060E+03  0.48113162372E+03  0.49346433737E+03  0.00000000000E+00 0.  1.
         14    1    6    6    0    0  0.20517407039E+02  0.18478511433E+01  0.15996592602E+03  0.16128693695E+03  0.00000000000E+00 0. -1.
         -5    1    3    3    0  503  0.49577113952E+02 -0.13758168183E+03  0.22666311100E+03  0.26978670332E+03  0.47000000000E+01 0.  1.
         11    1    4    4    0    0  0.32776061252E+02 -0.24912384599E+02  0.16495835373E+03  0.17001810363E+03  0.00000000000E+00 0. -1.
        -12    1    4    4    0    0  0.48237304150E+02  0.16966820803E+02  0.44446100775E+02  0.67750766741E+02  0.00000000000E+00 0.  1.
</event>
<event>
12    1  0.8417180E-002  0.2201488E+03  0.7818608E-02  0.1133943E+00
         21   -1    0    0  501  502  0.00000000000E+00  0.00000000000E+00  0.39593773766E+03  0.39593773766E+03  0.00000000000E+00 0.  1.
         21   -1    0    0  502  503 -0.00000000000E+00 -0.00000000000E+00 -0.14811177057E+03  0.14811177057E+03  0.00000000000E+00 0. -1.
         -6    2    1    2    0  503 -0.10206729420E+02 -0.13592965274E+03  0.23814002671E+03  0.32368768446E+03  0.17170322340E+03 0.  0.
        -24    2    3    3    0    0 -0.65419014203E+02 -0.71722516063E+02  0.12948137690E+03  0.18584812203E+03  0.91380144277E+02 0.  0.
          6    2    1    2  501    0  0.10206729420E+02  0.13592965274E+03  0.96859403749E+01  0.22036182377E+03  0.17287124722E+03 0.  0.
         24    2    5    5    0    0 -0.30353360224E+02  0.14169169325E+03 -0.25759858460E+02  0.16598520529E+03  0.76744091979E+02 0.  0.
          5    1    5    5  501    0  0.40560089644E+02 -0.57620405107E+01  0.35445798835E+02  0.54376618484E+02  0.47000000000E+01 0. -1.
        -11    1    6    6    0    0 -0.15034911633E+02  0.80611266439E+01 -0.26454038971E+02  0.31477714473E+02  0.00000000000E+00 0.  1.
         12    1    6    6    0    0 -0.15318448591E+02  0.13363056661E+03  0.69418051107E+00  0.13450749082E+03  0.00000000000E+00 0. -1.
         -5    1    3    3    0  503  0.55212284783E+02 -0.64207136677E+02  0.10865864981E+03  0.13783956243E+03  0.47000000000E+01 0.  1.
         11    1    4    4    0    0  0.13839347138E+02  0.49663361613E+01 -0.13137936367E+01  0.14762048564E+02  0.00000000000E+00 0. -1.
        -12    1    4    4    0    0 -0.79258361341E+02 -0.76688852225E+02  0.13079517054E+03  0.17108607347E+03  0.00000000000E+00 0.  1.
</event>
<event>
12    1  0.8417180E-002  0.2646232E+03  0.7818608E-02  0.1104476E+00
         21   -1    0    0  503  502  0.00000000000E+00  0.00000000000E+00  0.38294674900E+03  0.38294674900E+03  0.00000000000E+00 0.  1.
         21   -1    0    0  501  503 -0.00000000000E+00 -0.00000000000E+00 -0.18340734523E+03  0.18340734523E+03  0.00000000000E+00 0.  1.
          6    2    1    2  501    0 -0.19663957181E+03 -0.34372204930E+02  0.11969648479E+03  0.28994796485E+03  0.17289882642E+03 0.  0.
         24    2    3    3    0    0 -0.53420284001E+02 -0.63214161733E+02  0.65562559361E+02  0.13407559797E+03  0.82632074861E+02 0.  0.
         -6    2    1    2    0  502  0.19663957181E+03  0.34372204930E+02  0.79842918980E+02  0.27640612937E+03  0.17371495896E+03 0.  0.
        -24    2    5    5    0    0  0.21956167625E+03  0.31334054393E+02  0.51935316106E+02  0.23986057522E+03  0.75144300137E+02 0.  0.
          5    1    3    3  501    0 -0.14321928781E+03  0.28841956803E+02  0.54133925434E+02  0.15587236688E+03  0.47000000000E+01 0. -1.
        -11    1    4    4    0    0 -0.64721661529E+02 -0.71744681584E+02  0.39442035969E+02  0.10436410785E+03  0.00000000000E+00 0.  1.
         12    1    4    4    0    0  0.11301377528E+02  0.85305198504E+01  0.26120523392E+02  0.29711490121E+02  0.00000000000E+00 0. -1.
         -5    1    5    5    0  502 -0.22922104432E+02  0.30381505368E+01  0.27907602873E+02  0.36545554154E+02  0.47000000000E+01 0.  1.
         11    1    6    6    0    0  0.80433305671E+02 -0.22962140668E+02  0.71968845711E+01  0.83955772361E+02  0.00000000000E+00 0. -1.
        -12    1    6    6    0    0  0.13912837058E+03  0.54296195061E+02  0.44738431535E+02  0.15590480286E+03  0.00000000000E+00 0.  1.
</event>
<event>
12    1  0.8417180E-002  0.1730633E+03  0.7818608E-02  0.1176027E+00
         21   -1    0    0  501  502  0.00000000000E+00  0.00000000000E+00  0.72080359572E+03  0.72080359572E+03  0.00000000000E+00 0. -1.
         21   -1    0    0  502  503 -0.00000000000E+00 -0.00000000000E+00 -0.72925634919E+02  0.72925634919E+02  0.00000000000E+00 0. -1.
         -6    2    1    2    0  503  0.87841544555E+01  0.14225882541E+02  0.55882238757E+02  0.17695548793E+03  0.16706550510E+03 0.  0.
        -24    2    3    3    0    0 -0.56395268424E+02  0.27809036394E+02  0.51210312892E+02  0.11004677305E+03  0.74391043182E+02 0.  0.
          6    2    1    2  501    0 -0.87841544555E+01 -0.14225882541E+02  0.59199572204E+03  0.61677374271E+03  0.17225381760E+03 0.  0.
         24    2    5    5    0    0 -0.55487220866E+02  0.41180021802E+02  0.35075627438E+03  0.36484210167E+03  0.72836592865E+02 0.  0.
          5    1    5    5  501    0  0.46703066411E+02 -0.55405904344E+02  0.24123944766E+03  0.25193164104E+03  0.47000000000E+01 0. -1.
        -13    1    6    6    0    0  0.48541497145E+01 -0.16033940546E+02  0.46426662497E+02  0.49356711899E+02  0.00000000000E+00 0.  1.
         14    1    6    6    0    0 -0.60341370581E+02  0.57213962348E+02  0.30432961189E+03  0.31548538977E+03  0.00000000000E+00 0. -1.
         -5    1    3    3    0  503  0.65179422879E+02 -0.13583153853E+02  0.46719258644E+01  0.66908714879E+02  0.47000000000E+01 0.  1.
         11    1    4    4    0    0 -0.40815435682E+02  0.53411629508E+02  0.38741344691E+02  0.77586040917E+02  0.00000000000E+00 0. -1.
        -12    1    4    4    0    0 -0.15579832741E+02 -0.25602593114E+02  0.12468968201E+02  0.32460732130E+02  0.00000000000E+00 0.  1.
</event>
<event>
12    1  0.8417180E-002  0.2072106E+03  0.7818608E-02  0.1144066E+00
         21   -1    0    0  501  502  0.00000000000E+00  0.00000000000E+00  0.24509943160E+02  0.24509943160E+02  0.00000000000E+00 0.  1.
         21   -1    0    0  502  503 -0.00000000000E+00 -0.00000000000E+00 -0.19743321184E+04  0.19743321184E+04  0.00000000000E+00 0. -1.
         -6    2    1    2    0  503 -0.10965320714E+03  0.24056644219E+02 -0.62813155907E+03  0.66100712660E+03  0.17256482247E+03 0.  0.
        -24    2    3    3    0    0  0.14310460264E+02  0.57403152019E+01 -0.26230115532E+03  0.27428183256E+03  0.78682190478E+02 0.  0.
          6    2    1    2  501    0  0.10965320714E+03 -0.24056644219E+02 -0.13216906162E+04  0.13378349349E+04  0.17416566926E+03 0.  0.
         24    2    5    5    0    0  0.23973015866E+02  0.27694747828E+02 -0.90638670534E+03  0.91061282632E+03  0.79606251603E+02 0.  0.
          5    1    5    5  501    0  0.85680191278E+02 -0.51751392047E+02 -0.41530391082E+03  0.42722210863E+03  0.47000000000E+01 0. -1.
        -13    1    6    6    0    0  0.16328647378E+02 -0.87772521961E+01 -0.48577649821E+02  0.51994739575E+02  0.00000000000E+00 0.  1.
         14    1    6    6    0    0  0.76443684878E+01  0.36472000024E+02 -0.85780905552E+03  0.85861808675E+03  0.00000000000E+00 0. -1.
         -5    1    3    3    0  503 -0.12396366741E+03  0.18316329017E+02 -0.36583040375E+03  0.38672529405E+03  0.47000000000E+01 0.  1.
         11    1    4    4    0    0  0.18141643301E+02 -0.88452753101E+01 -0.25773680751E+03  0.25852585956E+03  0.00000000000E+00 0. -1.
        -12    1    4    4    0    0 -0.38311830367E+01  0.14585590512E+02 -0.45643478047E+01  0.15755972992E+02  0.00000000000E+00 0.  1.
</event>
<event>
12    1  0.8417180E-002  0.2432932E+03  0.7818608E-02  0.1118176E+00
         21   -1    0    0  503  502  0.00000000000E+00  0.00000000000E+00  0.22143424142E+04  0.22143424142E+04  0.00000000000E+00 0. -1.
         21   -1    0    0  501  503 -0.00000000000E+00 -0.00000000000E+00 -0.96796981612E+02  0.96796981612E+02  0.00000000000E+00 0.  1.
          6    2    1    2  501    0 -0.10255403628E+03  0.13188738759E+03  0.75055174484E+02  0.25460729701E+03  0.17686148001E+03 0.  0.
         24    2    3    3    0    0 -0.82689140754E+02  0.34484727121E+02 -0.12616411955E+02  0.12197890861E+03  0.81810695462E+02 0.  0.
         -6    2    1    2    0  502  0.10255403628E+03 -0.13188738759E+03  0.20424902581E+04  0.20565320988E+04  0.17218073528E+03 0.  0.
        -24    2    5    5    0    0  0.85908757284E+02 -0.62162157111E+02  0.17637008581E+04  0.17686357761E+04  0.78659667203E+02 0.  0.
          5    1    3    3  501    0 -0.19864895522E+02  0.97402660465E+02  0.87671586439E+02  0.13262838840E+03  0.47000000000E+01 0. -1.
        -13    1    4    4    0    0 -0.46870847347E+02  0.49263212398E+02 -0.35778552406E+02  0.76836483776E+02  0.00000000000E+00 0.  1.
         14    1    4    4    0    0 -0.35818293407E+02 -0.14778485277E+02  0.23162140451E+02  0.45142424835E+02  0.00000000000E+00 0. -1.
         -5    1    5    5    0  502  0.16645278993E+02 -0.69725230475E+02  0.27878939996E+03  0.28789632267E+03  0.47000000000E+01 0.  1.
         13    1    6    6    0    0  0.38677810602E+02 -0.73853159179E+02  0.11210495111E+04  0.11241451279E+04  0.00000000000E+00 0. -1.
        -14    1    6    6    0    0  0.47230946681E+02  0.11691002068E+02  0.64265134702E+03  0.64449064825E+03  0.00000000000E+00 0.  1.
</event>
<event>
12    1  0.8417180E-002  0.2757278E+03  0.7818608E-02  0.1099464E+00
         21   -1    0    0  501  502  0.00000000000E+00  0.00000000000E+00  0.12289140659E+04  0.12289140659E+04  0.00000000000E+00 0. -1.
         21   -1    0    0  502  503 -0.00000000000E+00 -0.00000000000E+00 -0.23487832700E+03  0.23487832700E+03  0.00000000000E+00 0.  1.
         -6    2    1    2    0  503 -0.18756107937E+03  0.78014476378E+02 -0.13280271008E+03  0.30604308596E+03  0.18644139464E+03 0.  0.
        -24    2    3    3    0    0 -0.19301208111E+03  0.49631907337E+02 -0.52778388514E+02  0.22083002541E+03  0.79141342845E+02 0.  0.
          6    2    1    2  501    0  0.18756107937E+03 -0.78014476378E+02  0.11268384489E+04  0.11577493069E+04  0.17132761186E+03 0.  0.
         24    2    5    5    0    0  0.10408276923E+03 -0.10854398097E+03  0.84926841351E+03  0.86625677957E+03  0.80801926451E+02 0.  0.
          5    1    5    5  501    0  0.83478310144E+02  0.30529504592E+02  0.27757003543E+03  0.29149252732E+03  0.47000000000E+01 0. -1.
        -11    1    6    6    0    0 -0.12106053350E+02 -0.39201052645E+01  0.38446154374E+02  0.40497290516E+02  0.00000000000E+00 0.  1.
         12    1    6    6    0    0  0.11618882258E+03 -0.10462387571E+03  0.81082225913E+03  0.82575948906E+03  0.00000000000E+00 0. -1.
         -5    1    3    3    0  503  0.54510017358E+01  0.28382569040E+02 -0.80024321571E+02  0.85213060549E+02  0.47000000000E+01 0.  1.
         13    1    4    4    0    0 -0.13732780035E+02 -0.16393738401E+02 -0.14889212067E+02  0.26058252862E+02  0.00000000000E+00 0. -1.
        -14    1    4    4    0    0 -0.17927930107E+03  0.66025645738E+02 -0.37889176448E+02  0.19477177254E+03  0.00000000000E+00 0.  1.
</event>
<event>
12    1  0.8417180E-002  0.2008049E+03  0.7818608E-02  0.1149366E+00
         21   -1    0    0  501  502  0.00000000000E+00  0.00000000000E+00  0.10849989715E+03  0.10849989715E+03  0.00000000000E+00 0. -1.
         21   -1    0    0  502  503 -0.00000000000E+00 -0.00000000000E+00 -0.42110158063E+03  0.42110158063E+03  0.00000000000E+00 0.  1.
         -6    2    1    2    0  503 -0.50906588093E+02  0.89672207011E+02 -0.24996685552E+03  0.32063377800E+03  0.17230787943E+03 0.  0.
        -24    2    3    3    0    0 -0.68825364133E+02  0.11961053861E+03 -0.16899109693E+03  0.23233570490E+03  0.79864117316E+02 0.  0.
          6    2    1    2  501    0  0.50906588093E+02 -0.89672207011E+02 -0.62634827959E+02  0.20896769979E+03  0.17062178190E+03 0.  0.
         24    2    5    5    0    0  0.55353660039E+02 -0.51253119840E+02  0.14721891664E+02  0.12235387422E+03  0.95198878512E+02 0.  0.
          5    1    5    5  501    0 -0.44470719469E+01 -0.38419087172E+02 -0.77356719622E+02  0.86613825564E+02  0.47000000000E+01 0. -1.
        -13    1    6    6    0    0  0.37666790666E+01 -0.13767381156E+02 -0.37376559581E+02  0.40009197207E+02  0.00000000000E+00 0.  1.
         14    1    6    6    0    0  0.51586980973E+02 -0.37485738684E+02  0.52098451245E+02  0.82344677015E+02  0.00000000000E+00 0. -1.
         -5    1    3    3    0  503  0.17918776040E+02 -0.29938331600E+02 -0.80975758587E+02  0.88298073096E+02  0.47000000000E+01 0.  1.
         13    1    4    4    0    0 -0.64844304077E+02  0.13080229985E+03 -0.14607272618E+03  0.20652183118E+03  0.00000000000E+00 0. -1.
        -14    1    4    4    0    0 -0.39810600557E+01 -0.11191761241E+02 -0.22918370752E+02  0.25813873727E+02  0.00000000000E+00 0.  1.
</event>
<event>
12    1  0.8417180E-002  0.1777043E+03  0.7818608E-02  0.1170123E+00
         21   -1    0    0  503  502  0.00000000000E+00  0.00000000000E+00  0.22204094802E+02  0.22204094802E+02  0.00000000000E+00 0.  1.
         21   -1    0    0  501  503 -0.00000000000E+00 -0.00000000000E+00 -0.15718541741E+04  0.15718541741E+04  0.00000000000E+00 0.  1.
          6    2    1    2  501    0  0.85675146174E+01 -0.43294684071E+02 -0.10234879146E+04  0.10388004272E+04  0.17213652795E+03 0.  0.
         24    2    3    3    0    0  0.51884753252E+02  0.22351652886E+02 -0.53098513996E+03  0.54003505376E+03  0.80628880844E+02 0.  0.
         -6    2    1    2    0  502 -0.85675146174E+01  0.43294684071E+02 -0.52616216463E+03  0.55525784163E+03  0.17180458442E+03 0.  0.
        -24    2    5    5    0    0 -0.63529623820E+02  0.69648985618E+01 -0.39679857563E+03  0.41000731695E+03  0.81070138821E+02 0.  0.
          5    1    3    3  501    0 -0.43317238635E+02 -0.65646336957E+02 -0.49250277467E+03  0.49876537347E+03  0.47000000000E+01 0. -1.
        -11    1    4    4    0    0  0.68285742282E+02  0.54051078887E+01 -0.46379732027E+03  0.46882844632E+03  0.00000000000E+00 0.  1.
         12    1    4    4    0    0 -0.16400989030E+02  0.16946544998E+02 -0.67187819692E+02  0.71206607442E+02  0.00000000000E+00 0. -1.
         -5    1    5    5    0  502  0.54962109202E+02  0.36329785509E+02 -0.12936358899E+03  0.14525052468E+03  0.47000000000E+01 0.  1.
         11    1    6    6    0    0 -0.46570921964E+02 -0.22997837891E+02 -0.33721721483E+03  0.34119378848E+03  0.00000000000E+00 0. -1.
        -12    1    6    6    0    0 -0.16958701855E+02  0.29962736453E+02 -0.59581360803E+02  0.68813528463E+02  0.00000000000E+00 0.  1.
</event>
<event>
12    1  0.8417180E-002  0.1946374E+03  0.7818608E-02  0.1155906E+00
         21   -1    0    0  501  502  0.00000000000E+00  0.00000000000E+00  0.53400515342E+03  0.53400515342E+03  0.00000000000E+00 0. -1.
         21   -1    0    0  502  503 -0.00000000000E+00 -0.00000000000E+00 -0.73024961167E+02  0.73024961167E+02  0.00000000000E+00 0. -1.
         -6    2    1    2    0  503  0.26466127707E+02  0.71314556214E+02  0.15024207214E+03  0.24036691810E+03  0.17151487758E+03 0.  0.
        -24    2    3    3    0    0  0.60264859970E+02  0.13153674325E+02  0.13838321757E+03  0.17189966376E+03  0.81207801357E+02 0.  0.
          6    2    1    2  501    0 -0.26466127707E+02 -0.71314556214E+02  0.31073812011E+03  0.36666319648E+03  0.17915774760E+03 0.  0.
         24    2    5    5    0    0  0.51368491256E+02 -0.22090822086E+02  0.10053161501E+03  0.13712002256E+03  0.74622842719E+02 0.  0.
          5    1    5    5  501    0 -0.77834618962E+02 -0.49223734127E+02  0.21020650510E+03  0.22954317393E+03  0.47000000000E+01 0. -1.
        -13    1    6    6    0    0  0.55142798749E+02 -0.91032732952E-01  0.10068717814E+03  0.11479827691E+03  0.00000000000E+00 0.  1.
         14    1    6    6    0    0 -0.37743074936E+01 -0.21999789353E+02 -0.15556313110E+00  0.22321745642E+02  0.00000000000E+00 0. -1.
         -5    1    3    3    0  503 -0.33798732263E+02  0.58160881888E+02  0.11858854572E+02  0.68467254336E+02  0.47000000000E+01 0.  1.
         13    1    4    4    0    0  0.39784984125E+02 -0.26047867685E+02  0.10866346786E+03  0.11861317642E+03  0.00000000000E+00 0. -1.
        -14    1    4    4    0    0  0.20479875845E+02  0.39201542010E+02  0.29719749708E+02  0.53286487342E+02  0.00000000000E+00 0.  1.
</event>
<event>
12    1  0.8417180E-002  0.1793413E+03  0.7818608E-02  0.1170009E+00
         21   -1    0    0  503  502  0.00000000000E+00  0.00000000000E+00  0.32417786923E+03  0.32417786923E+03  0.00000000000E+00 0.  1.
         21   -1    0    0  501  503 -0.00000000000E+00 -0.00000000000E+00 -0.96588141384E+02  0.96588141384E+02  0.00000000000E+00 0.  1.
          6    2    1    2  501    0  0.32574541636E+02  0.44723127145E+02  0.13139399943E+03  0.21725453635E+03  0.16393258253E+03 0.  0.
         24    2    3    3    0    0  0.14202524748E+02  0.89870984957E+02  0.76437356274E+02  0.14364623046E+03  0.80703559057E+02 0.  0.
         -6    2    1    2    0  502 -0.32574541636E+02 -0.44723127145E+02  0.96195728411E+02  0.20351147426E+03  0.17059320950E+03 0.  0.
        -24    2    5    5    0    0 -0.22243942643E+02  0.20488192389E+02  0.47065348769E-01  0.86781474346E+02  0.81341644087E+02 0.  0.
          5    1    3    3  501    0  0.18372016888E+02 -0.45147857812E+02  0.54956643157E+02  0.73608305894E+02  0.47000000000E+01 0. -1.
        -11    1    4    4    0    0  0.31192499739E+01  0.40933076035E+01 -0.16147259341E+02  0.16947532910E+02  0.00000000000E+00 0.  1.
         12    1    4    4    0    0  0.11083274774E+02  0.85777677354E+02  0.92584615615E+02  0.12669869755E+03  0.00000000000E+00 0. -1.
         -5    1    5    5    0  502 -0.10330598993E+02 -0.65211319534E+02  0.96148663063E+02  0.11672999991E+03  0.47000000000E+01 0.  1.
         13    1    6    6    0    0  0.19278696042E+02  0.24313315623E+02 -0.23472720592E+02  0.38907249320E+02  0.00000000000E+00 0. -1.
        -14    1    6    6    0    0 -0.41522638685E+02 -0.38251232335E+01  0.23519785941E+02  0.47874225026E+02  0.00000000000E+00 0.  1.
</event>
<event>
12    1  0.8417180E-002  0.1964108E+03  0.7818608E-02  0.1152903E+00
         21   -1    0    0  501  502  0.00000000000E+00  0.00000000000E+00  0.33866168431E+03  0.33866168431E+03  0.00000000000E+00 0. -1.
         21   -1    0    0  502  503 -0.00000000000E+00 -0.00000000000E+00 -0.14203859595E+03  0.14203859595E+03  0.00000000000E+00 0. -1.
         -6    2    1    2    0  503  0.25900065212E+02  0.92630921537E+02 -0.92460909851E+01  0.19616674640E+03  0.17071789944E+03 0.  0.
        -24    2    3    3    0    0  0.79007089104E+02  0.82878550754E+02  0.69738407480E+01  0.13959253930E+03  0.79539099008E+02 0.  0.
          6    2    1    2  501    0 -0.25900065212E+02 -0.92630921537E+02  0.20586917934E+03  0.28453353387E+03  0.17124810040E+03 0.  0.
         24    2    5    5    0    0  0.29261102485E+02 -0.15796740237E+02  0.16076276715E+03  0.17963870912E+03  0.72935926618E+02 0.  0.
          5    1    5    5  501    0 -0.55161167696E+02 -0.76834181301E+02  0.45106412187E+02  0.10489482474E+03  0.47000000000E+01 0. -1.
        -13    1    6    6    0    0  0.13515596755E+02 -0.44861469341E+02  0.10115212257E+03  0.11147634138E+03  0.00000000000E+00 0.  1.
         14    1    6    6    0    0  0.15745505730E+02  0.29064729104E+02  0.59610644583E+02  0.68162367742E+02  0.00000000000E+00 0. -1.
         -5    1    3    3    0  503 -0.53107023892E+02  0.97523707836E+01 -0.16219931733E+02  0.56574207091E+02  0.47000000000E+01 0.  1.
         11    1    4    4    0    0  0.67205059876E+00  0.37295449786E+01  0.26297269948E+02  0.26568921026E+02  0.00000000000E+00 0. -1.
        -12    1    4    4    0    0  0.78335038505E+02  0.79149005775E+02 -0.19323429200E+02  0.11302361828E+03  0.00000000000E+00 0.  1.
</event>
<event>
12    1  0.8417180E-002  0.1804847E+03  0.7818608E-02  0.1168454E+00
         21   -1    0    0  501  502  0.00000000000E+00  0.00000000000E+00  0.34877663551E+03  0.34877663551E+03  0.00000000000E+00 0.  1.
         21   -1    0    0  502  503 -0.00000000000E+00 -0.00000000000E+00 -0.93191922773E+02  0.93191922773E+02  0.00000000000E+00 0.  1.
         -6    2    1    2    0  503  0.75395374762E+01  0.32987481085E+02  0.15974468978E+03  0.23761582446E+03  0.17262066965E+03 0.  0.
        -24    2    3    3    0    0  0.52434062042E+02 -0.20616344370E+02  0.58311383393E+02  0.11432878506E+03  0.80600801136E+02 0.  0.
          6    2    1    2  501    0 -0.75395374762E+01 -0.32987481085E+02  0.95840022959E+02  0.20435273382E+03  0.17728426689E+03 0.  0.
         24    2    5    5    0    0  0.39708262548E+02 -0.63731668109E+02  0.23472254467E+02  0.11250098610E+03  0.80417992448E+02 0.  0.
          5    1    5    5  501    0 -0.47247800024E+02  0.30744187023E+02  0.72367768492E+02  0.91851747721E+02  0.47000000000E+01 0. -1.
        -11    1    6    6    0    0 -0.27816828448E+01 -0.20085346218E+02 -0.26740958394E+02  0.33559465848E+02  0.00000000000E+00 0.  1.
         12    1    6    6    0    0  0.42489945393E+02 -0.43646321890E+02  0.50213212861E+02  0.78941520253E+02  0.00000000000E+00 0. -1.
         -5    1    3    3    0  503 -0.44894524565E+02  0.53603825455E+02  0.10143330639E+03  0.12328703940E+03  0.47000000000E+01 0.  1.
         11    1    4    4    0    0  0.35755972626E+02 -0.29759434634E+02 -0.63287099612E+01  0.46948547346E+02  0.00000000000E+00 0. -1.
        -12    1    4    4    0    0  0.16678089415E+02  0.91430902638E+01  0.64640093354E+02  0.67380237718E+02  0.00000000000E+00 0.  1.
</event>
<event>
12    1  0.8417180E-002  0.3023139E+03  0.7818608E-02  0.1084112E+00
         21   -1    0    0  503  502  0.00000000000E+00  0.00000000000E+00  0.33339175540E+03  0.33339175540E+03  0.00000000000E+00 0. -1.
         21   -1    0    0  501  503 -0.00000000000E+00 -0.00000000000E+00 -0.74497183204E+03  0.74497183204E+03  0.00000000000E+00 0.  1.
          6    2    1    2  501    0 -0.24411053295E+03 -0.43173582089E+02 -0.63449074488E+03  0.70275358086E+03  0.17271415573E+03 0.  0.
         24    2    3    3    0    0 -0.91375777442E+02 -0.79391167875E+02 -0.29260962552E+03  0.32652969960E+03  0.79679116037E+02 0.  0.
         -6    2    1    2    0  502  0.24411053295E+03  0.43173582089E+02  0.22291066824E+03  0.37561000658E+03  0.17303121261E+03 0.  0.
        -24    2    5    5    0    0  0.22307477677E+03  0.85900064258E+02  0.20370367847E+03  0.32404399284E+03  0.79800649148E+02 0.  0.
          5    1    3    3  501    0 -0.15273475551E+03  0.36217585786E+02 -0.34188111935E+03  0.37622388126E+03  0.47000000000E+01 0. -1.
        -13    1    4    4    0    0 -0.10237003255E+03 -0.57680563605E+02 -0.26401095512E+03  0.28897829574E+03  0.00000000000E+00 0.  1.
         14    1    4    4    0    0  0.10994255113E+02 -0.21710604270E+02 -0.28598670398E+02  0.37551403860E+02  0.00000000000E+00 0. -1.
         -5    1    5    5    0  502  0.21035756188E+02 -0.42726482169E+02  0.19206989778E+02  0.51566013742E+02  0.47000000000E+01 0.  1.
         11    1    6    6    0    0  0.18003740623E+03  0.72842387285E+02  0.11798805210E+03  0.22724581727E+03  0.00000000000E+00 0. -1.
        -12    1    6    6    0    0  0.43037370539E+02  0.13057676973E+02  0.85715626363E+02  0.96798175570E+02  0.00000000000E+00 0.  1.
</event>
<event>
12    1  0.8417180E-002  0.2447480E+03  0.7818608E-02  0.1117344E+00
         21   -1    0    0  501  502  0.00000000000E+00  0.00000000000E+00  0.19339783949E+03  0.19339783949E+03  0.00000000000E+00 0. -1.
         21   -1    0    0  502  503 -0.00000000000E+00 -0.00000000000E+00 -0.33967432723E+03  0.33967432723E+03  0.00000000000E+00 0. -1.
         -6    2    1    2    0  503 -0.54775931334E+02 -0.16441012610E+03 -0.15829039777E+03  0.28802948233E+03  0.16695520491E+03 0.  0.
        -24    2    3    3    0    0 -0.51890930440E+01 -0.16746053601E+03 -0.10516709950E+03  0.21514371999E+03  0.84597539132E+02 0.  0.
          6    2    1    2  501    0  0.54775931334E+02  0.16441012610E+03  0.12013910033E+02  0.24504268440E+03  0.17283081590E+03 0.  0.
         24    2    5    5    0    0  0.54597721151E+01  0.71175718800E+02  0.66873030822E+02  0.12606221794E+03  0.79522880248E+02 0.  0.
          5    1    5    5  501    0  0.49316159219E+02  0.93234407298E+02 -0.54859120789E+02  0.11898046646E+03  0.47000000000E+01 0. -1.
        -11    1    6    6    0    0 -0.28867246931E+02  0.66136561244E+02  0.45780821508E+02  0.85459032855E+02  0.00000000000E+00 0.  1.
         12    1    6    6    0    0  0.34327019046E+02  0.50391575555E+01  0.21092209313E+02  0.40603185087E+02  0.00000000000E+00 0. -1.
         -5    1    3    3    0  503 -0.49586838290E+02  0.30504099133E+01 -0.53123298271E+02  0.72885762337E+02  0.47000000000E+01 0.  1.
         11    1    4    4    0    0  0.28160900484E+02 -0.13970500992E+03 -0.92655550779E+02  0.16998699128E+03  0.00000000000E+00 0. -1.
        -12    1    4    4    0    0 -0.33349993528E+02 -0.27755526087E+02 -0.12511548721E+02  0.45156728714E+02  0.00000000000E+00 0.  1.
</event>
<event>
12    1  0.8417180E-002  0.1769423E+03  0.7818608E-02  0.1170914E+00
         21   -1    0    0  501  502  0.00000000000E+00  0.00000000000E+00  0.34080660294E+03  0.34080660294E+03  0.00000000000E+00 0.  1.
         21   -1    0    0  502  503 -0.00000000000E+00 -0.00000000000E+00 -0.97736269911E+02  0.97736269911E+02  0.00000000000E+00 0.  1.
         -6    2    1    2    0  503 -0.26413347910E+02  0.28049709616E+02  0.66827963278E+02  0.18914159094E+03  0.17269659403E+03 0.  0.
        -24    2    3    3    0    0 -0.23447887792E+02  0.55973324031E+02  0.10254906340E+03  0.14346217337E+03  0.79889100249E+02 0.  0.
          6    2    1    2  501    0  0.26413347910E+02 -0.28049709616E+02  0.17624236975E+03  0.24940128192E+03  0.17220678084E+03 0.  0.
         24    2    5    5    0    0  0.25825764748E+02  0.49735738894E+02  0.94854906517E+02  0.13672062508E+03  0.80959633047E+02 0.  0.
          5    1    5    5  501    0  0.58758316164E+00 -0.77785448510E+02  0.81387463238E+02  0.11268065684E+03  0.47000000000E+01 0. -1.
        -13    1    6    6    0    0 -0.20834136527E+02  0.43510981609E+02  0.30824596954E+02  0.57248777653E+02  0.00000000000E+00 0.  1.
         14    1    6    6    0    0  0.46659901275E+02  0.62247572847E+01  0.64030309562E+02  0.79471847424E+02  0.00000000000E+00 0. -1.
         -5    1    3    3    0  503 -0.29654601176E+01 -0.27923614415E+02 -0.35721100119E+02  0.45679417569E+02  0.47000000000E+01 0.  1.
         13    1    4    4    0    0 -0.52799871631E+02  0.36938925094E+02  0.75371978342E+02  0.99162723593E+02  0.00000000000E+00 0. -1.
        -14    1    4    4    0    0  0.29351983839E+02  0.19034398937E+02  0.27177085056E+02  0.44299449774E+02  0.00000000000E+00 0.  1.
</event>
<event>
12    1  0.8417180E-002  0.1980487E+03  0.7818608E-02  0.1151466E+00
         21   -1    0    0  503  502  0.00000000000E+00  0.00000000000E+00  0.12815542086E+03  0.12815542086E+03  0.00000000000E+00 0. -1.
         21   -1    0    0  501  503 -0.00000000000E+00 -0.00000000000E+00 -0.31475013054E+03  0.31475013054E+03  0.00000000000E+00 0. -1.
          6    2    1    2  501    0 -0.69290014600E+02 -0.69576103452E+02 -0.13107409465E+03  0.23722172102E+03  0.17161522760E+03 0.  0.
         24    2    3    3    0    0 -0.75152750965E+02 -0.10340916716E+03 -0.67695584140E+02  0.16498617941E+03  0.79349577528E+02 0.  0.
         -6    2    1    2    0  502  0.69290014600E+02  0.69576103452E+02 -0.55520615034E+02  0.20568383037E+03  0.17199232276E+03 0.  0.
        -24    2    5    5    0    0  0.99859822620E+02  0.10080912150E+02 -0.54466257583E+02  0.13862122813E+03  0.78585384830E+02 0.  0.
          5    1    3    3  501    0  0.58627363648E+01  0.33833063712E+02 -0.63378510508E+02  0.72235541612E+02  0.47000000000E+01 0. -1.
        -11    1    4    4    0    0  0.14923797976E+02 -0.32200841111E+02 -0.12951656959E+02  0.37780409372E+02  0.00000000000E+00 0.  1.
         12    1    4    4    0    0 -0.90076548941E+02 -0.71208326052E+02 -0.54743927180E+02  0.12720577004E+03  0.00000000000E+00 0. -1.
         -5    1    5    5    0  502 -0.30569808020E+02  0.59495191302E+02 -0.10543574503E+01  0.67062602247E+02  0.47000000000E+01 0.  1.
         13    1    6    6    0    0  0.72451809153E+02  0.87490588671E+01  0.49794513099E+01  0.73147833979E+02  0.00000000000E+00 0. -1.
        -14    1    6    6    0    0  0.27408013468E+02  0.13318532827E+01 -0.59445708893E+02  0.65473394148E+02  0.00000000000E+00 0.  1.
</event>
<event>
12    1  0.8417180E-002  0.1744532E+03  0.7818608E-02  0.1173291E+00
         21   -1    0    0  503  502  0.00000000000E+00  0.00000000000E+00  0.22649676983E+03  0.22649676983E+03  0.00000000000E+00 0.  1.
         21   -1    0    0  501  503 -0.00000000000E+00 -0.00000000000E+00 -0.15320913069E+03  0.15320913069E+03  0.00000000000E+00 0.  1.
          6    2    1    2  501    0 -0.27613894977E+02 -0.12669115985E+02 -0.29978586578E+02  0.17701025012E+03  0.17178730832E+03 0.  0.
         24    2    3    3    0    0 -0.56768876209E+02 -0.27126930789E+02 -0.74456041326E+02  0.12169863000E+03  0.72857935562E+02 0.  0.
         -6    2    1    2    0  502  0.27613894977E+02  0.12669115985E+02  0.10326622573E+03  0.20269565040E+03  0.17175150543E+03 0.  0.
        -24    2    5    5    0    0 -0.23222969067E+02 -0.15635781693E+02 -0.22600108739E+00  0.83875260778E+02  0.79064684484E+02 0.  0.
          5    1    3    3  501    0  0.29154981232E+02  0.14457814805E+02  0.44477454748E+02  0.55311620121E+02  0.47000000000E+01 0. -1.
        -11    1    4    4    0    0 -0.23393323588E+02 -0.20594572270E+02 -0.81245717927E+02  0.87018680046E+02  0.00000000000E+00 0.  1.
         12    1    4    4    0    0 -0.33375552621E+02 -0.65323585195E+01  0.67896766011E+01  0.34679949956E+02  0.00000000000E+00 0. -1.
         -5    1    5    5    0  502  0.50836864045E+02  0.28304897677E+02  0.10349222681E+03  0.11882038962E+03  0.47000000000E+01 0.  1.
         11    1    6    6    0    0 -0.20707513222E+02  0.24827498786E+01  0.36957385359E+02  0.42435992782E+02  0.00000000000E+00 0. -1.
        -12    1    6    6    0    0 -0.25154558457E+01 -0.18118531571E+02 -0.37183386447E+02  0.41439267996E+02  0.00000000000E+00 0.  1.
</event>
<event>
12    1  0.8417180E-002  0.1959455E+03  0.7818608E-02  0.1153304E+00
         21   -1    0    0  501  502  0.00000000000E+00  0.00000000000E+00  0.46135770101E+03  0.46135770101E+03  0.00000000000E+00 0.  1.
         21   -1    0    0  502  503 -0.00000000000E+00 -0.00000000000E+00 -0.12352689118E+03  0.12352689118E+03  0.00000000000E+00 0.  1.
         -6    2    1    2    0  503  0.72719932251E+01 -0.92272476767E+02  0.15998629659E+01  0.19595206385E+03  0.17270657171E+03 0.  0.
        -24    2    3    3    0    0  0.10728032502E+02 -0.17960548254E+01 -0.46669129564E+02  0.93239295536E+02  0.79982761165E+02 0.  0.
          6    2    1    2  501    0 -0.72719932251E+01  0.92272476767E+02  0.33623094686E+03  0.38893252833E+03  0.17219224754E+03 0.  0.
         24    2    5    5    0    0  0.64496733061E+02  0.53348953727E+02  0.19247866447E+03  0.22354631545E+03  0.76934903885E+02 0.  0.
          5    1    5    5  501    0 -0.71768726286E+02  0.38923523040E+02  0.14375228239E+03  0.16538621288E+03  0.47000000000E+01 0. -1.
        -13    1    6    6    0    0  0.28677668962E+02  0.45974901991E+02  0.17464817243E+03  0.18286083354E+03  0.00000000000E+00 0.  1.
         14    1    6    6    0    0  0.35819064099E+02  0.73740517365E+01  0.17830492043E+02  0.40685481912E+02  0.00000000000E+00 0. -1.
         -5    1    3    3    0  503 -0.34560392769E+01 -0.90476421941E+02  0.48268992530E+02  0.10271276831E+03  0.47000000000E+01 0.  1.
         11    1    4    4    0    0 -0.31900242054E+02  0.79516028306E+01 -0.57970386266E+01  0.33383515206E+02  0.00000000000E+00 0. -1.
        -12    1    4    4    0    0  0.42628274556E+02 -0.97476576560E+01 -0.40872090937E+02  0.59855780330E+02  0.00000000000E+00 0.  1.
</event>
<event>
12    1  0.8417180E-002  0.2327348E+03  0.7818608E-02  0.1124782E+00
         21   -1    0    0  503  502  0.00000000000E+00  0.00000000000E+00  0.19645854306E+03  0.19645854306E+03  0.00000000000E+00 0.  1.
         21   -1    0    0  501  503 -0.00000000000E+00 -0.00000000000E+00 -0.38706304087E+03  0.38706304087E+03  0.00000000000E+00 0.  1.
          6    2    1    2  501    0 -0.13367562688E+03 -0.81446250878E+02 -0.25199872863E+03  0.34282525857E+03  0.17182297193E+03 0.  0.
         24    2    3    3    0    0 -0.13400558961E+03 -0.15937947029E+02 -0.11848144932E+03  0.19402875114E+03  0.73469627974E+02 0.  0.
         -6    2    1    2    0  502  0.13367562688E+03  0.81446250878E+02  0.61394230813E+02  0.24069632535E+03  0.17222893038E+03 0.  0.
        -24    2    5    5    0    0  0.83887777826E+02  0.11960815813E+03  0.38831586950E+02  0.17386576366E+03  0.85896105083E+02 0.  0.
          5    1    3    3  501    0  0.32996273474E+00 -0.65508303850E+02 -0.13351727931E+03  0.14879650743E+03  0.47000000000E+01 0. -1.
        -13    1    4    4    0    0 -0.55951215340E+02  0.29009544383E+02 -0.40721063101E+02  0.75035305980E+02  0.00000000000E+00 0.  1.
         14    1    4    4    0    0 -0.78054374274E+02 -0.44947491412E+02 -0.77760386217E+02  0.11899344517E+03  0.00000000000E+00 0. -1.
         -5    1    5    5    0  502  0.49787849054E+02 -0.38161907250E+02  0.22562643862E+02  0.66830561695E+02  0.47000000000E+01 0.  1.
         13    1    6    6    0    0 -0.17358818672E+02  0.10235468147E+02  0.14246905175E+01  0.20202057740E+02  0.00000000000E+00 0. -1.
        -14    1    6    6    0    0  0.10124659650E+03  0.10937268998E+03  0.37406896433E+02  0.15366370592E+03  0.00000000000E+00 0.  1.
</event>
<event>
12    1  0.8417180E-002  0.2246557E+03  0.7818608E-02  0.1131432E+00
         21   -1    0    0  501  502  0.00000000000E+00  0.00000000000E+00  0.57919927921E+03  0.57919927921E+03  0.00000000000E+00 0. -1.
         21   -1    0    0  502  503 -0.00000000000E+00 -0.00000000000E+00 -0.24159626422E+03  0.24159626422E+03  0.00000000000E+00 0. -1.
         -6    2    1    2    0  503  0.61514318638E+02  0.12906987308E+03 -0.16078831422E+03  0.27626632810E+03  0.17328346291E+03 0.  0.
        -24    2    3    3    0    0 -0.15001227344E+02  0.12700667853E+03 -0.11099546223E+03  0.18483163196E+03  0.74074329725E+02 0.  0.
          6    2    1    2  501    0 -0.61514318638E+02 -0.12906987308E+03  0.49839132921E+03  0.54452921533E+03  0.16635836553E+03 0.  0.
         24    2    5    5    0    0 -0.97318905926E+02 -0.12891640769E+03  0.37741589479E+03  0.41827891729E+03  0.80150392288E+02 0.  0.
          5    1    5    5  501    0  0.35804587288E+02 -0.15346538422E+00  0.12097543442E+03  0.12625029804E+03  0.47000000000E+01 0. -1.
        -11    1    6    6    0    0 -0.61327950225E+02 -0.13010160101E+03  0.31341608484E+03  0.34484371286E+03  0.00000000000E+00 0.  1.
         12    1    6    6    0    0 -0.35990955701E+02  0.11851933152E+01  0.63999809955E+02  0.73435204430E+02  0.00000000000E+00 0. -1.
         -5    1    3    3    0  503  0.76515545981E+02  0.20631945450E+01 -0.49792851993E+02  0.91434696140E+02  0.47000000000E+01 0.  1.
         13    1    4    4    0    0  0.81255288338E+01  0.12179023076E+03 -0.80547128763E+02  0.14624200655E+03  0.00000000000E+00 0. -1.
        -14    1    4    4    0    0 -0.23126756177E+02  0.52164477735E+01 -0.30448333467E+02  0.38589625414E+02  0.00000000000E+00 0.  1.
</event>
<event>
12    1  0.8417180E-002  0.2550400E+03  0.7818608E-02  0.1110446E+00
         21   -1    0    0  501  502  0.00000000000E+00  0.00000000000E+00  0.18395819079E+03  0.18395819079E+03  0.00000000000E+00 0.  1.
         21   -1    0    0  502  503 -0.00000000000E+00 -0.00000000000E+00 -0.35303625879E+03  0.35303625879E+03  0.00000000000E+00 0.  1.
         -6    2    1    2    0  503  0.91654055789E+02 -0.16190549316E+03 -0.64620123631E+02  0.26309918916E+03  0.17444646257E+03 0.  0.
        -24    2    3    3    0    0  0.69344344425E+02 -0.19150175719E+03 -0.52392768279E+02  0.22378939032E+03  0.76518807763E+02 0.  0.
          6    2    1    2  501    0 -0.91654055789E+02  0.16190549316E+03 -0.10445794437E+03  0.27389526041E+03  0.17173612572E+03 0.  0.
         24    2    5    5    0    0 -0.11971270013E+03  0.12241279453E+03 -0.39876696304E+02  0.19302630241E+03  0.79705581221E+02 0.  0.
          5    1    5    5  501    0  0.28058644337E+02  0.39492698628E+02 -0.64581248064E+02  0.80868958003E+02  0.47000000000E+01 0. -1.
        -13    1    6    6    0    0 -0.80609952966E+02  0.31843781485E+02 -0.13377860090E+00  0.86671845677E+02  0.00000000000E+00 0.  1.
         14    1    6    6    0    0 -0.39102747161E+02  0.90569013042E+02 -0.39742917703E+02  0.10635445673E+03  0.00000000000E+00 0. -1.
         -5    1    3    3    0  503  0.22309711364E+02  0.29596264035E+02 -0.12227355352E+02  0.39309798840E+02  0.47000000000E+01 0.  1.
         13    1    4    4    0    0  0.30740409345E+02 -0.11021973999E+02 -0.33867927187E+01  0.32831799257E+02  0.00000000000E+00 0. -1.
        -14    1    4    4    0    0  0.38603935080E+02 -0.18047978319E+03 -0.49005975560E+02  0.19095759106E+03  0.00000000000E+00 0.  1.
</event>
<event>
12    1  0.8417180E-002  0.1790827E+03  0.7818608E-02  0.1168816E+00
         21   -1    0    0  503  502  0.00000000000E+00  0.00000000000E+00  0.39686953678E+03  0.39686953678E+03  0.00000000000E+00 0.  1.
         21   -1    0    0  501  503 -0.00000000000E+00 -0.00000000000E+00 -0.90809339506E+02  0.90809339506E+02  0.00000000000E+00 0.  1.
          6    2    1    2  501    0 -0.48676249194E+02 -0.24833267387E+02  0.71395614233E+02  0.19278992345E+03  0.17054193751E+03 0.  0.
         24    2    3    3    0    0 -0.61916840484E+02  0.73117604475E+01  0.10376530826E+03  0.14505625438E+03  0.79918212937E+02 0.  0.
         -6    2    1    2    0  502  0.48676249194E+02  0.24833267387E+02  0.23466458304E+03  0.29488895283E+03  0.17001752723E+03 0.  0.
        -24    2    5    5    0    0  0.29205198732E+02 -0.31779351974E+02  0.20804723546E+03  0.22920270108E+03  0.85949724576E+02 0.  0.
          5    1    3    3  501    0  0.13240591290E+02 -0.32145027834E+02 -0.32369694025E+02  0.47733669076E+02  0.47000000000E+01 0. -1.
        -11    1    4    4    0    0  0.18976210114E+01 -0.27830902033E+02  0.21864520260E+02  0.35443156176E+02  0.00000000000E+00 0.  1.
         12    1    4    4    0    0 -0.63814461495E+02  0.35142662481E+02  0.81900787999E+02  0.10961309820E+03  0.00000000000E+00 0. -1.
         -5    1    5    5    0  502  0.19471050462E+02  0.56612619361E+02  0.26617347576E+02  0.65686251750E+02  0.47000000000E+01 0.  1.
         13    1    6    6    0    0  0.30575129423E+02  0.20636219473E+02  0.13034607633E+03  0.13546509405E+03  0.00000000000E+00 0. -1.
        -14    1    6    6    0    0 -0.13699306908E+01 -0.52415571447E+02  0.77701159138E+02  0.93737607029E+02  0.00000000000E+00 0.  1.
</event>
<event>
12    1  0.8417180E-002  0.1975380E+03  0.7818608E-02  0.1151949E+00
         21   -1    0    0  503  502  0.00000000000E+00  0.00000000000E+00  0.46580635033E+02  0.46580635033E+02  0.00000000000E+00 0. -1.
         21   -1    0    0  501  503 -0.00000000000E+00 -0.00000000000E+00 -0.13123978269E+04  0.13123978269E+04  0.00000000000E+00 0. -1.
          6    2    1    2  501    0  0.80241484733E+02 -0.53870957962E+02 -0.10431006555E+04  0.10616403552E+04  0.17228026645E+03 0.  0.
         24    2    3    3    0    0  0.41242478676E+02 -0.67001878108E+02 -0.97803258267E+03  0.98450872975E+03  0.80743497966E+02 0.  0.
         -6    2    1    2    0  502 -0.80241484733E+02  0.53870957962E+02 -0.22271653636E+03  0.29733810678E+03  0.17165814337E+03 0.  0.
        -24    2    5    5    0    0 -0.21703800099E+02 -0.32108555476E+02 -0.13421859049E+03  0.16068850496E+03  0.79398685873E+02 0.  0.
          5    1    3    3  501    0  0.38999006058E+02  0.13130920146E+02 -0.65068072866E+02  0.77131625446E+02  0.47000000000E+01 0. -1.
        -11    1    4    4    0    0  0.18994724262E+02  0.16147999971E+02 -0.15566427672E+03  0.15764810339E+03  0.00000000000E+00 0.  1.
         12    1    4    4    0    0  0.22247754414E+02 -0.83149878079E+02 -0.82236830595E+03  0.82686062636E+03  0.00000000000E+00 0. -1.
         -5    1    5    5    0  502 -0.58537684634E+02  0.85979513438E+02 -0.88497945873E+02  0.13664960182E+03  0.47000000000E+01 0.  1.
         13    1    6    6    0    0 -0.31891786218E+02  0.77493191501E+01 -0.18061439181E+02  0.37461360904E+02  0.00000000000E+00 0. -1.
        -14    1    6    6    0    0  0.10187986119E+02 -0.39857874626E+02 -0.11615715131E+03  0.12322714405E+03  0.00000000000E+00 0.  1.
</event>
<event>
12    1  0.8417180E-002  0.1861410E+03  0.7818608E-02  0.1162027E+00
         21   -1    0    0  503  502  0.00000000000E+00  0.00000000000E+00  0.61806169091E+02  0.61806169091E+02  0.00000000000E+00 0.  1.
         21   -1    0    0  501  503 -0.00000000000E+00 -0.00000000000E+00 -0.89318461840E+03  0.89318461840E+03  0.00000000000E+00 0.  1.
          6    2    1    2  501    0 -0.22573430465E+02  0.68325238487E+02 -0.70716579365E+03  0.73121132729E+03  0.17148949669E+03 0.  0.
         24    2    3    3    0    0 -0.14124083557E+02  0.10870583064E+03 -0.61972446241E+03  0.63441225656E+03  0.80025337324E+02 0.  0.
         -6    2    1    2    0  502  0.22573430465E+02 -0.68325238487E+02 -0.12421265566E+03  0.22377946020E+03  0.17166993040E+03 0.  0.
        -24    2    5    5    0    0  0.45692369263E+02 -0.64601718357E+02 -0.18399768322E+02  0.11530454577E+03  0.81825498335E+02 0.  0.
          5    1    3    3  501    0 -0.84493469080E+01 -0.40380592149E+02 -0.87441331241E+02  0.96799070732E+02  0.47000000000E+01 0. -1.
        -11    1    4    4    0    0 -0.56932438352E+00 -0.45935606987E+01 -0.18201435141E+03  0.18207319695E+03  0.00000000000E+00 0.  1.
         12    1    4    4    0    0 -0.13554759173E+02  0.11329939133E+03 -0.43771011100E+03  0.45233905960E+03  0.00000000000E+00 0. -1.
         -5    1    5    5    0  502 -0.23118938799E+02 -0.37235201299E+01 -0.10581288734E+03  0.10847491443E+03  0.47000000000E+01 0.  1.
         13    1    6    6    0    0 -0.12114324759E+02  0.97576821580E+01 -0.14141594972E+02  0.21022700441E+02  0.00000000000E+00 0. -1.
        -14    1    6    6    0    0  0.57806694023E+02 -0.74359400515E+02 -0.42581733508E+01  0.94281845331E+02  0.00000000000E+00 0.  1.
</event>
<event>
12    1  0.8417180E-002  0.2930527E+03  0.7818608E-02  0.1088888E+00
         21   -1    0    0  501  502  0.00000000000E+00  0.00000000000E+00  0.46822786889E+03  0.46822786889E+03  0.00000000000E+00 0. -1.
         21   -1    0    0  502  503 -0.00000000000E+00 -0.00000000000E+00 -0.21301225796E+03  0.21301225796E+03  0.00000000000E+00 0.  1.
         -6    2    1    2    0  503  0.19175772304E+03  0.13918172778E+03 -0.79640862872E+00  0.29211025264E+03  0.17083672830E+03 0.  0.
        -24    2    3    3    0    0  0.38589846836E+02  0.10349988033E+03  0.11994459993E+02  0.13425180701E+03  0.75354356917E+02 0.  0.
          6    2    1    2  501    0 -0.19175772304E+03 -0.13918172778E+03  0.25601201956E+03  0.38912987421E+03  0.17244514245E+03 0.  0.
         24    2    5    5    0    0 -0.21524727875E+02 -0.28368415739E+02  0.67152754866E+02  0.11173345277E+03  0.81895000219E+02 0.  0.
          5    1    5    5  501    0 -0.17023299516E+03 -0.11081331204E+03  0.18885926469E+03  0.27739642144E+03  0.47000000000E+01 0. -1.
        -13    1    6    6    0    0 -0.36551430635E+02 -0.40781450764E+02  0.16092667554E+02  0.57079836693E+02  0.00000000000E+00 0.  1.
         14    1    6    6    0    0  0.15026702761E+02  0.12413035024E+02  0.51060087311E+02  0.54653616080E+02  0.00000000000E+00 0. -1.
         -5    1    3    3    0  503  0.15316787620E+03  0.35681847451E+02 -0.12790868622E+02  0.15785844563E+03  0.47000000000E+01 0.  1.
         11    1    4    4    0    0  0.60803265242E+02  0.84592630210E+02  0.13465903437E+02  0.10504418454E+03  0.00000000000E+00 0. -1.
        -12    1    4    4    0    0 -0.22213418406E+02  0.18907250123E+02 -0.14714434440E+01  0.29207622469E+02  0.00000000000E+00 0.  1.
</event>
<event>
12    1  0.8417180E-002  0.1985344E+03  0.7818608E-02  0.1151204E+00
         21   -1    0    0  501  502  0.00000000000E+00  0.00000000000E+00  0.10027981197E+03  0.10027981197E+03  0.00000000000E+00 0.  1.
         21   -1    0    0  502  503 -0.00000000000E+00 -0.00000000000E+00 -0.52773772667E+03  0.52773772667E+03  0.00000000000E+00 0.  1.
         -6    2    1    2    0  503 -0.13661685527E+02 -0.97237503547E+02 -0.37315054208E+03  0.42218942119E+03  0.17134995351E+03 0.  0.
        -24    2    3    3    0    0 -0.31596202175E+02  0.75648899836E+01 -0.20600148256E+03  0.22403269869E+03  0.81844313865E+02 0.  0.
          6    2    1    2  501    0  0.13661685527E+02  0.97237503547E+02 -0.54307372625E+02  0.20582811745E+03  0.17255187470E+03 0.  0.
         24    2    5    5    0    0 -0.42154157757E+02  0.24254734589E+02 -0.61389176975E+02  0.11355604757E+03  0.82225785035E+02 0.  0.
          5    1    5    5  501    0  0.55815843283E+02  0.72982768958E+02  0.70818043504E+01  0.92272069875E+02  0.47000000000E+01 0. -1.
        -11    1    6    6    0    0 -0.31436402390E-01  0.28356843571E+02  0.10413703233E+02  0.30208554758E+02  0.00000000000E+00 0.  1.
         12    1    6    6    0    0 -0.42122721354E+02 -0.41021089816E+01 -0.71802880208E+02  0.83347492815E+02  0.00000000000E+00 0. -1.
         -5    1    3    3    0  503  0.17934516648E+02 -0.10480239353E+03 -0.16714905952E+03  0.19815672251E+03  0.47000000000E+01 0.  1.
         11    1    4    4    0    0 -0.33427712141E+02 -0.32952808297E+02 -0.12298089780E+03  0.13163434482E+03  0.00000000000E+00 0. -1.
        -12    1    4    4    0    0  0.18315099663E+01  0.40517698281E+02 -0.83020584762E+02  0.92398353865E+02  0.00000000000E+00 0.  1.
</event>
<event>
12    1  0.8417180E-002  0.4234232E+03  0.7818608E-02  0.1036031E+00
         21   -1    0    0  503  502  0.00000000000E+00  0.00000000000E+00  0.22748867443E+03  0.22748867443E+03  0.00000000000E+00 0.  1.
         21   -1    0    0  501  503 -0.00000000000E+00 -0.00000000000E+00 -0.16299099979E+04  0.16299099979E+04  0.00000000000E+00 0. -1.
          6    2    1    2  501    0  0.21859882033E+03  0.31823239604E+03 -0.13689303650E+04  0.14326530630E+04  0.17165999158E+03 0.  0.
         24    2    3    3    0    0  0.74035508273E+02  0.99846695660E+02 -0.33552931026E+03  0.36657112658E+03  0.79648312488E+02 0.  0.
         -6    2    1    2    0  502 -0.21859882033E+03 -0.31823239604E+03 -0.33490958481E+02  0.42474560929E+03  0.17386743851E+03 0.  0.
        -24    2    5    5    0    0 -0.14717011492E+03 -0.21477569046E+03 -0.90620256174E+02  0.28657471315E+03  0.78264905602E+02 0.  0.
          5    1    3    3  501    0  0.14456331206E+03  0.21838570038E+03 -0.10334010547E+04  0.10660819364E+04  0.47000000000E+01 0. -1.
        -11    1    4    4    0    0  0.58110032644E+02  0.18455407515E+02 -0.10297905564E+03  0.11967482551E+03  0.00000000000E+00 0.  1.
         12    1    4    4    0    0  0.15925475629E+02  0.81391288145E+02 -0.23255025462E+03  0.24689630108E+03  0.00000000000E+00 0. -1.
         -5    1    5    5    0  502 -0.71428705411E+02 -0.10345670558E+03  0.57129297693E+02  0.13817089614E+03  0.47000000000E+01 0.  1.
         13    1    6    6    0    0 -0.14136064038E+03 -0.17901151891E+03 -0.52656416099E+02  0.23409539232E+03  0.00000000000E+00 0. -1.
        -14    1    6    6    0    0 -0.58094745421E+01 -0.35764171555E+02 -0.37963840074E+02  0.52479320829E+02  0.00000000000E+00 0.  1.
</event>
<event>
12    1  0.8417180E-002  0.3162960E+03  0.7818608E-02  0.1077725E+00
         21   -1    0    0  503  502  0.00000000000E+00  0.00000000000E+00  0.20768995992E+03  0.20768995992E+03  0.00000000000E+00 0. -1.
         21   -1    0    0  501  503 -0.00000000000E+00 -0.00000000000E+00 -0.98711428116E+03  0.98711428116E+03  0.00000000000E+00 0. -1.
          6    2    1    2  501    0 -0.20913589235E+03 -0.15835227264E+03 -0.81822774906E+03  0.87613695445E+03  0.17119009871E+03 0.  0.
         24    2    3    3    0    0 -0.17304238512E+03 -0.13934664284E+03 -0.47396768876E+03  0.52943674627E+03  0.79352028320E+02 0.  0.
         -6    2    1    2    0  502  0.20913589235E+03  0.15835227264E+03  0.38803427817E+02  0.31866728663E+03  0.17671974944E+03 0.  0.
        -24    2    5    5    0    0  0.96483857511E+02  0.10682847781E+03  0.85635078669E+02  0.18615134077E+03  0.81224974856E+02 0.  0.
          5    1    3    3  501    0 -0.36093507222E+02 -0.19005629804E+02 -0.34426006031E+03  0.34670020818E+03  0.47000000000E+01 0. -1.
        -11    1    4    4    0    0 -0.66901545736E+02 -0.93963371952E+02 -0.29183193418E+03  0.31380058939E+03  0.00000000000E+00 0.  1.
         12    1    4    4    0    0 -0.10614083939E+03 -0.45383270886E+02 -0.18213575458E+03  0.21563615689E+03  0.00000000000E+00 0. -1.
         -5    1    5    5    0  502  0.11265203483E+03  0.51523794832E+02 -0.46831650852E+02  0.13251594586E+03  0.47000000000E+01 0.  1.
         13    1    6    6    0    0  0.64984520894E+02  0.14885871001E+02  0.46977992546E+02  0.81556783255E+02  0.00000000000E+00 0. -1.
        -14    1    6    6    0    0  0.31499336616E+02  0.91942606809E+02  0.38657086123E+02  0.10459455751E+03  0.00000000000E+00 0.  1.
</event>
<event>
12    1  0.8417180E-002  0.1845333E+03  0.7818608E-02  0.1163667E+00
         21   -1    0    0  503  502  0.00000000000E+00  0.00000000000E+00  0.12221147534E+03  0.12221147534E+03  0.00000000000E+00 0. -1.
         21   -1    0    0  501  503 -0.00000000000E+00 -0.00000000000E+00 -0.49368766155E+03  0.49368766155E+03  0.00000000000E+00 0. -1.
          6    2    1    2  501    0 -0.45573113290E+02  0.49673804342E+02 -0.38931531892E+03  0.43050558422E+03  0.17095100177E+03 0.  0.
         24    2    3    3    0    0  0.11923221500E+02  0.64778446813E+02 -0.15108422095E+03  0.18492438629E+03  0.83858073207E+02 0.  0.
         -6    2    1    2    0  502  0.45573113290E+02 -0.49673804342E+02  0.17839132714E+02  0.18539355267E+03  0.17177933294E+03 0.  0.
        -24    2    5    5    0    0  0.74555761558E+02 -0.28166733276E+02  0.61328997611E+02  0.12868370912E+03  0.80289006726E+02 0.  0.
          5    1    3    3  501    0 -0.57496334790E+02 -0.15104642471E+02 -0.23823109796E+03  0.24558119793E+03  0.47000000000E+01 0. -1.
        -11    1    4    4    0    0  0.32175435621E+02  0.34556576970E+02 -0.13866407776E+03  0.14648256596E+03  0.00000000000E+00 0.  1.
         12    1    4    4    0    0 -0.20252214122E+02  0.30221869843E+02 -0.12420143197E+02  0.38441820335E+02  0.00000000000E+00 0. -1.
         -5    1    5    5    0  502 -0.28982648268E+02 -0.21507071066E+02 -0.43489864897E+02  0.56709843548E+02  0.47000000000E+01 0.  1.
         13    1    6    6    0    0 -0.27840683665E+01  0.14355039593E+01  0.43958578352E+02  0.44070038790E+02  0.00000000000E+00 0. -1.
        -14    1    6    6    0    0  0.77339829924E+02 -0.29602237236E+02  0.17370419259E+02  0.84613670334E+02  0.00000000000E+00 0.  1.
</event>
<event>
12    1  0.8417180E-002  0.1871472E+03  0.7818608E-02  0.1161440E+00
         21   -1    0    0  503  502  0.00000000000E+00  0.00000000000E+00  0.48319645544E+03  0.48319645544E+03  0.00000000000E+00 0. -1.
         21   -1    0    0  501  503 -0.00000000000E+00 -0.00000000000E+00 -0.71865777590E+02  0.71865777590E+02  0.00000000000E+00 0. -1.
          6    2    1    2  501    0 -0.17425577774E+02  0.67269506225E+02  0.20046119874E+03  0.27312247457E+03  0.17199522286E+03 0.  0.
         24    2    3    3    0    0 -0.12358982190E+01 -0.34550898576E+02  0.89171639671E+02  0.12134317257E+03  0.74681270548E+02 0.  0.
         -6    2    1    2    0  502  0.17425577774E+02 -0.67269506225E+02  0.21086947912E+03  0.28193975847E+03  0.17376781334E+03 0.  0.
        -24    2    5    5    0    0  0.59385471318E+02 -0.14826686868E+02  0.59157819912E+02  0.11595964066E+03  0.78743417237E+02 0.  0.
          5    1    3    3  501    0 -0.16189679555E+02  0.10182040480E+03  0.11128955907E+03  0.15177930200E+03  0.47000000000E+01 0. -1.
        -11    1    4    4    0    0 -0.27919583220E+02 -0.30930052908E+02  0.18263928845E+02  0.45494421602E+02  0.00000000000E+00 0.  1.
         12    1    4    4    0    0  0.26683685001E+02 -0.36208456680E+01  0.70907710826E+02  0.75848750967E+02  0.00000000000E+00 0. -1.
         -5    1    5    5    0  502 -0.41959893544E+02 -0.52442819357E+02  0.15171165921E+03  0.16598011781E+03  0.47000000000E+01 0.  1.
         13    1    6    6    0    0 -0.65590822959E+00 -0.63379120593E+01 -0.17264331970E+02  0.18402622184E+02  0.00000000000E+00 0. -1.
        -14    1    6    6    0    0  0.60041379548E+02 -0.84887748089E+01  0.76422151882E+02  0.97557018476E+02  0.00000000000E+00 0.  1.
</event>
<event>
12    1  0.8417180E-002  0.3068448E+03  0.7818608E-02  0.1082585E+00
         21   -1    0    0  501  502  0.00000000000E+00  0.00000000000E+00  0.10713987088E+04  0.10713987088E+04  0.00000000000E+00 0. -1.
         21   -1    0    0  502  503 -0.00000000000E+00 -0.00000000000E+00 -0.88778831549E+02  0.88778831549E+02  0.00000000000E+00 0.  1.
         -6    2    1    2    0  503 -0.97904719628E+02 -0.23492931120E+03  0.38811073500E+03  0.49115223940E+03  0.16069680850E+03 0.  0.
        -24    2    3    3    0    0 -0.18585619798E+02 -0.16635578664E+03  0.30933307626E+03  0.35992016487E+03  0.76393062525E+02 0.  0.
          6    2    1    2  501    0  0.97904719628E+02  0.23492931120E+03  0.59450914230E+03  0.66902530100E+03  0.17139608429E+03 0.  0.
         24    2    5    5    0    0  0.10025503335E+03  0.12557369201E+03  0.46978292431E+03  0.50306477896E+03  0.80983652766E+02 0.  0.
          5    1    5    5  501    0 -0.23503137270E+01  0.10935561918E+03  0.12472621799E+03  0.16596052204E+03  0.47000000000E+01 0. -1.
        -13    1    6    6    0    0  0.94964508827E+02  0.84703780432E+02  0.26241173485E+03  0.29163831529E+03  0.00000000000E+00 0.  1.
         14    1    6    6    0    0  0.52905245282E+01  0.40869911580E+02  0.20737118945E+03  0.21142646366E+03  0.00000000000E+00 0. -1.
         -5    1    3    3    0  503 -0.79319099830E+02 -0.68573524558E+02  0.78777658732E+02  0.13123207452E+03  0.47000000000E+01 0.  1.
         13    1    4    4    0    0  0.78651760183E+01 -0.11771974350E+03  0.14751191004E+03  0.18889034546E+03  0.00000000000E+00 0. -1.
        -14    1    4    4    0    0 -0.26450795816E+02 -0.48636043133E+02  0.16182116622E+03  0.17102981941E+03  0.00000000000E+00 0.  1.
</event>
<event>
12    1  0.8417180E-002  0.3140350E+03  0.7818608E-02  0.1078484E+00
         21   -1    0    0  501  502  0.00000000000E+00  0.00000000000E+00  0.81150237028E+03  0.81150237028E+03  0.00000000000E+00 0. -1.
         21   -1    0    0  502  503 -0.00000000000E+00 -0.00000000000E+00 -0.12345179134E+03  0.12345179134E+03  0.00000000000E+00 0.  1.
         -6    2    1    2    0  503  0.26167309517E+03 -0.98852166840E+01  0.28261922904E+03  0.42212615089E+03  0.17247125092E+03 0.  0.
        -24    2    3    3    0    0  0.26647027020E+03 -0.20604594909E+02  0.20724799444E+03  0.34570082157E+03  0.71598691302E+02 0.  0.
          6    2    1    2  501    0 -0.26167309517E+03  0.98852166840E+01  0.40543134990E+03  0.51282801073E+03  0.17334204008E+03 0.  0.
         24    2    5    5    0    0 -0.14064238987E+03 -0.29342186218E+01  0.11656171411E+03  0.19933076030E+03  0.79732222697E+02 0.  0.
          5    1    5    5  501    0 -0.12103070530E+03  0.12819435306E+02  0.28886963579E+03  0.31349725043E+03  0.47000000000E+01 0. -1.
        -11    1    6    6    0    0 -0.14606023714E+03 -0.10073060575E+02  0.12042539235E+03  0.18957144971E+03  0.00000000000E+00 0.  1.
         12    1    6    6    0    0  0.54178472683E+01  0.71388419534E+01 -0.38636782450E+01  0.97593105821E+01  0.00000000000E+00 0. -1.
         -5    1    3    3    0  503 -0.47971750305E+01  0.10719378225E+02  0.75371234595E+02  0.76425329324E+02  0.47000000000E+01 0.  1.
         13    1    4    4    0    0  0.45314176981E+02  0.13735160636E+02  0.65354312447E+02  0.80704494475E+02  0.00000000000E+00 0. -1.
        -14    1    4    4    0    0  0.22115609322E+03 -0.34339755545E+02  0.14189368200E+03  0.26499632709E+03  0.00000000000E+00 0.  1.
</event>
<event>
12    1  0.8417180E-002  0.1923648E+03  0.7818608E-02  0.1157587E+00
         21   -1    0    0  501  502  0.00000000000E+00  0.00000000000E+00  0.16767634742E+03  0.16767634742E+03  0.00000000000E+00 0.  1.
         21   -1    0    0  502  503 -0.00000000000E+00 -0.00000000000E+00 -0.21441695066E+03  0.21441695066E+03  0.00000000000E+00 0. -1.
         -6    2    1    2    0  503  0.51129955351E+02 -0.53900066219E+02 -0.22151275433E+02  0.18816328860E+03  0.17145044386E+03 0.  0.
        -24    2    3    3    0    0  0.92663846227E+02 -0.40205370684E+02  0.19268416619E+02  0.12774566148E+03  0.75793284119E+02 0.  0.
          6    2    1    2  501    0 -0.51129955351E+02  0.53900066219E+02 -0.24589327806E+02  0.19393000949E+03  0.17743935321E+03 0.  0.
         24    2    5    5    0    0 -0.61925305758E+02 -0.14715144032E+02  0.29341592461E+02  0.10586627786E+03  0.79343939799E+02 0.  0.
          5    1    5    5  501    0  0.10795350407E+02  0.68615210252E+02 -0.53930920266E+02  0.88063731632E+02  0.47000000000E+01 0. -1.
        -13    1    6    6    0    0 -0.47674670212E+02  0.27546131703E+02  0.26689591858E+02  0.61188216718E+02  0.00000000000E+00 0.  1.
         14    1    6    6    0    0 -0.14250635546E+02 -0.42261275735E+02  0.26520006022E+01  0.44678061142E+02  0.00000000000E+00 0. -1.
         -5    1    3    3    0  503 -0.41533890875E+02 -0.13694695535E+02 -0.41419692053E+02  0.60417627120E+02  0.47000000000E+01 0.  1.
         13    1    4    4    0    0  0.81796608019E+02 -0.58736772249E+02  0.29089196135E+01  0.10074301619E+03  0.00000000000E+00 0. -1.
        -14    1    4    4    0    0  0.10867238208E+02  0.18531401564E+02  0.16359497006E+02  0.27002645287E+02  0.00000000000E+00 0.  1.
</event>
<event>
12    1  0.8417180E-002  0.2278352E+03  0.7818608E-02  0.1128211E+00
         21   -1    0    0  501  502  0.00000000000E+00  0.00000000000E+00  0.92606905586E+02  0.92606905586E+02  0.00000000000E+00 0.  1.
         21   -1    0    0  502  503 -0.00000000000E+00 -0.00000000000E+00 -0.70558643353E+03  0.70558643353E+03  0.00000000000E+00 0.  1.
         -6    2    1    2    0  503  0.14636693793E+03 -0.29854184630E+02 -0.48789151892E+03  0.53846728522E+03  0.17203002689E+03 0.  0.
        -24    2    3    3    0    0  0.84000911375E+02  0.27817186591E+02 -0.15714993686E+03  0.19695946330E+03  0.79164250426E+02 0.  0.
          6    2    1    2  501    0 -0.14636693793E+03  0.29854184630E+02 -0.12508800902E+03  0.25972605390E+03  0.17174417082E+03 0.  0.
         24    2    5    5    0    0 -0.72681709364E+02  0.70763646907E+02 -0.26717307409E+02  0.13010359462E+03  0.76961069502E+02 0.  0.
          5    1    5    5  501    0 -0.73685228568E+02 -0.40909462277E+02 -0.98370701610E+02  0.12962245927E+03  0.47000000000E+01 0. -1.
        -11    1    6    6    0    0  0.12367665976E+02  0.27349557619E+02 -0.16002250788E+02  0.34015136247E+02  0.00000000000E+00 0.  1.
         12    1    6    6    0    0 -0.85049375341E+02  0.43414089288E+02 -0.10715056621E+02  0.96088458375E+02  0.00000000000E+00 0. -1.
         -5    1    3    3    0  503  0.62366026556E+02 -0.57671371221E+02 -0.33074158206E+03  0.34150782192E+03  0.47000000000E+01 0.  1.
         13    1    4    4    0    0  0.42338132259E+02  0.99284845565E+01 -0.14299381986E+03  0.14946011096E+03  0.00000000000E+00 0. -1.
        -14    1    4    4    0    0  0.41662779117E+02  0.17888702035E+02 -0.14156116997E+02  0.47499352339E+02  0.00000000000E+00 0.  1.
</event>
<event>
12    1  0.8417180E-002  0.2283169E+03  0.7818608E-02  0.1127863E+00
         21   -1    0    0  503  502  0.00000000000E+00  0.00000000000E+00  0.16480770881E+04  0.16480770881E+04  0.00000000000E+00 0. -1.
         21   -1    0    0  501  503 -0.00000000000E+00 -0.00000000000E+00 -0.32706069398E+02  0.32706069398E+02  0.00000000000E+00 0.  1.
          6    2    1    2  501    0  0.13581235546E+03 -0.63675657609E+02  0.65375264939E+03  0.69247465506E+03  0.17213086897E+03 0.  0.
         24    2    3    3    0    0  0.32802054154E+02 -0.67558657522E+02  0.47354680744E+03  0.48481523356E+03  0.71826770053E+02 0.  0.
         -6    2    1    2    0  502 -0.13581235546E+03  0.63675657609E+02  0.96161836935E+03  0.98830850247E+03  0.17188432891E+03 0.  0.
        -24    2    5    5    0    0 -0.15795910593E+03  0.68044699506E+02  0.93031978143E+03  0.94943359168E+03  0.79674895820E+02 0.  0.
          5    1    3    3  501    0  0.10301030131E+03  0.38829999129E+01  0.18020584195E+03  0.20765942150E+03  0.47000000000E+01 0. -1.
        -11    1    4    4    0    0 -0.22355323197E+02 -0.11638695315E+02  0.12734537926E+03  0.12981550494E+03  0.00000000000E+00 0.  1.
         12    1    4    4    0    0  0.55157377351E+02 -0.55919962208E+02  0.34620142818E+03  0.35499972862E+03  0.00000000000E+00 0. -1.
         -5    1    5    5    0  502  0.22146750463E+02 -0.43690418961E+01  0.31298587925E+02  0.38874910794E+02  0.47000000000E+01 0.  1.
         13    1    6    6    0    0 -0.30977334143E+02  0.50942386022E+02  0.23777907108E+03  0.24513997749E+03  0.00000000000E+00 0. -1.
        -14    1    6    6    0    0 -0.12698177178E+03  0.17102313483E+02  0.69254071035E+03  0.70429361419E+03  0.00000000000E+00 0.  1.
</event>
<event>
12    1  0.8417180E-002  0.2048597E+03  0.7818608E-02  0.1146110E+00
         21   -1    0    0  501  502  0.00000000000E+00  0.00000000000E+00  0.13807176530E+04  0.13807176530E+04  0.00000000000E+00 0. -1.
         21   -1    0    0  502  503 -0.00000000000E+00 -0.00000000000E+00 -0.37756996492E+02  0.37756996492E+02  0.00000000000E+00 0.  1.
         -6    2    1    2    0  503 -0.11087595266E+03 -0.85289995768E+01  0.98822576176E+03  0.10088353795E+04  0.16968336970E+03 0.  0.
        -24    2    3    3    0    0 -0.29127103655E+02  0.83357743667E+00  0.21611753229E+03  0.23234085909E+03  0.80164855281E+02 0.  0.
          6    2    1    2  501    0  0.11087595266E+03  0.85289995768E+01  0.35473489470E+03  0.40963926997E+03  0.17205018243E+03 0.  0.
         24    2    5    5    0    0  0.12122047368E+03 -0.12989680592E+02  0.17314785502E+03  0.22642899272E+03  0.80167162875E+02 0.  0.
          5    1    5    5  501    0 -0.10344521022E+02  0.21518680168E+02  0.18158703968E+03  0.18321027726E+03  0.47000000000E+01 0. -1.
        -11    1    6    6    0    0  0.11218552840E+03  0.99809498408E+01  0.16623326172E+03  0.20079519278E+03  0.00000000000E+00 0.  1.
         12    1    6    6    0    0  0.90349452822E+01 -0.22970630432E+02  0.69145933018E+01  0.25633799938E+02  0.00000000000E+00 0. -1.
         -5    1    3    3    0  503 -0.81748849007E+02 -0.93625770135E+01  0.77210822947E+03  0.77649452038E+03  0.47000000000E+01 0.  1.
         13    1    4    4    0    0 -0.14478384414E+02  0.19956773495E+02  0.20379872448E+03  0.20528472063E+03  0.00000000000E+00 0. -1.
        -14    1    4    4    0    0 -0.14648719240E+02 -0.19123196058E+02  0.12318807813E+02  0.27056138468E+02  0.00000000000E+00 0.  1.
</event>
<event>
12    1  0.8417180E-002  0.1948890E+03  0.7818608E-02  0.1154332E+00
         21   -1    0    0  501  502  0.00000000000E+00  0.00000000000E+00  0.12759255782E+03  0.12759255782E+03  0.00000000000E+00 0.  1.
         21   -1    0    0  502  503 -0.00000000000E+00 -0.00000000000E+00 -0.60077513698E+03  0.60077513698E+03  0.00000000000E+00 0.  1.
         -6    2    1    2    0  503 -0.82860549210E+02  0.38127491807E+02 -0.49616707490E+03  0.53306985830E+03  0.17222697629E+03 0.  0.
        -24    2    3    3    0    0 -0.11345539806E+03  0.35755665027E+01 -0.28477481233E+03  0.31664744959E+03  0.79271694613E+02 0.  0.
          6    2    1    2  501    0  0.82860549210E+02 -0.38127491807E+02  0.22984495741E+02  0.19529783650E+03  0.17115309419E+03 0.  0.
         24    2    5    5    0    0  0.90702427198E+02 -0.17523590957E+02  0.71523494764E+02  0.14178017393E+03  0.80324347975E+02 0.  0.
          5    1    5    5  501    0 -0.78418779880E+01 -0.20603900849E+02 -0.48538999023E+02  0.53517662568E+02  0.47000000000E+01 0. -1.
        -11    1    6    6    0    0  0.93540204350E+02  0.10003112652E+02  0.61281087126E+02  0.11227289847E+03  0.00000000000E+00 0.  1.
         12    1    6    6    0    0 -0.28377771525E+01 -0.27526703609E+02  0.10242407638E+02  0.29507275458E+02  0.00000000000E+00 0. -1.
         -5    1    3    3    0  503  0.30594848846E+02  0.34551925304E+02 -0.21139226257E+03  0.21642240871E+03  0.47000000000E+01 0.  1.
         13    1    4    4    0    0 -0.28218106419E+02  0.17313297539E+02 -0.21248215863E+02  0.39338257192E+02  0.00000000000E+00 0. -1.
        -14    1    4    4    0    0 -0.85237291637E+02 -0.13737731036E+02 -0.26352659647E+03  0.27730919240E+03  0.00000000000E+00 0.  1.
</event>
<event>
12    1  0.8417180E-002  0.2386765E+03  0.7818608E-02  0.1120738E+00
         21   -1    0    0  503  502  0.00000000000E+00  0.00000000000E+00  0.71249969529E+03  0.71249969529E+03  0.00000000000E+00 0. -1.
         21   -1    0    0  501  503 -0.00000000000E+00 -0.00000000000E+00 -0.11612654270E+03  0.11612654270E+03  0.00000000000E+00 0. -1.
          6    2    1    2  501    0  0.12942170179E+03  0.10240344658E+03  0.66720868401E+02  0.24782681862E+03  0.17242393970E+03 0.  0.
         24    2    3    3    0    0  0.11605010162E+03  0.12441707263E+03  0.13491622531E+02  0.18850699025E+03  0.80035163808E+02 0.  0.
         -6    2    1    2    0  502 -0.12942170179E+03 -0.10240344658E+03  0.52965228419E+03  0.58079941937E+03  0.17193016207E+03 0.  0.
        -24    2    5    5    0    0 -0.16034308004E+03 -0.85812359227E+02  0.41186242141E+03  0.45780373820E+03  0.82945429224E+02 0.  0.
          5    1    3    3  501    0  0.13371600167E+02 -0.22013626041E+02  0.53229245869E+02  0.59319828374E+02  0.47000000000E+01 0. -1.
        -13    1    4    4    0    0  0.57695458029E+00 -0.82317935726E+01 -0.77990779887E+01  0.11354334832E+02  0.00000000000E+00 0.  1.
         14    1    4    4    0    0  0.11547314704E+03  0.13264886620E+03  0.21290700520E+02  0.17715265541E+03  0.00000000000E+00 0. -1.
         -5    1    5    5    0  502  0.30921378251E+02 -0.16591087357E+02  0.11778986279E+03  0.12299568118E+03  0.47000000000E+01 0.  1.
         13    1    6    6    0    0 -0.13684063555E+03 -0.89470137310E+02  0.28357686500E+03  0.32733179401E+03  0.00000000000E+00 0. -1.
        -14    1    6    6    0    0 -0.23502444494E+02  0.36577780831E+01  0.12828555641E+03  0.13047194419E+03  0.00000000000E+00 0.  1.
</event>
<event>
12    1  0.8417180E-002  0.1991163E+03  0.7818608E-02  0.1150757E+00
         21   -1    0    0  503  502  0.00000000000E+00  0.00000000000E+00  0.20495672451E+03  0.20495672451E+03  0.00000000000E+00 0.  1.
         21   -1    0    0  501  503 -0.00000000000E+00 -0.00000000000E+00 -0.24668527003E+03  0.24668527003E+03  0.00000000000E+00 0. -1.
          6    2    1    2  501    0 -0.52754537640E+02  0.83742152476E+02  0.85306002362E+02  0.21545336169E+03  0.17131038405E+03 0.  0.
         24    2    3    3    0    0 -0.71017440108E+02  0.10983352238E+03  0.95887791308E+02  0.18156593854E+03  0.81638484055E+02 0.  0.
         -6    2    1    2    0  502  0.52754537640E+02 -0.83742152476E+02 -0.12703454788E+03  0.23618863284E+03  0.17277587964E+03 0.  0.
        -24    2    5    5    0    0  0.73626535847E+02 -0.85277585044E+01 -0.11370580823E+03  0.15686278163E+03  0.78634165537E+02 0.  0.
          5    1    3    3  501    0  0.18262902468E+02 -0.26091369908E+02 -0.10581788946E+02  0.33887423147E+02  0.47000000000E+01 0. -1.
        -11    1    4    4    0    0 -0.20805494813E+02  0.34248201444E+02  0.79954137239E+02  0.89434176791E+02  0.00000000000E+00 0.  1.
         12    1    4    4    0    0 -0.50211945294E+02  0.75585320940E+02  0.15933654069E+02  0.92131761754E+02  0.00000000000E+00 0. -1.
         -5    1    5    5    0  502 -0.20871998208E+02 -0.75214393972E+02 -0.13328739651E+02  0.79325851211E+02  0.47000000000E+01 0.  1.
         11    1    6    6    0    0  0.13153216072E+02  0.22104811344E+02 -0.73904559900E+02  0.78252883344E+02  0.00000000000E+00 0. -1.
        -12    1    6    6    0    0  0.60473319775E+02 -0.30632569849E+02 -0.39801248333E+02  0.78609898289E+02  0.00000000000E+00 0.  1.
</event>
<event>
12    1  0.8417180E-002  0.2035981E+03  0.7818608E-02  0.1147103E+00
         21   -1    0    0  501  502  0.00000000000E+00  0.00000000000E+00  0.38665901747E+02  0.38665901747E+02  0.00000000000E+00 0.  1.
         21   -1    0    0  502  503 -0.00000000000E+00 -0.00000000000E+00 -0.10897603245E+04  0.10897603245E+04  0.00000000000E+00 0.  1.
         -6    2    1    2    0  503  0.10628733432E+03  0.25165743617E+02 -0.61649599796E+03  0.64924531970E+03  0.17181925842E+03 0.  0.
        -24    2    3    3    0    0  0.41423667049E+02  0.62017194645E+02 -0.21980017392E+03  0.24556847916E+03  0.80185465518E+02 0.  0.
          6    2    1    2  501    0 -0.10628733432E+03 -0.25165743617E+02 -0.43459842482E+03  0.47918090657E+03  0.16972989801E+03 0.  0.
         24    2    5    5    0    0 -0.61850456464E+02  0.33618446784E+02 -0.35822288895E+03  0.37294753313E+03  0.76226933341E+02 0.  0.
          5    1    5    5  501    0 -0.44436877860E+02 -0.58784190401E+02 -0.76375535868E+02  0.10623337345E+03  0.47000000000E+01 0. -1.
        -11    1    6    6    0    0 -0.90378382095E+01 -0.52512568896E+01 -0.21690527744E+03  0.21715698837E+03  0.00000000000E+00 0.  1.
         12    1    6    6    0    0 -0.52812618255E+02  0.38869703673E+02 -0.14131761151E+03  0.15579054475E+03  0.00000000000E+00 0. -1.
         -5    1    3    3    0  503  0.64863667274E+02 -0.36851451028E+02 -0.39669582404E+03  0.40367684054E+03  0.47000000000E+01 0.  1.
         11    1    4    4    0    0 -0.15921831620E+02  0.26634658737E+02 -0.12790934964E+03  0.13161957109E+03  0.00000000000E+00 0. -1.
        -12    1    4    4    0    0  0.57345498669E+02  0.35382535908E+02 -0.91890824281E+02  0.11394890808E+03  0.00000000000E+00 0.  1.
</event>
<event>
12    1  0.8417180E-002  0.1917950E+03  0.7818608E-02  0.1156967E+00
         21   -1    0    0  501  502  0.00000000000E+00  0.00000000000E+00  0.11325357585E+04  0.11325357585E+04  0.00000000000E+00 0.  1.
         21   -1    0    0  502  503 -0.00000000000E+00 -0.00000000000E+00 -0.32936864612E+02  0.32936864612E+02  0.00000000000E+00 0.  1.
         -6    2    1    2    0  503 -0.74805860056E+02  0.39114863591E+02  0.47569242645E+03  0.51290212287E+03  0.17221908668E+03 0.  0.
        -24    2    3    3    0    0 -0.18873878661E+02  0.83677300854E+02  0.29630427509E+03  0.31972760021E+03  0.84091622217E+02 0.  0.
          6    2    1    2  501    0  0.74805860056E+02 -0.39114863591E+02  0.62390646743E+03  0.65257050022E+03  0.17164815296E+03 0.  0.
         24    2    5    5    0    0  0.16622787160E+02  0.86782199393E+01  0.50571029275E+03  0.51234969395E+03  0.80047986489E+02 0.  0.
          5    1    5    5  501    0  0.58183072896E+02 -0.47793083530E+02  0.11819617468E+03  0.14022080628E+03  0.47000000000E+01 0. -1.
        -11    1    6    6    0    0  0.44199259565E+02 -0.12349407193E+02  0.33715069055E+03  0.34025971043E+03  0.00000000000E+00 0.  1.
         12    1    6    6    0    0 -0.27576472405E+02  0.21027627132E+02  0.16855960220E+03  0.17208998352E+03  0.00000000000E+00 0. -1.
         -5    1    3    3    0  503 -0.55931981395E+02 -0.44562437263E+02  0.17938815136E+03  0.19317452266E+03  0.47000000000E+01 0.  1.
         13    1    4    4    0    0  0.44262065896E+01 -0.13839570468E+02  0.14120176633E+02  0.20260908263E+02  0.00000000000E+00 0. -1.
        -14    1    4    4    0    0 -0.23300085250E+02  0.97516871321E+02  0.28218409846E+03  0.29946669195E+03  0.00000000000E+00 0.  1.
</event>
<event>
12    1  0.8417180E-002  0.4504518E+03  0.7818608E-02  0.1027714E+00
         21   -1    0    0  501  502  0.00000000000E+00  0.00000000000E+00  0.42222720112E+03  0.42222720112E+03  0.00000000000E+00 0. -1.
         21   -1    0    0  502  503 -0.00000000000E+00 -0.00000000000E+00 -0.59250226667E+03  0.59250226667E+03  0.00000000000E+00 0.  1.
         -6    2    1    2    0  503 -0.41254090700E+03 -0.53858816175E+02 -0.30756400966E+03  0.54543787791E+03  0.17267335230E+03 0.  0.
        -24    2    3    3    0    0 -0.28130678961E+03 -0.88931943577E+02 -0.16004887485E+03  0.34485043356E+03  0.79144037793E+02 0.  0.
          6    2    1    2  501    0  0.41254090700E+03  0.53858816175E+02  0.13728894411E+03  0.46929158988E+03  0.16821287148E+03 0.  0.
         24    2    5    5    0    0  0.17459463654E+03  0.31440053420E+02  0.12243226790E+03  0.22978409652E+03  0.79619763399E+02 0.  0.
          5    1    5    5  501    0  0.23794627046E+03  0.22418762755E+02  0.14856676210E+02  0.23950749336E+03  0.47000000000E+01 0. -1.
        -13    1    6    6    0    0  0.48296912472E+02  0.24279031780E+02  0.45996864789E+00  0.54058067943E+02  0.00000000000E+00 0.  1.
         14    1    6    6    0    0  0.12629772407E+03  0.71610216398E+01  0.12197229925E+03  0.17572602858E+03  0.00000000000E+00 0. -1.
         -5    1    3    3    0  503 -0.13123411739E+03  0.35073127402E+02 -0.14751513481E+03  0.20058744435E+03  0.47000000000E+01 0.  1.
         11    1    4    4    0    0 -0.72420779285E+02  0.45164906152E+00 -0.11339991868E+02  0.73304629286E+02  0.00000000000E+00 0. -1.
        -12    1    4    4    0    0 -0.20888601032E+03 -0.89383592639E+02 -0.14870888298E+03  0.27154580427E+03  0.00000000000E+00 0.  1.
</event>
<event>
12    1  0.8417180E-002  0.2012545E+03  0.7818608E-02  0.1150797E+00
         21   -1    0    0  503  502  0.00000000000E+00  0.00000000000E+00  0.62302823127E+03  0.62302823127E+03  0.00000000000E+00 0. -1.
         21   -1    0    0  501  503 -0.00000000000E+00 -0.00000000000E+00 -0.66614277920E+02  0.66614277920E+02  0.00000000000E+00 0. -1.
          6    2    1    2  501    0  0.47372066994E+02 -0.69265499106E+02  0.17979414284E+03  0.26262277055E+03  0.17205511825E+03 0.  0.
         24    2    3    3    0    0  0.11065876185E+02  0.30198868836E+02  0.84440731180E+02  0.12005467070E+03  0.79047211083E+02 0.  0.
         -6    2    1    2    0  502 -0.47372066994E+02  0.69265499106E+02  0.37661981051E+03  0.42701973863E+03  0.18292499396E+03 0.  0.
        -24    2    5    5    0    0 -0.13972207647E+02  0.30376668032E+02  0.36384168871E+03  0.37397954460E+03  0.79761900589E+02 0.  0.
          5    1    3    3  501    0  0.36306190809E+02 -0.99464367942E+02  0.95353411658E+02  0.14256809985E+03  0.47000000000E+01 0. -1.
        -11    1    4    4    0    0  0.13107744876E+01 -0.11657388168E+02  0.75180696918E+02  0.76090406871E+02  0.00000000000E+00 0.  1.
         12    1    4    4    0    0  0.97551016977E+01  0.41856257004E+02  0.92600342618E+01  0.43964263829E+02  0.00000000000E+00 0. -1.
         -5    1    5    5    0  502 -0.33399859347E+02  0.38888831074E+02  0.12778121798E+02  0.53040194036E+02  0.47000000000E+01 0.  1.
         11    1    6    6    0    0 -0.30258548458E+02  0.49331784715E+02  0.19865214755E+03  0.20691031986E+03  0.00000000000E+00 0. -1.
        -12    1    6    6    0    0  0.16286340811E+02 -0.18955116683E+02  0.16518954116E+03  0.16706922474E+03  0.00000000000E+00 0.  1.
</event>
<event>
12    1  0.8417180E-002  0.1903929E+03  0.7818608E-02  0.1159127E+00
         21   -1    0    0  503  502  0.00000000000E+00  0.00000000000E+00  0.34285773328E+03  0.34285773328E+03  0.00000000000E+00 0. -1.
         21   -1    0    0  501  503 -0.00000000000E+00 -0.00000000000E+00 -0.15831912493E+03  0.15831912493E+03  0.00000000000E+00 0.  1.
          6    2    1    2  501    0  0.74041679416E+02  0.96472276255E+01 -0.54790751642E+02  0.19811989313E+03  0.17514059009E+03 0.  0.
         24    2    3    3    0    0  0.23642072183E+01 -0.14202045622E+02 -0.83935177478E+02  0.11701542093E+03  0.80250901181E+02 0.  0.
         -6    2    1    2    0  502 -0.74041679416E+02 -0.96472276255E+01  0.23932935999E+03  0.30305696507E+03  0.17026374315E+03 0.  0.
        -24    2    5    5    0    0 -0.80946252030E+02 -0.62438204692E+02  0.18852573719E+03  0.22931648452E+03  0.81198961603E+02 0.  0.
          5    1    3    3  501    0  0.71677472198E+02  0.23849273247E+02  0.29144425836E+02  0.81104472209E+02  0.47000000000E+01 0. -1.
        -11    1    4    4    0    0 -0.32690550967E+02 -0.10321788840E+02 -0.11004254815E+02  0.36004236854E+02  0.00000000000E+00 0.  1.
         12    1    4    4    0    0  0.35054758185E+02 -0.38802567812E+01 -0.72930922663E+02  0.81011184071E+02  0.00000000000E+00 0. -1.
         -5    1    5    5    0  502  0.69045726143E+01  0.52790977066E+02  0.50803622798E+02  0.73740480552E+02  0.47000000000E+01 0.  1.
         11    1    6    6    0    0  0.63962788463E+01 -0.31626251391E+02  0.82213318282E+02  0.88318525028E+02  0.00000000000E+00 0. -1.
        -12    1    6    6    0    0 -0.87342530877E+02 -0.30811953300E+02  0.10631241891E+03  0.14099795949E+03  0.00000000000E+00 0.  1.
</event>
<event>
12    1  0.8417180E-002  0.2086532E+03  0.7818608E-02  0.1142813E+00
         21   -1    0    0  501  502  0.00000000000E+00  0.00000000000E+00  0.95201391554E+02  0.95201391554E+02  0.00000000000E+00 0.  1.
         21   -1    0    0  502  503 -0.00000000000E+00 -0.00000000000E+00 -0.72284880555E+03  0.72284880555E+03  0.00000000000E+00 0. -1.
         -6    2    1    2    0  503  0.58270847820E+02 -0.10057165327E+03 -0.56221279359E+03  0.59937722785E+03  0.17221987935E+03 0.  0.
        -24    2    3    3    0    0  0.25572247147E+02 -0.13547503960E+03 -0.40480453382E+03  0.43479625962E+03  0.78572581697E+02 0.  0.
          6    2    1    2  501    0 -0.58270847820E+02  0.10057165327E+03 -0.65434620410E+02  0.21867296926E+03  0.17328020310E+03 0.  0.
         24    2    5    5    0    0 -0.82363149471E+02  0.59198305735E+02 -0.96331341266E+02  0.16149875964E+03  0.80709319555E+02 0.  0.
          5    1    5    5  501    0  0.24092301651E+02  0.41373347537E+02  0.30896720856E+02  0.57174209613E+02  0.47000000000E+01 0. -1.
        -11    1    6    6    0    0 -0.50521015885E+02  0.44689774440E+02 -0.97979392971E+01  0.68158261422E+02  0.00000000000E+00 0.  1.
         12    1    6    6    0    0 -0.31842133585E+02  0.14508531296E+02 -0.86533401969E+02  0.93340498220E+02  0.00000000000E+00 0. -1.
         -5    1    3    3    0  503  0.32698600672E+02  0.34903386324E+02 -0.15740825977E+03  0.16458096824E+03  0.47000000000E+01 0.  1.
         13    1    4    4    0    0 -0.41226786410E+01  0.31982472750E+01 -0.82573083923E+02  0.82737775250E+02  0.00000000000E+00 0. -1.
        -14    1    4    4    0    0  0.29694925788E+02 -0.13867328687E+03 -0.32223144990E+03  0.35205848437E+03  0.00000000000E+00 0.  1.
</event>
<event>
12    1  0.8417180E-002  0.1730187E+03  0.7818608E-02  0.1175074E+00
         21   -1    0    0  503  502  0.00000000000E+00  0.00000000000E+00  0.28036977725E+03  0.28036977725E+03  0.00000000000E+00 0. -1.
         21   -1    0    0  501  503 -0.00000000000E+00 -0.00000000000E+00 -0.12380237594E+03  0.12380237594E+03  0.00000000000E+00 0. -1.
          6    2    1    2  501    0  0.12081467210E+02 -0.15178932834E+02  0.13057651596E+01  0.17170357776E+03  0.17059909654E+03 0.  0.
         24    2    3    3    0    0 -0.69399573934E+01  0.53850944961E+02  0.23559509417E+02  0.96575302420E+02  0.76312851289E+02 0.  0.
         -6    2    1    2    0  502 -0.12081467210E+02  0.15178932834E+02  0.15526163615E+03  0.23246857543E+03  0.17192760410E+03 0.  0.
        -24    2    5    5    0    0 -0.12912777894E+02  0.72429960733E+02  0.13138746796E+03  0.17025573769E+03  0.79445015169E+02 0.  0.
          5    1    3    3  501    0  0.19021424603E+02 -0.69029877795E+02 -0.22253744258E+02  0.75128275341E+02  0.47000000000E+01 0. -1.
        -13    1    4    4    0    0 -0.12929914555E+02  0.39438124022E+02  0.50544857452E+02  0.65401306803E+02  0.00000000000E+00 0.  1.
         14    1    4    4    0    0  0.59899571614E+01  0.14412820938E+02 -0.26985348034E+02  0.31173995617E+02  0.00000000000E+00 0. -1.
         -5    1    5    5    0  502  0.83131068431E+00 -0.57251027899E+02  0.23874168187E+02  0.62212837739E+02  0.47000000000E+01 0.  1.
         13    1    6    6    0    0 -0.46185362893E+02  0.36185625814E+02  0.78751500583E+02  0.98205326257E+02  0.00000000000E+00 0. -1.
        -14    1    6    6    0    0  0.33272584999E+02  0.36244334919E+02  0.52635967377E+02  0.72050411435E+02  0.00000000000E+00 0.  1.
</event>
<event>
12    1  0.8417180E-002  0.1757639E+03  0.7818608E-02  0.1172495E+00
         21   -1    0    0  503  502  0.00000000000E+00  0.00000000000E+00  0.25431168756E+03  0.25431168756E+03  0.00000000000E+00 0. -1.
         21   -1    0    0  501  503 -0.00000000000E+00 -0.00000000000E+00 -0.12810456123E+03  0.12810456123E+03  0.00000000000E+00 0. -1.
          6    2    1    2  501    0  0.19584467066E+02  0.34411787070E+01  0.14738154852E+02  0.17428581038E+03  0.17251938277E+03 0.  0.
         24    2    3    3    0    0  0.34152781626E+02  0.44196721318E+02 -0.38295287728E+02  0.10567177338E+03  0.81118628922E+02 0.  0.
         -6    2    1    2    0  502 -0.19584467066E+02 -0.34411787070E+01  0.11146897148E+03  0.20813043841E+03  0.17463549104E+03 0.  0.
        -24    2    5    5    0    0 -0.27089064540E+01 -0.33579224260E+02 -0.53486841799E+01  0.86222518203E+02  0.79188457156E+02 0.  0.
          5    1    3    3  501    0 -0.14568314560E+02 -0.40755542611E+02  0.53033442580E+02  0.68614037008E+02  0.47000000000E+01 0. -1.
        -13    1    4    4    0    0  0.13328953543E+02 -0.23821142837E+02 -0.12250379534E+02  0.29919552927E+02  0.00000000000E+00 0.  1.
         14    1    4    4    0    0  0.20823828083E+02  0.68017864154E+02 -0.26044908194E+02  0.75752220449E+02  0.00000000000E+00 0. -1.
         -5    1    5    5    0  502 -0.16875560612E+02  0.30138045553E+02  0.11681765566E+03  0.12190792021E+03  0.47000000000E+01 0.  1.
         13    1    6    6    0    0 -0.29716440025E+02  0.20680908586E+01  0.18969604036E+02  0.35315572837E+02  0.00000000000E+00 0. -1.
        -14    1    6    6    0    0  0.27007533571E+02 -0.35647315118E+02 -0.24318288216E+02  0.50906945366E+02  0.00000000000E+00 0.  1.
</event>
<event>
12    1  0.8417180E-002  0.1900268E+03  0.7818608E-02  0.1158573E+00
         21   -1    0    0  503  502  0.00000000000E+00  0.00000000000E+00  0.17694731574E+03  0.17694731574E+03  0.00000000000E+00 0. -1.
         21   -1    0    0  501  503 -0.00000000000E+00 -0.00000000000E+00 -0.24547094497E+03  0.24547094497E+03  0.00000000000E+00 0. -1.
          6    2    1    2  501    0  0.56759501841E+02 -0.57011967147E+02 -0.12162681902E+03  0.22511110083E+03  0.17149320442E+03 0.  0.
         24    2    3    3    0    0  0.73254776818E+02  0.73457430899E+01 -0.30799809008E+02  0.11248053343E+03  0.79265502571E+02 0.  0.
         -6    2    1    2    0  502 -0.56759501841E+02  0.57011967147E+02  0.53103189791E+02  0.19730715988E+03  0.17215737314E+03 0.  0.
        -24    2    5    5    0    0  0.24570991478E+01  0.87246812087E+01  0.80865710441E+02  0.11587549915E+03  0.82496731938E+02 0.  0.
          5    1    3    3  501    0 -0.16495274977E+02 -0.64357710237E+02 -0.90827010016E+02  0.11263056740E+03  0.47000000000E+01 0. -1.
        -13    1    4    4    0    0  0.58941787035E+02 -0.18229870670E+02  0.97352533436E+01  0.62459887938E+02  0.00000000000E+00 0.  1.
         14    1    4    4    0    0  0.14312989783E+02  0.25575613760E+02 -0.40535062351E+02  0.50020645493E+02  0.00000000000E+00 0. -1.
         -5    1    5    5    0  502 -0.59216600989E+02  0.48287285938E+02 -0.27762520650E+02  0.81431660727E+02  0.47000000000E+01 0.  1.
         11    1    6    6    0    0 -0.27638383337E+02  0.32567528255E+02  0.54744764338E+02  0.69437117974E+02  0.00000000000E+00 0. -1.
        -12    1    6    6    0    0  0.30095482484E+02 -0.23842847046E+02  0.26120946103E+02  0.46438381179E+02  0.00000000000E+00 0.  1.
</event>
<event>
12    1  0.8417180E-002  0.2336628E+03  0.7818608E-02  0.1124612E+00
         21   -1    0    0  501  502  0.00000000000E+00  0.00000000000E+00  0.24309045143E+04  0.24309045143E+04  0.00000000000E+00 0. -1.
         21   -1    0    0  502  503 -0.00000000000E+00 -0.00000000000E+00 -0.26388402333E+03  0.26388402333E+03  0.00000000000E+00 0.  1.
         -6    2    1    2    0  503  0.35221613233E+02 -0.15148868487E+03 -0.20663060788E+03  0.30966425192E+03  0.17031252779E+03 0.  0.
        -24    2    3    3    0    0 -0.69155749331E+01 -0.12739806954E+02 -0.36948730837E+02  0.86413668170E+02  0.76759269657E+02 0.  0.
          6    2    1    2  501    0 -0.35221613233E+02  0.15148868487E+03  0.23736510988E+04  0.23851242857E+04  0.17438158009E+03 0.  0.
         24    2    5    5    0    0  0.88989647529E+01  0.14986957880E+03  0.13696524672E+04  0.13801443908E+04  0.79439135035E+02 0.  0.
          5    1    5    5  501    0 -0.44120577986E+02  0.16191060683E+01  0.10039986316E+04  0.10049798949E+04  0.47000000000E+01 0. -1.
        -11    1    6    6    0    0  0.15900795326E+02  0.40960175807E+02  0.72411434447E+03  0.72544617661E+03  0.00000000000E+00 0.  1.
         12    1    6    6    0    0 -0.70018305727E+01  0.10890940299E+03  0.64553812276E+03  0.65469821417E+03  0.00000000000E+00 0. -1.
         -5    1    3    3    0  503  0.42137188166E+02 -0.13874887791E+03 -0.16968187704E+03  0.22325058375E+03  0.47000000000E+01 0.  1.
         13    1    4    4    0    0 -0.17116013865E+02 -0.63690664726E+01  0.20653287569E+02  0.27569570649E+02  0.00000000000E+00 0. -1.
        -14    1    4    4    0    0  0.10200438931E+02 -0.63707404814E+01 -0.57602018406E+02  0.58844097522E+02  0.00000000000E+00 0.  1.
</event>
<event>
12    1  0.8417180E-002  0.1752085E+03  0.7818608E-02  0.1172582E+00
         21   -1    0    0  501  502  0.00000000000E+00  0.00000000000E+00  0.82718716097E+02  0.82718716097E+02  0.00000000000E+00 0. -1.
         21   -1    0    0  502  503 -0.00000000000E+00 -0.00000000000E+00 -0.37301454951E+03  0.37301454951E+03  0.00000000000E+00 0. -1.
         -6    2    1    2    0  503  0.34378638529E+02  0.11553211384E+01 -0.12676389738E+03  0.21606535903E+03  0.17155736108E+03 0.  0.
        -24    2    3    3    0    0 -0.17224230330E+02 -0.49489400602E+02 -0.10232525500E+03  0.13959914979E+03  0.79193370483E+02 0.  0.
          6    2    1    2  501    0 -0.34378638529E+02 -0.11553211384E+01 -0.16353193604E+03  0.23966790658E+03  0.17179867807E+03 0.  0.
         24    2    5    5    0    0 -0.20344881311E+02 -0.50902006033E+02 -0.16121512256E+03  0.18771469085E+03  0.79003550600E+02 0.  0.
          5    1    5    5  501    0 -0.14033757219E+02  0.49746684895E+02 -0.23168134827E+01  0.51953215727E+02  0.47000000000E+01 0. -1.
        -13    1    6    6    0    0  0.42353714222E+01 -0.23699124260E+02 -0.18043432741E+01  0.24142131563E+02  0.00000000000E+00 0.  1.
         14    1    6    6    0    0 -0.24580252733E+02 -0.27202881773E+02 -0.15941077928E+03  0.16357255929E+03  0.00000000000E+00 0. -1.
         -5    1    3    3    0  503  0.51602868859E+02  0.50644721740E+02 -0.24438642379E+02  0.76466209243E+02  0.47000000000E+01 0.  1.
         13    1    4    4    0    0  0.15059778021E+02 -0.33038543229E+02 -0.61517497944E+01  0.36826434504E+02  0.00000000000E+00 0. -1.
        -14    1    4    4    0    0 -0.32284008351E+02 -0.16450857373E+02 -0.96173505204E+02  0.10277271528E+03  0.00000000000E+00 0.  1.
</event>
<event>
12    1  0.8417180E-002  0.1731241E+03  0.7818608E-02  0.1174636E+00
         21   -1    0    0  503  502  0.00000000000E+00  0.00000000000E+00  0.26528195791E+04  0.26528195791E+04  0.00000000000E+00 0.  1.
         21   -1    0    0  501  503 -0.00000000000E+00 -0.00000000000E+00 -0.12750410026E+02  0.12750410026E+02  0.00000000000E+00 0.  1.
          6    2    1    2  501    0  0.45291430964E+01  0.21119734745E+02  0.86983397985E+03  0.88688941987E+03  0.17174147505E+03 0.  0.
         24    2    3    3    0    0  0.58820910353E+02 -0.26922247495E+02  0.43034337449E+03  0.44143492136E+03  0.74058510123E+02 0.  0.
         -6    2    1    2    0  502 -0.45291430964E+01 -0.21119734745E+02  0.17702351893E+04  0.17786805693E+04  0.17177131872E+03 0.  0.
        -24    2    5    5    0    0  0.27988672288E+02 -0.49231118575E+02  0.59151914503E+03  0.59917166252E+03  0.76842133091E+02 0.  0.
          5    1    3    3  501    0 -0.54291767256E+02  0.48041982240E+02  0.43949060536E+03  0.44545449851E+03  0.47000000000E+01 0. -1.
        -13    1    4    4    0    0  0.51898641281E+01  0.21797347747E+02  0.59491788119E+02  0.63571470898E+02  0.00000000000E+00 0.  1.
         14    1    4    4    0    0  0.53631046224E+02 -0.48719595242E+02  0.37085158637E+03  0.37786345046E+03  0.00000000000E+00 0. -1.
         -5    1    5    5    0  502 -0.32517815384E+02  0.28111383830E+02  0.11787160442E+04  0.11795089068E+04  0.47000000000E+01 0.  1.
         13    1    6    6    0    0  0.31976462066E+02 -0.24667165020E+02  0.11289448958E+03  0.11990049597E+03  0.00000000000E+00 0. -1.
        -14    1    6    6    0    0 -0.39877897782E+01 -0.24563953555E+02  0.47862465545E+03  0.47927116655E+03  0.00000000000E+00 0.  1.
</event>
<event>
12    1  0.8417180E-002  0.3207249E+03  0.7818608E-02  0.1075365E+00
         21   -1    0    0  501  502  0.00000000000E+00  0.00000000000E+00  0.82096837518E+03  0.82096837518E+03  0.00000000000E+00 0.  1.
         21   -1    0    0  502  503 -0.00000000000E+00 -0.00000000000E+00 -0.23744953082E+03  0.23744953082E+03  0.00000000000E+00 0. -1.
         -6    2    1    2    0  503  0.11897121682E+03 -0.24286310442E+03 -0.72316559621E+02  0.32835999500E+03  0.17162157090E+03 0.  0.
        -24    2    3    3    0    0  0.76548200555E+02 -0.23050797447E+03 -0.10091164537E+03  0.27551938113E+03  0.82062268447E+02 0.  0.
          6    2    1    2  501    0 -0.11897121682E+03  0.24286310442E+03  0.65583540398E+03  0.73005791100E+03  0.17241762778E+03 0.  0.
         24    2    5    5    0    0 -0.54681455848E+02  0.15136071400E+03  0.53906838036E+03  0.56830968496E+03  0.80504980993E+02 0.  0.
          5    1    5    5  501    0 -0.64289760971E+02  0.91502390424E+02  0.11676702363E+03  0.16174822603E+03  0.47000000000E+01 0. -1.
        -11    1    6    6    0    0 -0.27999409459E+01  0.10841661865E+03  0.38872429733E+03  0.40356979843E+03  0.00000000000E+00 0.  1.
         12    1    6    6    0    0 -0.51881514902E+02  0.42944095347E+02  0.15034408303E+03  0.16473988654E+03  0.00000000000E+00 0. -1.
         -5    1    3    3    0  503  0.42423016263E+02 -0.12355129948E+02  0.28595085749E+02  0.52840613868E+02  0.47000000000E+01 0.  1.
         11    1    4    4    0    0  0.12290872547E+02 -0.60703491055E+02 -0.66235839807E+02  0.90681673171E+02  0.00000000000E+00 0. -1.
        -12    1    4    4    0    0  0.64257328008E+02 -0.16980448342E+03 -0.34675805563E+02  0.18483770796E+03  0.00000000000E+00 0.  1.
</event>
<event>
12    1  0.8417180E-002  0.1913440E+03  0.7818608E-02  0.1157424E+00
         21   -1    0    0  503  502  0.00000000000E+00  0.00000000000E+00  0.44042043610E+03  0.44042043610E+03  0.00000000000E+00 0. -1.
         21   -1    0    0  501  503 -0.00000000000E+00 -0.00000000000E+00 -0.28186285310E+03  0.28186285310E+03  0.00000000000E+00 0.  1.
          6    2    1    2  501    0  0.80792515410E+02 -0.17104237044E+02 -0.22426187673E+03  0.29430750061E+03  0.17176591656E+03 0.  0.
         24    2    3    3    0    0  0.32829495602E+01 -0.48965270571E+02 -0.62103833445E+02  0.11171456740E+03  0.78834528996E+02 0.  0.
         -6    2    1    2    0  502 -0.80792515410E+02  0.17104237044E+02  0.38281945973E+03  0.42797578859E+03  0.17260518937E+03 0.  0.
        -24    2    5    5    0    0 -0.55897952797E+02  0.67673706502E+02  0.32969500052E+03  0.35037869679E+03  0.79762937001E+02 0.  0.
          5    1    3    3  501    0  0.77509565850E+02  0.31861033527E+02 -0.16215804328E+03  0.18259293321E+03  0.47000000000E+01 0. -1.
        -13    1    4    4    0    0  0.31557456864E+02 -0.48788739077E+02 -0.59745861498E+02  0.83341358944E+02  0.00000000000E+00 0.  1.
         14    1    4    4    0    0 -0.28274507304E+02 -0.17653149322E+00 -0.23579719463E+01  0.28373208461E+02  0.00000000000E+00 0. -1.
         -5    1    5    5    0  502 -0.24894562614E+02 -0.50569469458E+02  0.53124459218E+02  0.77597091803E+02  0.47000000000E+01 0.  1.
         13    1    6    6    0    0 -0.48571305953E+01  0.67216238807E+02  0.19676115737E+03  0.20798213271E+03  0.00000000000E+00 0. -1.
        -14    1    6    6    0    0 -0.51040822202E+02  0.45746769533E+00  0.13293384314E+03  0.14239656408E+03  0.00000000000E+00 0.  1.
</event>
<event>
12    1  0.8417180E-002  0.2394643E+03  0.7818608E-02  0.1120167E+00
         21   -1    0    0  503  502  0.00000000000E+00  0.00000000000E+00  0.61556442260E+03  0.61556442260E+03  0.00000000000E+00 0. -1.
         21   -1    0    0  501  503 -0.00000000000E+00 -0.00000000000E+00 -0.14334751903E+03  0.14334751903E+03  0.00000000000E+00 0. -1.
          6    2    1    2  501    0 -0.15069272942E+03  0.71073892538E+02  0.11454649479E+02  0.23963839920E+03  0.17185911811E+03 0.  0.
         24    2    3    3    0    0 -0.15154649939E+03  0.16751212814E+02 -0.24318257699E+02  0.17441974126E+03  0.81141382011E+02 0.  0.
         -6    2    1    2    0  502  0.15069272942E+03 -0.71073892538E+02  0.46076225410E+03  0.51927354243E+03  0.17199814002E+03 0.  0.
        -24    2    5    5    0    0  0.97696542996E+02 -0.68019445141E+02  0.16212709363E+03  0.21592065470E+03  0.78519266483E+02 0.  0.
          5    1    3    3  501    0  0.85376997704E+00  0.54322679725E+02  0.35772907178E+02  0.65218657941E+02  0.47000000000E+01 0. -1.
        -11    1    4    4    0    0  0.60258271290E+01  0.12599793995E+02  0.33993482430E+01  0.14374316324E+02  0.00000000000E+00 0.  1.
         12    1    4    4    0    0 -0.15757232652E+03  0.41514188188E+01 -0.27717605942E+02  0.16004542494E+03  0.00000000000E+00 0. -1.
         -5    1    5    5    0  502  0.52996186421E+02 -0.30544473975E+01  0.29863516047E+03  0.30335288773E+03  0.47000000000E+01 0.  1.
         11    1    6    6    0    0  0.10929361967E+03 -0.61925216233E+02  0.12789742987E+03  0.17926957431E+03  0.00000000000E+00 0. -1.
        -12    1    6    6    0    0 -0.11597076670E+02 -0.60942289075E+01  0.34229663753E+02  0.36651080393E+02  0.00000000000E+00 0.  1.
</event>
<event>
12    1  0.8417180E-002  0.4743123E+03  0.7818608E-02  0.1020724E+00
         21   -1    0    0  503  502  0.00000000000E+00  0.00000000000E+00  0.39182057014E+03  0.39182057014E+03  0.00000000000E+00 0.  1.
         21   -1    0    0  501  503 -0.00000000000E+00 -0.00000000000E+00 -0.57707554166E+03  0.57707554166E+03  0.00000000000E+00 0. -1.
          6    2    1    2  501    0 -0.27823240079E+03  0.34295919150E+03 -0.56872278396E+02  0.47770978984E+03  0.17302575350E+03 0.  0.
         24    2    3    3    0    0 -0.25371718869E+03  0.21645058586E+03 -0.21149670504E+02  0.34390538916E+03  0.81242477663E+02 0.  0.
         -6    2    1    2    0  502  0.27823240079E+03 -0.34295919150E+03 -0.12838269312E+03  0.49118632196E+03  0.17247495789E+03 0.  0.
        -24    2    5    5    0    0  0.20810014411E+03 -0.33624073447E+03 -0.11498651380E+03  0.41931686591E+03  0.79001482175E+02 0.  0.
          5    1    3    3  501    0 -0.24515212102E+02  0.12650860564E+03 -0.35722607892E+02  0.13380440068E+03  0.47000000000E+01 0. -1.
        -13    1    4    4    0    0 -0.18839889808E+03  0.19720837411E+03 -0.33212843329E+02  0.27475148877E+03  0.00000000000E+00 0.  1.
         14    1    4    4    0    0 -0.65318290613E+02  0.19242211747E+02  0.12063172825E+02  0.69153900397E+02  0.00000000000E+00 0. -1.
         -5    1    5    5    0  502  0.70132256682E+02 -0.67184570324E+01 -0.13396179328E+02  0.71869456049E+02  0.47000000000E+01 0.  1.
         11    1    6    6    0    0  0.18640104484E+03 -0.23955543786E+03 -0.76582915864E+02  0.31304488548E+03  0.00000000000E+00 0. -1.
        -12    1    6    6    0    0  0.21699099275E+02 -0.96685296611E+02 -0.38403597932E+02  0.10627198043E+03  0.00000000000E+00 0.  1.
</event>
<event>
12    1  0.8417180E-002  0.3066408E+03  0.7818608E-02  0.1082463E+00
         21   -1    0    0  503  502  0.00000000000E+00  0.00000000000E+00  0.15922043644E+03  0.15922043644E+03  0.00000000000E+00 0.  1.
         21   -1    0    0  501  503 -0.00000000000E+00 -0.00000000000E+00 -0.58597177430E+03  0.58597177430E+03  0.00000000000E+00 0.  1.
          6    2    1    2  501    0 -0.17982979459E+03 -0.17316632520E+03 -0.23944222073E+03  0.38586880385E+03  0.17098779345E+03 0.  0.
         24    2    3    3    0    0 -0.17822259271E+03 -0.19186518272E+03 -0.19019579220E+03  0.33295820856E+03  0.78174090249E+02 0.  0.
         -6    2    1    2    0  502  0.17982979459E+03  0.17316632520E+03 -0.18730911712E+03  0.35932340689E+03  0.17805413272E+03 0.  0.
        -24    2    5    5    0    0  0.15580961457E+03  0.16760924156E+03 -0.21055319030E+03  0.32511482369E+03  0.94855199055E+02 0.  0.
          5    1    3    3  501    0 -0.16072018795E+01  0.18698857519E+02 -0.49246428535E+02  0.52910595289E+02  0.47000000000E+01 0. -1.
        -13    1    4    4    0    0 -0.89202163536E+02 -0.14880153674E+03 -0.10791979437E+03  0.20431741319E+03  0.00000000000E+00 0.  1.
         14    1    4    4    0    0 -0.89020429171E+02 -0.43063645978E+02 -0.82275997825E+02  0.12864079537E+03  0.00000000000E+00 0. -1.
         -5    1    5    5    0  502  0.24020180020E+02  0.55570836334E+01  0.23244073178E+02  0.34208583200E+02  0.47000000000E+01 0.  1.
         11    1    6    6    0    0  0.25315706564E+02 -0.21915634151E+01 -0.54511712762E+02  0.60143285388E+02  0.00000000000E+00 0. -1.
        -12    1    6    6    0    0  0.13049390800E+03  0.16980080498E+03 -0.15604147754E+03  0.26497153830E+03  0.00000000000E+00 0.  1.
</event>
<event>
12    1  0.8417180E-002  0.1947130E+03  0.7818608E-02  0.1154372E+00
         21   -1    0    0  501  502  0.00000000000E+00  0.00000000000E+00  0.84885924681E+02  0.84885924681E+02  0.00000000000E+00 0.  1.
         21   -1    0    0  502  503 -0.00000000000E+00 -0.00000000000E+00 -0.19163160717E+04  0.19163160717E+04  0.00000000000E+00 0.  1.
         -6    2    1    2    0  503  0.46601777189E+00 -0.88660686111E+02 -0.17920450885E+04  0.18025456712E+04  0.17287094293E+03 0.  0.
        -24    2    3    3    0    0  0.22232114741E+02 -0.27886145478E+02 -0.50509476153E+03  0.51396872666E+03  0.88154579145E+02 0.  0.
          6    2    1    2  501    0 -0.46601777189E+00  0.88660686111E+02 -0.39385058443E+02  0.19865632516E+03  0.17335575636E+03 0.  0.
         24    2    5    5    0    0 -0.41961126071E+02  0.11430960883E+03 -0.35658949892E+02  0.14950670528E+03  0.79077629237E+02 0.  0.
          5    1    5    5  501    0  0.41495108299E+02 -0.25648922717E+02 -0.37261085500E+01  0.49149619878E+02  0.47000000000E+01 0. -1.
        -13    1    6    6    0    0 -0.14143336528E+02  0.10318732803E+03 -0.16242974681E+01  0.10416475880E+03  0.00000000000E+00 0.  1.
         14    1    6    6    0    0 -0.27817789543E+02  0.11122280800E+02 -0.34034652424E+02  0.45341946483E+02  0.00000000000E+00 0. -1.
         -5    1    3    3    0  503 -0.21766096969E+02 -0.60774540632E+02 -0.12869503270E+04  0.12885769445E+04  0.47000000000E+01 0.  1.
         11    1    4    4    0    0  0.47600484571E+02 -0.14082984445E+01 -0.39651052905E+03  0.39935997431E+03  0.00000000000E+00 0. -1.
        -12    1    4    4    0    0 -0.25368369829E+02 -0.26477847034E+02 -0.10858423249E+03  0.11460875235E+03  0.00000000000E+00 0.  1.
</event>
<event>
12    1  0.8417180E-002  0.2702806E+03  0.7818608E-02  0.1101405E+00
         21   -1    0    0  503  502  0.00000000000E+00  0.00000000000E+00  0.20993601867E+03  0.20993601867E+03  0.00000000000E+00 0. -1.
         21   -1    0    0  501  503 -0.00000000000E+00 -0.00000000000E+00 -0.57806792421E+03  0.57806792421E+03  0.00000000000E+00 0.  1.
          6    2    1    2  501    0 -0.19405276162E+03  0.72205834196E+02 -0.43442861034E+03  0.51164425267E+03  0.17372814114E+03 0.  0.
         24    2    3    3    0    0 -0.12211166048E+03  0.11197062674E+03 -0.32374722073E+03  0.37369781101E+03  0.85959945035E+02 0.  0.
         -6    2    1    2    0  502  0.19405276162E+03 -0.72205834196E+02  0.66296704799E+02  0.27635969021E+03  0.17061438545E+03 0.  0.
        -24    2    5    5    0    0  0.12304909518E+03 -0.69919309535E+02  0.10704589475E+03  0.19432716420E+03  0.79211321732E+02 0.  0.
          5    1    3    3  501    0 -0.71941101144E+02 -0.39764792540E+02 -0.11068138961E+03  0.13794644166E+03  0.47000000000E+01 0. -1.
        -11    1    4    4    0    0 -0.43370581935E+02 -0.29749601728E+01 -0.11283738246E+03  0.12092201059E+03  0.00000000000E+00 0.  1.
         12    1    4    4    0    0 -0.78741078541E+02  0.11494558691E+03 -0.21090983827E+03  0.25277580042E+03  0.00000000000E+00 0. -1.
         -5    1    5    5    0  502  0.71003666437E+02 -0.22865246609E+01 -0.40749189955E+02  0.82032526015E+02  0.47000000000E+01 0.  1.
         13    1    6    6    0    0 -0.83148048007E+01 -0.13149235968E+02  0.24784508951E+02  0.29262779591E+02  0.00000000000E+00 0. -1.
        -14    1    6    6    0    0  0.13136389998E+03 -0.56770073567E+02  0.82261385803E+02  0.16506438461E+03  0.00000000000E+00 0.  1.
</event>
<event>
12    1  0.8417180E-002  0.2320811E+03  0.7818608E-02  0.1126851E+00
         21   -1    0    0  503  502  0.00000000000E+00  0.00000000000E+00  0.41505109440E+03  0.41505109440E+03  0.00000000000E+00 0.  1.
         21   -1    0    0  501  503 -0.00000000000E+00 -0.00000000000E+00 -0.41388693867E+03  0.41388693867E+03  0.00000000000E+00 0.  1.
          6    2    1    2  501    0 -0.54810228418E+02  0.12923293181E+03 -0.34592175080E+03  0.41140928987E+03  0.17288850254E+03 0.  0.
         24    2    3    3    0    0 -0.66918441600E+02  0.19617745475E+02 -0.12360934338E+03  0.16320172674E+03  0.80576672029E+02 0.  0.
         -6    2    1    2    0  502  0.54810228418E+02 -0.12923293181E+03  0.34708590653E+03  0.41752874320E+03  0.18481426644E+03 0.  0.
        -24    2    5    5    0    0  0.83154512177E+01  0.13366418395E+02  0.87875158707E+02  0.11801473555E+03  0.77185662015E+02 0.  0.
          5    1    3    3  501    0  0.12108213182E+02  0.10961518634E+03 -0.22231240743E+03  0.24820756314E+03  0.47000000000E+01 0. -1.
        -11    1    4    4    0    0  0.35880753843E+01  0.84984207581E+01 -0.77895707464E+02  0.78440032392E+02  0.00000000000E+00 0.  1.
         12    1    4    4    0    0 -0.70506516985E+02  0.11119324717E+02 -0.45713635914E+02  0.84761694343E+02  0.00000000000E+00 0. -1.
         -5    1    5    5    0  502  0.46494777200E+02 -0.14259935021E+03  0.25921074783E+03  0.29951400765E+03  0.47000000000E+01 0.  1.
         13    1    6    6    0    0 -0.10541914486E+02  0.18594358554E+02  0.94858853641E+02  0.97237257495E+02  0.00000000000E+00 0. -1.
        -14    1    6    6    0    0  0.18857365704E+02 -0.52279401586E+01 -0.69836949345E+01  0.20777478060E+02  0.00000000000E+00 0.  1.
</event>
<event>
12    1  0.8417180E-002  0.1775054E+03  0.7818608E-02  0.1170400E+00
         21   -1    0    0  501  502  0.00000000000E+00  0.00000000000E+00  0.60781477012E+03  0.60781477012E+03  0.00000000000E+00 0.  1.
         21   -1    0    0  502  503 -0.00000000000E+00 -0.00000000000E+00 -0.10307270139E+03  0.10307270139E+03  0.00000000000E+00 0.  1.
         -6    2    1    2    0  503  0.28721022711E+02  0.30845817658E+02  0.10765515573E+01  0.17685833982E+03  0.17175957554E+03 0.  0.
        -24    2    3    3    0    0  0.62083537380E+02  0.39928435970E+02  0.47509132711E+02  0.11877541692E+03  0.80011476428E+02 0.  0.
          6    2    1    2  501    0 -0.28721022711E+02 -0.30845817658E+02  0.50366551718E+03  0.53402913169E+03  0.17242911206E+03 0.  0.
         24    2    5    5    0    0 -0.55883731699E+02 -0.75914914066E+02  0.33202985815E+03  0.35444648870E+03  0.80637590536E+02 0.  0.
          5    1    5    5  501    0  0.27162708988E+02  0.45069096409E+02  0.17163565903E+03  0.17958264299E+03  0.47000000000E+01 0. -1.
        -13    1    6    6    0    0 -0.61957435456E+01 -0.72315025787E+02  0.16773257845E+03  0.18276232671E+03  0.00000000000E+00 0.  1.
         14    1    6    6    0    0 -0.49687988153E+02 -0.35998882799E+01  0.16429727970E+03  0.17168416199E+03  0.00000000000E+00 0. -1.
         -5    1    3    3    0  503 -0.33362514669E+02 -0.90826183127E+01 -0.46432581154E+02  0.58082922904E+02  0.47000000000E+01 0.  1.
         13    1    4    4    0    0 -0.15398249337E+02  0.16990759814E+02  0.26970110824E+02  0.35400266659E+02  0.00000000000E+00 0. -1.
        -14    1    4    4    0    0  0.77481786717E+02  0.22937676157E+02  0.20539021887E+02  0.83375150258E+02  0.00000000000E+00 0.  1.
</event>
<event>
12    1  0.8417180E-002  0.2453007E+03  0.7818608E-02  0.1116543E+00
         21   -1    0    0  503  502  0.00000000000E+00  0.00000000000E+00  0.55386953555E+03  0.55386953555E+03  0.00000000000E+00 0. -1.
         21   -1    0    0  501  503 -0.00000000000E+00 -0.00000000000E+00 -0.12702933297E+03  0.12702933297E+03  0.00000000000E+00 0. -1.
          6    2    1    2  501    0 -0.14097118241E+02 -0.17420354051E+03  0.81157759424E+02  0.25702532755E+03  0.17008772683E+03 0.  0.
         24    2    3    3    0    0 -0.37047240559E+02 -0.25135356950E+02  0.18755782240E+02  0.93733783919E+02  0.80187023129E+02 0.  0.
         -6    2    1    2    0  502  0.14097118241E+02  0.17420354051E+03  0.34568244316E+03  0.42387354098E+03  0.17212444615E+03 0.  0.
        -24    2    5    5    0    0  0.44388421884E+02  0.18023458535E+03  0.24154929416E+03  0.31515491654E+03  0.80757180232E+02 0.  0.
          5    1    3    3  501    0  0.22950122318E+02 -0.14906818356E+03  0.62401977184E+02  0.16329154363E+03  0.47000000000E+01 0. -1.
        -11    1    4    4    0    0 -0.40758601177E+02 -0.48571834555E+02  0.26573579619E+02  0.68750576839E+02  0.00000000000E+00 0.  1.
         12    1    4    4    0    0  0.37113606177E+01  0.23436477605E+02 -0.78177973783E+01  0.24983207080E+02  0.00000000000E+00 0. -1.
         -5    1    5    5    0  502 -0.30291303643E+02 -0.60310448360E+01  0.10413314900E+03  0.10871862443E+03  0.47000000000E+01 0.  1.
         13    1    6    6    0    0 -0.14045201963E+02  0.10601326860E+03  0.11238204290E+03  0.15513157121E+03  0.00000000000E+00 0. -1.
        -14    1    6    6    0    0  0.58433623847E+02  0.74221316746E+02  0.12916725126E+03  0.16002334534E+03  0.00000000000E+00 0.  1.
</event>
<event>
12    1  0.8417180E-002  0.2032369E+03  0.7818608E-02  0.1147339E+00
         21   -1    0    0  503  502  0.00000000000E+00  0.00000000000E+00  0.48769734193E+02  0.48769734193E+02  0.00000000000E+00 0. -1.
         21   -1    0    0  501  503 -0.00000000000E+00 -0.00000000000E+00 -0.84480214894E+03  0.84480214894E+03  0.00000000000E+00 0. -1.
          6    2    1    2  501    0 -0.50597414650E+02 -0.94997072731E+02 -0.36615427089E+03  0.41807165470E+03  0.17067634918E+03 0.  0.
         24    2    3    3    0    0 -0.58060686205E+02  0.62920097857E+01 -0.21978173627E+03  0.23985216207E+03  0.76252313951E+02 0.  0.
         -6    2    1    2    0  502  0.50597414650E+02  0.94997072731E+02 -0.42987814386E+03  0.47550022844E+03  0.17239694453E+03 0.  0.
        -24    2    5    5    0    0  0.42929000346E+02  0.78334834289E+02 -0.13736008082E+03  0.18236998099E+03  0.80073546375E+02 0.  0.
          5    1    3    3  501    0  0.74632715553E+01 -0.10128908252E+03 -0.14637253462E+03  0.17821949262E+03  0.47000000000E+01 0. -1.
        -11    1    4    4    0    0 -0.49260483172E+02  0.37426197445E+02 -0.12085460137E+03  0.13576873767E+03  0.00000000000E+00 0.  1.
         12    1    4    4    0    0 -0.88002030324E+01 -0.31134187659E+02 -0.98927134904E+02  0.10408342440E+03  0.00000000000E+00 0. -1.
         -5    1    5    5    0  502  0.76684143035E+01  0.16662238442E+02 -0.29251806303E+03  0.29313024745E+03  0.47000000000E+01 0.  1.
         13    1    6    6    0    0  0.51879902664E+02  0.90601434907E+02 -0.12440724908E+03  0.16241092307E+03  0.00000000000E+00 0. -1.
        -14    1    6    6    0    0 -0.89509023184E+01 -0.12266600618E+02 -0.12952831736E+02  0.19959057919E+02  0.00000000000E+00 0.  1.
</event>
<event>
12    1  0.8417180E-002  0.2310248E+03  0.7818608E-02  0.1126267E+00
         21   -1    0    0  501  502  0.00000000000E+00  0.00000000000E+00  0.13276788145E+03  0.13276788145E+03  0.00000000000E+00 0. -1.
         21   -1    0    0  502  503 -0.00000000000E+00 -0.00000000000E+00 -0.50268409739E+03  0.50268409739E+03  0.00000000000E+00 0. -1.
         -6    2    1    2    0  503 -0.11500360790E+03 -0.10355237781E+03 -0.39739597709E+02  0.23247670415E+03  0.16887053493E+03 0.  0.
        -24    2    3    3    0    0 -0.17419408934E+02  0.41241730719E+01 -0.30386863848E+02  0.86783605041E+02  0.79294312522E+02 0.  0.
          6    2    1    2  501    0  0.11500360790E+03  0.10355237781E+03 -0.33017661823E+03  0.40297527468E+03  0.17153293561E+03 0.  0.
         24    2    5    5    0    0  0.11516818251E+03  0.58454006141E+02 -0.13433121878E+03  0.20194940397E+03  0.77833825074E+02 0.  0.
          5    1    5    5  501    0 -0.16457460968E+00  0.45098371667E+02 -0.19584539945E+03  0.20102587071E+03  0.47000000000E+01 0. -1.
        -11    1    6    6    0    0  0.86709052413E+02  0.46593902260E+02 -0.13945391642E+03  0.17069518535E+03  0.00000000000E+00 0.  1.
         12    1    6    6    0    0  0.28459130101E+02  0.11860103881E+02  0.51226976351E+01  0.31254218615E+02  0.00000000000E+00 0. -1.
         -5    1    3    3    0  503 -0.97584198970E+02 -0.10767655088E+03 -0.93527338609E+01  0.14569309911E+03  0.47000000000E+01 0.  1.
         13    1    4    4    0    0 -0.69317005640E+01 -0.13565713084E+02  0.24118957680E+02  0.28527200419E+02  0.00000000000E+00 0. -1.
        -14    1    4    4    0    0 -0.10487708370E+02  0.17689886156E+02 -0.54505821528E+02  0.58256404622E+02  0.00000000000E+00 0.  1.
</event>
<event>
12    1  0.8417180E-002  0.2434710E+03  0.7818608E-02  0.1117559E+00
         21   -1    0    0  501  502  0.00000000000E+00  0.00000000000E+00  0.57476334090E+03  0.57476334090E+03  0.00000000000E+00 0.  1.
         21   -1    0    0  502  503 -0.00000000000E+00 -0.00000000000E+00 -0.32990496137E+03  0.32990496137E+03  0.00000000000E+00 0. -1.
         -6    2    1    2    0  503  0.32407517556E+02 -0.16946991781E+03 -0.25268895198E+03  0.35089859979E+03  0.17177840564E+03 0.  0.
        -24    2    3    3    0    0 -0.54205788538E+01 -0.16962280359E+03 -0.14583322912E+03  0.23744718393E+03  0.79451597027E+02 0.  0.
          6    2    1    2  501    0 -0.32407517556E+02  0.16946991781E+03  0.49754733151E+03  0.55376970249E+03  0.17128116084E+03 0.  0.
         24    2    5    5    0    0 -0.37337628144E+02  0.16774477548E+03  0.50722831645E+03  0.54180752978E+03  0.82112277614E+02 0.  0.
          5    1    5    5  501    0  0.49301105881E+01  0.17251423292E+01 -0.96809849409E+01  0.11962172708E+02  0.47000000000E+01 0. -1.
        -13    1    6    6    0    0 -0.28339441440E+02  0.52484664079E+02  0.83667822905E+02  0.10275246223E+03  0.00000000000E+00 0.  1.
         14    1    6    6    0    0 -0.89981867035E+01  0.11526011140E+03  0.42356049355E+03  0.43905506755E+03  0.00000000000E+00 0. -1.
         -5    1    3    3    0  503  0.37828096409E+02  0.15288577738E+00 -0.10685572286E+03  0.11345141586E+03  0.47000000000E+01 0.  1.
         11    1    4    4    0    0 -0.41455874656E+02 -0.93660857907E+02 -0.68549419747E+02  0.12324759144E+03  0.00000000000E+00 0. -1.
        -12    1    4    4    0    0  0.36035295802E+02 -0.75961945682E+02 -0.77283809374E+02  0.11419959250E+03  0.00000000000E+00 0.  1.
</event>
<event>
12    1  0.8417180E-002  0.1763334E+03  0.7818608E-02  0.1171536E+00
         21   -1    0    0  501  502  0.00000000000E+00  0.00000000000E+00  0.43089870131E+03  0.43089870131E+03  0.00000000000E+00 0.  1.
         21   -1    0    0  502  503 -0.00000000000E+00 -0.00000000000E+00 -0.73791177080E+02  0.73791177080E+02  0.00000000000E+00 0.  1.
         -6    2    1    2    0  503  0.10433744189E+02 -0.39073220444E+02  0.21829866237E+03  0.28027651296E+03  0.17107027255E+03 0.  0.
        -24    2    3    3    0    0  0.66889825600E+02 -0.23226150458E+02  0.97909552990E+02  0.14628380266E+03  0.82455851951E+02 0.  0.
          6    2    1    2  501    0 -0.10433744189E+02  0.39073220444E+02  0.13880886186E+03  0.22441336543E+03  0.17163297725E+03 0.  0.
         24    2    5    5    0    0 -0.32848558070E+02  0.50667967704E+02  0.22660909042E+02  0.10546253950E+03  0.83441954200E+02 0.  0.
          5    1    5    5  501    0  0.22414813881E+02 -0.11594747260E+02  0.11614795282E+03  0.11895082593E+03  0.47000000000E+01 0. -1.
        -11    1    6    6    0    0 -0.12937029090E+02 -0.13079201721E+02 -0.19241680620E+02  0.26620941238E+02  0.00000000000E+00 0.  1.
         12    1    6    6    0    0 -0.19911528981E+02  0.63747169425E+02  0.41902589663E+02  0.78841598262E+02  0.00000000000E+00 0. -1.
         -5    1    3    3    0  503 -0.56456081411E+02 -0.15847069986E+02  0.12038910938E+03  0.13399271030E+03  0.47000000000E+01 0.  1.
         13    1    4    4    0    0  0.44758826305E+02  0.24878071094E+02  0.27315378285E+02  0.58037925914E+02  0.00000000000E+00 0. -1.
        -14    1    4    4    0    0  0.22130999295E+02 -0.48104221552E+02  0.70594174705E+02  0.88245876749E+02  0.00000000000E+00 0.  1.
</event>
<event>
12    1  0.8417180E-002  0.1912982E+03  0.7818608E-02  0.1157725E+00
         21   -1    0    0  503  502  0.00000000000E+00  0.00000000000E+00  0.50351635297E+03  0.50351635297E+03  0.00000000000E+00 0.  1.
         21   -1    0    0  501  503 -0.00000000000E+00 -0.00000000000E+00 -0.44279581937E+03  0.44279581937E+03  0.00000000000E+00 0. -1.
          6    2    1    2  501    0  0.79870298006E+02  0.28632992545E+02 -0.40267198201E+03  0.44498631848E+03  0.16931918311E+03 0.  0.
         24    2    3    3    0    0 -0.77013765133E+01  0.17346698515E+02 -0.29015860792E+03  0.30188660513E+03  0.81137447931E+02 0.  0.
         -6    2    1    2    0  502 -0.79870298006E+02 -0.28632992545E+02  0.46339251561E+03  0.50132585386E+03  0.17145225416E+03 0.  0.
        -24    2    5    5    0    0 -0.11561805730E+03 -0.38260614543E+01  0.35608624958E+03  0.38543793018E+03  0.91557670143E+02 0.  0.
          5    1    3    3  501    0  0.87571674519E+02  0.11286294030E+02 -0.11251337410E+03  0.14309971335E+03  0.47000000000E+01 0. -1.
        -13    1    4    4    0    0 -0.34536270565E+02  0.54501132224E+01 -0.56867554296E+02  0.66756096727E+02  0.00000000000E+00 0.  1.
         14    1    4    4    0    0  0.26834894051E+02  0.11896585293E+02 -0.23329105362E+03  0.23513050840E+03  0.00000000000E+00 0. -1.
         -5    1    5    5    0  502  0.35747759292E+02 -0.24806931090E+02  0.10730626603E+03  0.11588792368E+03  0.47000000000E+01 0.  1.
         13    1    6    6    0    0 -0.23693481745E+02 -0.15022016710E+02  0.14615255846E+02  0.31633017034E+02  0.00000000000E+00 0. -1.
        -14    1    6    6    0    0 -0.91924575553E+02  0.11195955255E+02  0.34147099373E+03  0.35380491314E+03  0.00000000000E+00 0.  1.
</event>
<event>
12    1  0.8417180E-002  0.2894346E+03  0.7818608E-02  0.1092235E+00
         21   -1    0    0  501  502  0.00000000000E+00  0.00000000000E+00  0.11066386185E+04  0.11066386185E+04  0.00000000000E+00 0. -1.
         21   -1    0    0  502  503 -0.00000000000E+00 -0.00000000000E+00 -0.77929550559E+02  0.77929550559E+02  0.00000000000E+00 0.  1.
         -6    2    1    2    0  503  0.16411584646E+03 -0.14229935424E+03  0.65881835267E+03  0.71489642352E+03  0.17277776844E+03 0.  0.
        -24    2    3    3    0    0  0.11688726639E+03 -0.13495916493E+03  0.62956457492E+03  0.65866217535E+03  0.74884564461E+02 0.  0.
          6    2    1    2  501    0 -0.16411584646E+03  0.14229935424E+03  0.36989071523E+03  0.46967174550E+03  0.19128327169E+03 0.  0.
         24    2    5    5    0    0 -0.10505182689E+03  0.13715916425E+03  0.36303983914E+03  0.40980519003E+03  0.79333765190E+02 0.  0.
          5    1    5    5  501    0 -0.59064019570E+02  0.51401899904E+01  0.68508760923E+01  0.59866555472E+02  0.47000000000E+01 0. -1.
        -13    1    6    6    0    0 -0.18641705741E-01  0.51411412390E+02  0.13555604779E+03  0.14497784577E+03  0.00000000000E+00 0.  1.
         14    1    6    6    0    0 -0.10503318519E+03  0.85747751861E+02  0.22748379134E+03  0.26482734425E+03  0.00000000000E+00 0. -1.
         -5    1    3    3    0  503  0.47228580073E+02 -0.73401893087E+01  0.29253777747E+02  0.56234248170E+02  0.47000000000E+01 0.  1.
         11    1    4    4    0    0  0.34049776044E+02 -0.54672928992E+01  0.65468505337E+02  0.73995971048E+02  0.00000000000E+00 0. -1.
        -12    1    4    4    0    0  0.82837490346E+02 -0.12949187203E+03  0.56409606958E+03  0.58466620430E+03  0.00000000000E+00 0.  1.
</event>
<event>
12    1  0.8417180E-002  0.2665291E+03  0.7818608E-02  0.1104589E+00
         21   -1    0    0  501  502  0.00000000000E+00  0.00000000000E+00  0.93337505604E+02  0.93337505604E+02  0.00000000000E+00 0. -1.
         21   -1    0    0  502  503 -0.00000000000E+00 -0.00000000000E+00 -0.12271176089E+04  0.12271176089E+04  0.00000000000E+00 0.  1.
         -6    2    1    2    0  503 -0.18770624992E+03 -0.44449546083E+02 -0.99020931036E+03  0.10254522015E+04  0.18392482399E+03 0.  0.
        -24    2    3    3    0    0 -0.38922364893E+02 -0.64021325895E+02 -0.30914740027E+03  0.32803760863E+03  0.80142853221E+02 0.  0.
          6    2    1    2  501    0  0.18770624992E+03  0.44449546083E+02 -0.14357079296E+03  0.29500291300E+03  0.17089396619E+03 0.  0.
         24    2    5    5    0    0  0.10623645483E+03 -0.30218340585E+02 -0.12463897641E+03  0.18278382153E+03  0.75337364775E+02 0.  0.
          5    1    5    5  501    0  0.81469795092E+02  0.74667886668E+02 -0.18931816548E+02  0.11221909147E+03  0.47000000000E+01 0. -1.
        -13    1    6    6    0    0 -0.91196733326E+01 -0.14209591599E+02 -0.11606258393E+02  0.20488683925E+02  0.00000000000E+00 0.  1.
         14    1    6    6    0    0  0.11535612816E+03 -0.16008748985E+02 -0.11303271802E+03  0.16229513761E+03  0.00000000000E+00 0. -1.
         -5    1    3    3    0  503 -0.14878388503E+03  0.19571779812E+02 -0.68106191009E+03  0.69741459289E+03  0.47000000000E+01 0.  1.
         13    1    4    4    0    0  0.87576913364E+01  0.58437107632E+01 -0.12443480751E+03  0.12487941157E+03  0.00000000000E+00 0. -1.
        -14    1    4    4    0    0 -0.47680056229E+02 -0.69865036658E+02 -0.18471259276E+03  0.20315819706E+03  0.00000000000E+00 0.  1.
</event>
<event>
12    1  0.8417180E-002  0.1766828E+03  0.7818608E-02  0.1171077E+00
         21   -1    0    0  503  502  0.00000000000E+00  0.00000000000E+00  0.14721630602E+03  0.14721630602E+03  0.00000000000E+00 0.  1.
         21   -1    0    0  501  503 -0.00000000000E+00 -0.00000000000E+00 -0.51313859192E+03  0.51313859192E+03  0.00000000000E+00 0.  1.
          6    2    1    2  501    0  0.22017468685E+02 -0.32733459893E+02 -0.43595005899E+03  0.47039269013E+03  0.17222247434E+03 0.  0.
         24    2    3    3    0    0 -0.65544708404E+01 -0.66226346855E+02 -0.38218557889E+03  0.40074472874E+03  0.10050686939E+03 0.  0.
         -6    2    1    2    0  502 -0.22017468685E+02  0.32733459893E+02  0.70027773095E+02  0.18996220781E+03  0.17212060617E+03 0.  0.
        -24    2    5    5    0    0  0.82228456576E+01  0.49313244718E+02  0.10842825527E+03  0.13813506331E+03  0.69463644311E+02 0.  0.
          5    1    3    3  501    0  0.28571939526E+02  0.33492886962E+02 -0.53764480102E+02  0.69647961391E+02  0.47000000000E+01 0. -1.
        -13    1    4    4    0    0  0.41451800399E+02 -0.54040936357E+01 -0.10757050774E+03  0.11540740929E+03  0.00000000000E+00 0.  1.
         14    1    4    4    0    0 -0.48006271240E+02 -0.60822253219E+02 -0.27461507115E+03  0.28533731945E+03  0.00000000000E+00 0. -1.
         -5    1    5    5    0  502 -0.30240314343E+02 -0.16579784825E+02 -0.38400482171E+02  0.51827144503E+02  0.47000000000E+01 0.  1.
         13    1    6    6    0    0  0.29221115834E+02  0.10141876425E+02  0.14372589024E+02  0.34107221864E+02  0.00000000000E+00 0. -1.
        -14    1    6    6    0    0 -0.20998270176E+02  0.39171368293E+02  0.94055666241E+02  0.10402784145E+03  0.00000000000E+00 0.  1.
</event>
<event>
12    1  0.8417180E-002  0.2351092E+03  0.7818608E-02  0.1123545E+00
         21   -1    0    0  503  502  0.00000000000E+00  0.00000000000E+00  0.40172539034E+02  0.40172539034E+02  0.00000000000E+00 0. -1.
         21   -1    0    0  501  503 -0.00000000000E+00 -0.00000000000E+00 -0.17543124335E+04  0.17543124335E+04  0.00000000000E+00 0. -1.
          6    2    1    2  501    0 -0.94587939991E+02  0.12673445798E+03 -0.12783469402E+04  0.12993164708E+04  0.17042268187E+03 0.  0.
         24    2    3    3    0    0 -0.33230974013E+02  0.21715575496E+02 -0.29062089896E+03  0.30411876907E+03  0.80323439510E+02 0.  0.
         -6    2    1    2    0  502  0.94587939991E+02 -0.12673445798E+03 -0.43579295422E+03  0.49516850171E+03  0.17397656424E+03 0.  0.
        -24    2    5    5    0    0 -0.13923583255E+02 -0.25847407089E+02 -0.18496798150E+03  0.20381269748E+03  0.80402157006E+02 0.  0.
          5    1    3    3  501    0 -0.61356965978E+02  0.10501888248E+03 -0.98772604126E+03  0.99519770173E+03  0.47000000000E+01 0. -1.
        -13    1    4    4    0    0  0.12994618663E+02  0.34886704175E+02 -0.82358762348E+02  0.90382011363E+02  0.00000000000E+00 0.  1.
         14    1    4    4    0    0 -0.46225592676E+02 -0.13171128678E+02 -0.20826213661E+03  0.21373675771E+03  0.00000000000E+00 0. -1.
         -5    1    5    5    0  502  0.10851152325E+03 -0.10088705089E+03 -0.25082497272E+03  0.29135580423E+03  0.47000000000E+01 0.  1.
         11    1    6    6    0    0 -0.24174564443E+02  0.11506859012E+02 -0.17645878411E+02  0.32065470450E+02  0.00000000000E+00 0. -1.
        -12    1    6    6    0    0  0.10250981188E+02 -0.37354266101E+02 -0.16732210309E+03  0.17174722703E+03  0.00000000000E+00 0.  1.
</event>
<event>
12    1  0.8417180E-002  0.2326111E+03  0.7818608E-02  0.1125307E+00
         21   -1    0    0  501  502  0.00000000000E+00  0.00000000000E+00  0.31831241889E+03  0.31831241889E+03  0.00000000000E+00 0. -1.
         21   -1    0    0  502  503 -0.00000000000E+00 -0.00000000000E+00 -0.20943427397E+03  0.20943427397E+03  0.00000000000E+00 0.  1.
         -6    2    1    2    0  503 -0.14073188891E+03 -0.72279963245E+02 -0.62756417888E+02  0.24092801645E+03  0.17052297054E+03 0.  0.
        -24    2    3    3    0    0 -0.30560276733E+01 -0.86918455569E+01 -0.24103760264E+02  0.84357874275E+02  0.80314209260E+02 0.  0.
          6    2    1    2  501    0  0.14073188891E+03  0.72279963245E+02  0.17163456280E+03  0.28681867641E+03  0.16666335033E+03 0.  0.
         24    2    5    5    0    0  0.22819602311E+02 -0.92562774697E+01  0.49617791375E+02  0.98506041699E+02  0.81456136098E+02 0.  0.
          5    1    5    5  501    0  0.11791228660E+03  0.81536240715E+02  0.12201677143E+03  0.18831263471E+03  0.47000000000E+01 0. -1.
        -13    1    6    6    0    0  0.12574124128E+02 -0.71753614889E+01 -0.21886532674E+02  0.26241469520E+02  0.00000000000E+00 0.  1.
         14    1    6    6    0    0  0.10245478183E+02 -0.20809159808E+01  0.71504324049E+02  0.72264572179E+02  0.00000000000E+00 0. -1.
         -5    1    3    3    0  503 -0.13767586124E+03 -0.63588117688E+02 -0.38652657624E+02  0.15657014218E+03  0.47000000000E+01 0.  1.
         11    1    4    4    0    0  0.10637411473E+02 -0.21593935624E+02  0.23211094488E+02  0.33439609536E+02  0.00000000000E+00 0. -1.
        -12    1    4    4    0    0 -0.13693439146E+02  0.12902090068E+02 -0.47314854753E+02  0.50918264739E+02  0.00000000000E+00 0.  1.
</event>
<event>
12    1  0.8417180E-002  0.1896965E+03  0.7818608E-02  0.1158884E+00
         21   -1    0    0  501  502  0.00000000000E+00  0.00000000000E+00  0.11185930310E+04  0.11185930310E+04  0.00000000000E+00 0.  1.
         21   -1    0    0  502  503 -0.00000000000E+00 -0.00000000000E+00 -0.18880132500E+03  0.18880132500E+03  0.00000000000E+00 0.  1.
         -6    2    1    2    0  503  0.35736631852E+02  0.71329061435E+02 -0.13058555245E+03  0.23029841683E+03  0.17210413251E+03 0.  0.
        -24    2    3    3    0    0  0.22895625460E+02 -0.30068624718E+02 -0.56571195373E+02  0.10401857974E+03  0.78684388087E+02 0.  0.
          6    2    1    2  501    0 -0.35736631852E+02 -0.71329061435E+02  0.10603772584E+04  0.10770959391E+04  0.17137908293E+03 0.  0.
         24    2    5    5    0    0 -0.77906562109E+02 -0.59582132861E+02  0.94244099395E+03  0.95120969753E+03  0.83578697163E+02 0.  0.
          5    1    5    5  501    0  0.42169930256E+02 -0.11746928574E+02  0.11793626448E+03  0.12588624162E+03  0.47000000000E+01 0. -1.
        -13    1    6    6    0    0  0.13061027874E+02 -0.18420349130E+02  0.32152529308E+03  0.32231725645E+03  0.00000000000E+00 0.  1.
         14    1    6    6    0    0 -0.90967589982E+02 -0.41161783730E+02  0.62091570087E+03  0.62889244108E+03  0.00000000000E+00 0. -1.
         -5    1    3    3    0  503  0.12841006393E+02  0.10139768615E+03 -0.74014357075E+02  0.12627983709E+03  0.47000000000E+01 0.  1.
         11    1    4    4    0    0  0.14937462560E+00  0.54366179572E+01  0.17752374681E+02  0.18566796557E+02  0.00000000000E+00 0. -1.
        -12    1    4    4    0    0  0.22746250834E+02 -0.35505242675E+02 -0.74323570053E+02  0.85451783187E+02  0.00000000000E+00 0.  1.
</event>
<event>
12    1  0.8417180E-002  0.3070417E+03  0.7818608E-02  0.1081994E+00
         21   -1    0    0  503  502  0.00000000000E+00  0.00000000000E+00  0.11789108150E+04  0.11789108150E+04  0.00000000000E+00 0.  1.
         21   -1    0    0  501  503 -0.00000000000E+00 -0.00000000000E+00 -0.17163154060E+03  0.17163154060E+03  0.00000000000E+00 0.  1.
          6    2    1    2  501    0 -0.25028613991E+03 -0.32148323391E+02  0.81837847697E+01  0.30533118846E+03  0.17170758219E+03 0.  0.
         24    2    3    3    0    0 -0.77542685443E+02  0.12513495840E+02 -0.20985190117E+02  0.12447793785E+03  0.94259870377E+02 0.  0.
         -6    2    1    2    0  502  0.25028613991E+03  0.32148323391E+02  0.99909548966E+03  0.10452111672E+04  0.17492261143E+03 0.  0.
        -24    2    5    5    0    0  0.25867314896E+03  0.38978131162E+02  0.79267677034E+03  0.83845583863E+03  0.78997711303E+02 0.  0.
          5    1    3    3  501    0 -0.17274345447E+03 -0.44661819231E+02  0.29168974887E+02  0.18085325061E+03  0.47000000000E+01 0. -1.
        -11    1    4    4    0    0 -0.71710666245E+02 -0.27882789079E+02 -0.30166136594E+02  0.82642999565E+02  0.00000000000E+00 0.  1.
         12    1    4    4    0    0 -0.58320191983E+01  0.40396284919E+02  0.91809464771E+01  0.41834938286E+02  0.00000000000E+00 0. -1.
         -5    1    5    5    0  502 -0.83870090462E+01 -0.68298077715E+01  0.20641871932E+03  0.20675532855E+03  0.47000000000E+01 0.  1.
         11    1    6    6    0    0  0.16361214502E+03 -0.41960142001E+01  0.40127838649E+03  0.43337153114E+03  0.00000000000E+00 0. -1.
        -12    1    6    6    0    0  0.95061003939E+02  0.43174145363E+02  0.39139838385E+03  0.40508430749E+03  0.00000000000E+00 0.  1.
</event>
<event>
12    1  0.8417180E-002  0.1821423E+03  0.7818608E-02  0.1166468E+00
         21   -1    0    0  503  502  0.00000000000E+00  0.00000000000E+00  0.19905569907E+03  0.19905569907E+03  0.00000000000E+00 0. -1.
         21   -1    0    0  501  503 -0.00000000000E+00 -0.00000000000E+00 -0.18155175254E+03  0.18155175254E+03  0.00000000000E+00 0. -1.
          6    2    1    2  501    0 -0.11809520333E+02 -0.58038562156E+02 -0.50474820242E+02  0.18900665689E+03  0.17224363386E+03 0.  0.
         24    2    3    3    0    0  0.60994988970E+02 -0.30067736999E+02  0.12345125196E+02  0.88750489104E+02  0.55675755158E+02 0.  0.
         -6    2    1    2    0  502  0.11809520333E+02  0.58038562156E+02  0.67978766772E+02  0.19160079472E+03  0.16906156376E+03 0.  0.
        -24    2    5    5    0    0 -0.42535722408E+02  0.66271189703E+02  0.12774031779E+02  0.11355699721E+03  0.80813720753E+02 0.  0.
          5    1    3    3  501    0 -0.72804509304E+02 -0.27970825157E+02 -0.62819945438E+02  0.10025616779E+03  0.47000000000E+01 0. -1.
        -11    1    4    4    0    0  0.69929184942E+01  0.15123644366E+02  0.71847734879E+01  0.18145150814E+02  0.00000000000E+00 0.  1.
         12    1    4    4    0    0  0.54002070476E+02 -0.45191381365E+02  0.51603517079E+01  0.70605338291E+02  0.00000000000E+00 0. -1.
         -5    1    5    5    0  502  0.54345242741E+02 -0.82326275475E+01  0.55204734993E+02  0.78043797515E+02  0.47000000000E+01 0.  1.
         11    1    6    6    0    0  0.68503398963E+01  0.50914148955E+01  0.31580647284E+02  0.32713711884E+02  0.00000000000E+00 0. -1.
        -12    1    6    6    0    0 -0.49386062304E+02  0.61179774808E+02 -0.18806615506E+02  0.80843285325E+02  0.00000000000E+00 0.  1.
</event>
<event>
12    1  0.8417180E-002  0.2369618E+03  0.7818608E-02  0.1122081E+00
         21   -1    0    0  503  502  0.00000000000E+00  0.00000000000E+00  0.10644931739E+03  0.10644931739E+03  0.00000000000E+00 0. -1.
         21   -1    0    0  501  503 -0.00000000000E+00 -0.00000000000E+00 -0.52978068061E+03  0.52978068061E+03  0.00000000000E+00 0. -1.
          6    2    1    2  501    0  0.14977143057E+03  0.62366108458E+02 -0.17980168137E+03  0.29745512131E+03  0.17271332221E+03 0.  0.
         24    2    3    3    0    0  0.15935258389E+03  0.11559856159E+02 -0.15411079874E+03  0.23953116062E+03  0.89989790257E+02 0.  0.
         -6    2    1    2    0  502 -0.14977143057E+03 -0.62366108458E+02 -0.24352968185E+03  0.33877487670E+03  0.17070646807E+03 0.  0.
        -24    2    5    5    0    0 -0.17238688519E+03 -0.75127797601E+02 -0.23534995595E+03  0.31114667709E+03  0.77853893546E+02 0.  0.
          5    1    3    3  501    0 -0.95811533224E+01  0.50806252299E+02 -0.25690882632E+02  0.57923960691E+02  0.47000000000E+01 0. -1.
        -13    1    4    4    0    0  0.11062947483E+02  0.27100916552E+02 -0.49093977051E+02  0.57158263337E+02  0.00000000000E+00 0.  1.
         14    1    4    4    0    0  0.14828963641E+03 -0.15541060394E+02 -0.10501682169E+03  0.18237289728E+03  0.00000000000E+00 0. -1.
         -5    1    5    5    0  502  0.22615454624E+02  0.12761689143E+02 -0.81797258943E+01  0.27628199604E+02  0.47000000000E+01 0.  1.
         11    1    6    6    0    0 -0.64818015137E+02  0.27517100572E+01 -0.11443136783E+03  0.13154271146E+03  0.00000000000E+00 0. -1.
        -12    1    6    6    0    0 -0.10756887006E+03 -0.77879507658E+02 -0.12091858813E+03  0.17960396564E+03  0.00000000000E+00 0.  1.
</event>
<event>
12    1  0.8417180E-002  0.2112472E+03  0.7818608E-02  0.1140909E+00
         21   -1    0    0  503  502  0.00000000000E+00  0.00000000000E+00  0.39283173668E+03  0.39283173668E+03  0.00000000000E+00 0. -1.
         21   -1    0    0  501  503 -0.00000000000E+00 -0.00000000000E+00 -0.18986087702E+03  0.18986087702E+03  0.00000000000E+00 0. -1.
          6    2    1    2  501    0 -0.40251041138E+01 -0.11898774289E+03 -0.83997154365E+02  0.22733429981E+03  0.17450237107E+03 0.  0.
         24    2    3    3    0    0 -0.72073421510E+02 -0.67290967058E+02 -0.41689901514E+02  0.13186114245E+03  0.76984808016E+02 0.  0.
         -6    2    1    2    0  502  0.40251041138E+01  0.11898774289E+03  0.28696801402E+03  0.35535831388E+03  0.17249523400E+03 0.  0.
        -24    2    5    5    0    0 -0.12032468408E+02  0.10471034584E+03  0.30134596034E+03  0.32908085126E+03  0.79848494219E+02 0.  0.
          5    1    3    3  501    0  0.68048317396E+02 -0.51696775832E+02 -0.42307252851E+02  0.95473157357E+02  0.47000000000E+01 0. -1.
        -13    1    4    4    0    0 -0.82971634079E+01  0.17242272020E+02 -0.48113297829E+01  0.19730376563E+02  0.00000000000E+00 0.  1.
         14    1    4    4    0    0 -0.63776258102E+02 -0.84533239078E+02 -0.36878571731E+02  0.11213076589E+03  0.00000000000E+00 0. -1.
         -5    1    5    5    0  502  0.16057572522E+02  0.14277397048E+02 -0.14377946317E+02  0.26277462626E+02  0.47000000000E+01 0.  1.
         13    1    6    6    0    0 -0.31815107938E+02  0.27866196162E+02  0.17375579172E+03  0.17882897175E+03  0.00000000000E+00 0. -1.
        -14    1    6    6    0    0  0.19782639530E+02  0.76844149679E+02  0.12759016863E+03  0.15025187951E+03  0.00000000000E+00 0.  1.
</event>
<event>
12    1  0.8417180E-002  0.1859243E+03  0.7818608E-02  0.1163635E+00
         21   -1    0    0  503  502  0.00000000000E+00  0.00000000000E+00  0.30705896723E+03  0.30705896723E+03  0.00000000000E+00 0. -1.
         21   -1    0    0  501  503 -0.00000000000E+00 -0.00000000000E+00 -0.10891242911E+03  0.10891242911E+03  0.00000000000E+00 0. -1.
          6    2    1    2  501    0 -0.44284825342E+02  0.29325075056E+02  0.99527110178E+02  0.20551083954E+03  0.17177879300E+03 0.  0.
         24    2    3    3    0    0 -0.82908761457E+02 -0.59529482899E+01  0.28372622870E+02  0.11707216905E+03  0.77405340378E+02 0.  0.
         -6    2    1    2    0  502  0.44284825342E+02 -0.29325075056E+02  0.98619427941E+02  0.21046055681E+03  0.17817617300E+03 0.  0.
        -24    2    5    5    0    0 -0.43194650350E+02 -0.21002593578E+02  0.39399304124E+02  0.10438965868E+03  0.83892841877E+02 0.  0.
          5    1    3    3  501    0  0.38623936115E+02  0.35278023346E+02  0.71154487308E+02  0.88438670481E+02  0.47000000000E+01 0. -1.
        -11    1    4    4    0    0 -0.33894498068E+02  0.31148364098E+02 -0.63525141515E+01  0.46469474080E+02  0.00000000000E+00 0.  1.
         12    1    4    4    0    0 -0.49014263389E+02 -0.37101312388E+02  0.34725137022E+02  0.70602694975E+02  0.00000000000E+00 0. -1.
         -5    1    5    5    0  502  0.87479475692E+02 -0.83224814782E+01  0.59220123817E+02  0.10607089813E+03  0.47000000000E+01 0.  1.
         11    1    6    6    0    0 -0.10733307589E+02 -0.20756275675E+01 -0.26423924568E+02  0.28596082095E+02  0.00000000000E+00 0. -1.
        -12    1    6    6    0    0 -0.32461342761E+02 -0.18926966011E+02  0.65823228692E+02  0.75793576586E+02  0.00000000000E+00 0.  1.
</event>
<event>
12    1  0.8417180E-002  0.1787173E+03  0.7818608E-02  0.1170774E+00
         21   -1    0    0  501  502  0.00000000000E+00  0.00000000000E+00  0.34436143501E+03  0.34436143501E+03  0.00000000000E+00 0. -1.
         21   -1    0    0  502  503 -0.00000000000E+00 -0.00000000000E+00 -0.23579568931E+03  0.23579568931E+03  0.00000000000E+00 0. -1.
         -6    2    1    2    0  503 -0.17297046665E+01 -0.73196962091E+01 -0.17482779582E+03  0.24511717371E+03  0.17164236314E+03 0.  0.
        -24    2    3    3    0    0  0.12203644497E+02 -0.49176326247E+02 -0.17663534539E+03  0.20071590197E+03  0.80743966094E+02 0.  0.
          6    2    1    2  501    0  0.17297046665E+01  0.73196962091E+01  0.28339354152E+03  0.33503995061E+03  0.17855895190E+03 0.  0.
         24    2    5    5    0    0 -0.43195237359E+02 -0.40831444578E+02  0.22757822100E+03  0.24858636318E+03  0.80438161908E+02 0.  0.
          5    1    5    5  501    0  0.44924942026E+02  0.48151140787E+02  0.55815320519E+02  0.86453587431E+02  0.47000000000E+01 0. -1.
        -11    1    6    6    0    0 -0.27517700417E+01 -0.61992755262E+01 -0.59759714837E+01  0.90396620836E+01  0.00000000000E+00 0.  1.
         12    1    6    6    0    0 -0.40443467317E+02 -0.34632169052E+02  0.23355419248E+03  0.23954670110E+03  0.00000000000E+00 0. -1.
         -5    1    3    3    0  503 -0.13933349163E+02  0.41856630038E+02  0.18075495667E+01  0.44401271743E+02  0.47000000000E+01 0.  1.
         13    1    4    4    0    0 -0.23827478239E+02 -0.96905536068E+01 -0.12044566712E+03  0.12316174031E+03  0.00000000000E+00 0. -1.
        -14    1    4    4    0    0  0.36031122735E+02 -0.39485772640E+02 -0.56189678266E+02  0.77554161656E+02  0.00000000000E+00 0.  1.
</event>
<event>
12    1  0.8417180E-002  0.1933623E+03  0.7818608E-02  0.1155821E+00
         21   -1    0    0  503  502  0.00000000000E+00  0.00000000000E+00  0.21064468625E+03  0.21064468625E+03  0.00000000000E+00 0. -1.
         21   -1    0    0  501  503 -0.00000000000E+00 -0.00000000000E+00 -0.21296213629E+03  0.21296213629E+03  0.00000000000E+00 0. -1.
          6    2    1    2  501    0  0.85899099582E+02  0.78807791036E+01  0.87055842785E+02  0.21205590633E+03  0.17305555657E+03 0.  0.
         24    2    3    3    0    0 -0.12284337878E+02  0.22852888064E+02  0.72977979263E+02  0.11163465520E+03  0.80394970823E+02 0.  0.
         -6    2    1    2    0  502 -0.85899099582E+02 -0.78807791036E+01 -0.89373292817E+02  0.21155091621E+03  0.17124673046E+03 0.  0.
        -24    2    5    5    0    0 -0.88490206658E+02 -0.25193344086E+02 -0.74073825614E+00  0.12108402464E+03  0.78711949979E+02 0.  0.
          5    1    3    3  501    0  0.98183437460E+02 -0.14972108961E+02  0.14077863522E+02  0.10042125114E+03  0.47000000000E+01 0. -1.
        -11    1    4    4    0    0  0.10595291188E+02  0.28139200909E+02  0.81330851178E+02  0.86710911519E+02  0.00000000000E+00 0.  1.
         12    1    4    4    0    0 -0.22879629066E+02 -0.52863128447E+01 -0.83528719149E+01  0.24923743678E+02  0.00000000000E+00 0. -1.
         -5    1    5    5    0  502  0.25911070757E+01  0.17312564983E+02 -0.88632554561E+02  0.90466891569E+02  0.47000000000E+01 0.  1.
         11    1    6    6    0    0 -0.73645676060E+02 -0.22068073829E+01  0.30334153685E+02  0.79678833330E+02  0.00000000000E+00 0. -1.
        -12    1    6    6    0    0 -0.14844530598E+02 -0.22986536703E+02 -0.31074891941E+02  0.41405191310E+02  0.00000000000E+00 0.  1.
</event>
<event>
12    1  0.8417180E-002  0.2080655E+03  0.7818608E-02  0.1143510E+00
         21   -1    0    0  501  502  0.00000000000E+00  0.00000000000E+00  0.28168012923E+03  0.28168012923E+03  0.00000000000E+00 0.  1.
         21   -1    0    0  502  503 -0.00000000000E+00 -0.00000000000E+00 -0.54100262853E+03  0.54100262853E+03  0.00000000000E+00 0. -1.
         -6    2    1    2    0  503  0.10864394174E+03  0.30265444613E+02 -0.47854256834E+03  0.52181819658E+03  0.17484775479E+03 0.  0.
        -24    2    3    3    0    0  0.12078693006E+03 -0.13078202828E+02 -0.24699647222E+03  0.28589064718E+03  0.77237833952E+02 0.  0.
          6    2    1    2  501    0 -0.10864394174E+03 -0.30265444613E+02  0.21922006904E+03  0.30086456117E+03  0.17246026292E+03 0.  0.
         24    2    5    5    0    0 -0.35143311271E+02  0.24548505769E+02  0.18057088564E+03  0.20125150373E+03  0.77837276088E+02 0.  0.
          5    1    5    5  501    0 -0.73500630471E+02 -0.54813950382E+02  0.38649183395E+02  0.99613057443E+02  0.47000000000E+01 0. -1.
        -13    1    6    6    0    0 -0.53689627265E+02 -0.47221643512E+00  0.14111685993E+03  0.15098598353E+03  0.00000000000E+00 0.  1.
         14    1    6    6    0    0  0.18546315994E+02  0.25020722204E+02  0.39454025711E+02  0.50265520204E+02  0.00000000000E+00 0. -1.
         -5    1    3    3    0  503 -0.12142988315E+02  0.43343647441E+02 -0.23154609612E+03  0.23592754940E+03  0.47000000000E+01 0.  1.
         13    1    4    4    0    0  0.94728870114E+02 -0.37324221971E+02 -0.21558495201E+03  0.23841880780E+03  0.00000000000E+00 0. -1.
        -14    1    4    4    0    0  0.26058059944E+02  0.24246019143E+02 -0.31411520208E+02  0.47471839380E+02  0.00000000000E+00 0.  1.
</event>
<event>
12    1  0.8417180E-002  0.2051545E+03  0.7818608E-02  0.1145667E+00
         21   -1    0    0  501  502  0.00000000000E+00  0.00000000000E+00  0.65713718140E+03  0.65713718140E+03  0.00000000000E+00 0. -1.
         21   -1    0    0  502  503 -0.00000000000E+00 -0.00000000000E+00 -0.76007220299E+02  0.76007220299E+02  0.00000000000E+00 0. -1.
         -6    2    1    2    0  503  0.10190177116E+03 -0.45148643264E+02  0.14386915372E+03  0.25057273277E+03  0.17223817830E+03 0.  0.
        -24    2    3    3    0    0  0.11322869198E+03 -0.70996598554E+02  0.68933108487E+02  0.17036103286E+03  0.80061566174E+02 0.  0.
          6    2    1    2  501    0 -0.10190177116E+03  0.45148643264E+02  0.43726080739E+03  0.48257166893E+03  0.17104394472E+03 0.  0.
         24    2    5    5    0    0 -0.33993179722E+02 -0.15422602381E+02  0.10350868267E+03  0.13660487379E+03  0.80953389197E+02 0.  0.
          5    1    5    5  501    0 -0.67908591433E+02  0.60571245645E+02  0.33375212472E+03  0.34596679514E+03  0.47000000000E+01 0. -1.
        -13    1    6    6    0    0  0.16904830330E+02 -0.18336580479E+02  0.73113812639E+02  0.77250456767E+02  0.00000000000E+00 0.  1.
         14    1    6    6    0    0 -0.50898010052E+02  0.29139780984E+01  0.30394870034E+02  0.59354417022E+02  0.00000000000E+00 0. -1.
         -5    1    3    3    0  503 -0.11326920821E+02  0.25847955290E+02  0.74936045229E+02  0.80211699911E+02  0.47000000000E+01 0.  1.
         13    1    4    4    0    0  0.15693936958E+02 -0.30783055293E+02 -0.12860095066E+02  0.36868390194E+02  0.00000000000E+00 0. -1.
        -14    1    4    4    0    0  0.97534755018E+02 -0.40213543262E+02  0.81793203554E+02  0.13349264266E+03  0.00000000000E+00 0.  1.
</event>
<event>
12    1  0.8417180E-002  0.1758047E+03  0.7818608E-02  0.1171929E+00
         21   -1    0    0  503  502  0.00000000000E+00  0.00000000000E+00  0.14634725137E+04  0.14634725137E+04  0.00000000000E+00 0.  1.
         21   -1    0    0  501  503 -0.00000000000E+00 -0.00000000000E+00 -0.30571361032E+02  0.30571361032E+02  0.00000000000E+00 0.  1.
          6    2    1    2  501    0  0.51738441092E+01 -0.31637260925E+02  0.30101952620E+03  0.34859055787E+03  0.17284367776E+03 0.  0.
         24    2    3    3    0    0 -0.42163572316E+02 -0.73804685975E+02  0.23436179256E+03  0.25648048142E+03  0.60265156074E+02 0.  0.
         -6    2    1    2    0  502 -0.51738441092E+01  0.31637260925E+02  0.11318816264E+04  0.11454533168E+04  0.17285716598E+03 0.  0.
        -24    2    5    5    0    0 -0.28213170755E+02  0.46942800513E+02  0.33814321961E+03  0.35121920866E+03  0.77553117523E+02 0.  0.
          5    1    3    3  501    0  0.47337416425E+02  0.42167425050E+02  0.66657733643E+02  0.92110076450E+02  0.47000000000E+01 0. -1.
        -11    1    4    4    0    0  0.76820923709E+01 -0.47842945131E+01  0.23632797663E+01  0.93535612703E+01  0.00000000000E+00 0.  1.
         12    1    4    4    0    0 -0.49845664687E+02 -0.69020391462E+02  0.23199851279E+03  0.24712692015E+03  0.00000000000E+00 0. -1.
         -5    1    5    5    0  502  0.23039326645E+02 -0.15305539588E+02  0.79373840683E+03  0.79423410818E+03  0.47000000000E+01 0.  1.
         11    1    6    6    0    0 -0.27603213956E+02 -0.14452657127E+02  0.15365921565E+03  0.15678638740E+03  0.00000000000E+00 0. -1.
        -12    1    6    6    0    0 -0.60995679845E+00  0.61395457640E+02  0.18448400396E+03  0.19443282126E+03  0.00000000000E+00 0.  1.
</event>
<event>
12    1  0.8417180E-002  0.1735475E+03  0.7818608E-02  0.1174450E+00
         21   -1    0    0  501  502  0.00000000000E+00  0.00000000000E+00  0.15162303817E+03  0.15162303817E+03  0.00000000000E+00 0. -1.
         21   -1    0    0  502  503 -0.00000000000E+00 -0.00000000000E+00 -0.30500179604E+03  0.30500179604E+03  0.00000000000E+00 0. -1.
         -6    2    1    2    0  503 -0.13553055831E+02 -0.82307685634E+01 -0.21208660681E+03  0.27341635138E+03  0.17182648673E+03 0.  0.
        -24    2    3    3    0    0 -0.43761357529E+02 -0.48605291880E+02 -0.19333590236E+03  0.21941336497E+03  0.80535226905E+02 0.  0.
          6    2    1    2  501    0  0.13553055831E+02  0.82307685634E+01  0.58707848933E+02  0.18320848282E+03  0.17282160102E+03 0.  0.
         24    2    5    5    0    0  0.62376548160E+02  0.10431853766E+02 -0.12837705432E+02  0.96436168526E+02  0.71662197746E+02 0.  0.
          5    1    5    5  501    0 -0.48823492329E+02 -0.22010852027E+01  0.71545554365E+02  0.86772314298E+02  0.47000000000E+01 0. -1.
        -11    1    6    6    0    0 -0.31948209531E+01  0.11410279347E+02 -0.26875686539E+02  0.29371821235E+02  0.00000000000E+00 0.  1.
         12    1    6    6    0    0  0.65571369113E+02 -0.97842558059E+00  0.14037981107E+02  0.67064347291E+02  0.00000000000E+00 0. -1.
         -5    1    3    3    0  503  0.30208301697E+02  0.40374523317E+02 -0.18750704446E+02  0.54002986415E+02  0.47000000000E+01 0.  1.
         13    1    4    4    0    0 -0.23102938203E+02 -0.20660857712E+02 -0.17925966865E+03  0.18191933817E+03  0.00000000000E+00 0. -1.
        -14    1    4    4    0    0 -0.20658419326E+02 -0.27944434168E+02 -0.14076233710E+02  0.37494026797E+02  0.00000000000E+00 0.  1.
</event>
<event>
12    1  0.8417180E-002  0.1902297E+03  0.7818608E-02  0.1158775E+00
         21   -1    0    0  501  502  0.00000000000E+00  0.00000000000E+00  0.89941739356E+02  0.89941739356E+02  0.00000000000E+00 0. -1.
         21   -1    0    0  502  503 -0.00000000000E+00 -0.00000000000E+00 -0.41283103453E+03  0.41283103453E+03  0.00000000000E+00 0. -1.
         -6    2    1    2    0  503  0.78049034272E+02  0.37196497911E+01 -0.21083478466E+03  0.28396942967E+03  0.17344118028E+03 0.  0.
        -24    2    3    3    0    0  0.56705143281E+02  0.50436759506E+02 -0.20591300216E+03  0.23215858171E+03  0.75750264813E+02 0.  0.
          6    2    1    2  501    0 -0.78049034272E+02 -0.37196497911E+01 -0.11205451052E+03  0.21880334422E+03  0.17091870164E+03 0.  0.
         24    2    5    5    0    0 -0.44260961966E+02 -0.34951772529E+02 -0.13507330764E+03  0.16714064645E+03  0.80687905546E+02 0.  0.
          5    1    5    5  501    0 -0.33788072306E+02  0.31232122738E+02  0.23018797120E+02  0.51662697778E+02  0.47000000000E+01 0. -1.
        -11    1    6    6    0    0  0.23215423054E+02 -0.45547722982E+01 -0.24252963102E+02  0.33880791572E+02  0.00000000000E+00 0.  1.
         12    1    6    6    0    0 -0.67476385020E+02 -0.30397000230E+02 -0.11082034453E+03  0.13325985487E+03  0.00000000000E+00 0. -1.
         -5    1    3    3    0  503  0.21343890991E+02 -0.46717109715E+02 -0.49217825015E+01  0.51810847954E+02  0.47000000000E+01 0.  1.
         11    1    4    4    0    0  0.17846451441E+02 -0.83472917416E+01 -0.11729818919E+03  0.11894132291E+03  0.00000000000E+00 0. -1.
        -12    1    4    4    0    0  0.38858691840E+02  0.58784051248E+02 -0.88614812973E+02  0.11321725880E+03  0.00000000000E+00 0.  1.
</event>
<event>
12    1  0.8417180E-002  0.2256083E+03  0.7818608E-02  0.1130282E+00
         21   -1    0    0  503  502  0.00000000000E+00  0.00000000000E+00  0.22354824892E+03  0.22354824892E+03  0.00000000000E+00 0. -1.
         21   -1    0    0  501  503 -0.00000000000E+00 -0.00000000000E+00 -0.23379737786E+03  0.23379737786E+03  0.00000000000E+00 0.  1.
          6    2    1    2  501    0 -0.13807165816E+03 -0.48312103365E+02  0.39646628491E+02  0.22628567893E+03  0.16803425609E+03 0.  0.
         24    2    3    3    0    0 -0.10780413326E+03 -0.21838589796E+02 -0.36189147894E+02  0.14031984290E+03  0.79254960320E+02 0.  0.
         -6    2    1    2    0  502  0.13807165816E+03  0.48312103365E+02 -0.49895757430E+02  0.23105994785E+03  0.17175933969E+03 0.  0.
        -24    2    5    5    0    0  0.12638086506E+02 -0.12025853063E+02 -0.54290144414E+00  0.83303241475E+02  0.81454238231E+02 0.  0.
          5    1    3    3  501    0 -0.30267524905E+02 -0.26473513569E+02  0.75835776385E+02  0.85965836031E+02  0.47000000000E+01 0. -1.
        -11    1    4    4    0    0 -0.74641356115E+02 -0.50904830239E+02 -0.32705047471E+02  0.96084618511E+02  0.00000000000E+00 0.  1.
         12    1    4    4    0    0 -0.33162777142E+02  0.29066240443E+02 -0.34841004229E+01  0.44235224392E+02  0.00000000000E+00 0. -1.
         -5    1    5    5    0  502  0.12543357166E+03  0.60337956428E+02 -0.49352855986E+02  0.14775670637E+03  0.47000000000E+01 0.  1.
         11    1    6    6    0    0 -0.34688745030E+02 -0.32423581332E+01 -0.38653206985E+01  0.35053710533E+02  0.00000000000E+00 0. -1.
        -12    1    6    6    0    0  0.47326831536E+02 -0.87834949298E+01  0.33224192544E+01  0.48249530942E+02  0.00000000000E+00 0.  1.
</event>
<event>
12    1  0.8417180E-002  0.3589884E+03  0.7818608E-02  0.1059469E+00
         21   -1    0    0  501  502  0.00000000000E+00  0.00000000000E+00  0.25410001467E+03  0.25410001467E+03  0.00000000000E+00 0.  1.
         21   -1    0    0  502  503 -0.00000000000E+00 -0.00000000000E+00 -0.62351397714E+03  0.62351397714E+03  0.00000000000E+00 0. -1.
         -6    2    1    2    0  503  0.30015404651E+03  0.93657962267E+02 -0.37871634674E+03  0.51850504988E+03  0.16296364602E+03 0.  0.
        -24    2    3    3    0    0  0.18005696324E+03  0.11391487148E+03 -0.20333445124E+03  0.30492941678E+03  0.78993304797E+02 0.  0.
          6    2    1    2  501    0 -0.30015404651E+03 -0.93657962267E+02  0.93023842755E+01  0.35910894193E+03  0.17322942096E+03 0.  0.
         24    2    5    5    0    0 -0.10892321099E+03  0.16938038671E+02 -0.17984384070E+02  0.13647164585E+03  0.78421355538E+02 0.  0.
          5    1    5    5  501    0 -0.19123083553E+03 -0.11059600094E+03  0.27286768346E+02  0.22263729608E+03  0.47000000000E+01 0. -1.
        -11    1    6    6    0    0 -0.79679212318E+02  0.15279305926E+02  0.24606847706E+02  0.84780487255E+02  0.00000000000E+00 0.  1.
         12    1    6    6    0    0 -0.29243998668E+02  0.16587327452E+01 -0.42591231776E+02  0.51691158592E+02  0.00000000000E+00 0. -1.
         -5    1    3    3    0  503  0.12009708327E+03 -0.20256909211E+02 -0.17538189551E+03  0.21357563310E+03  0.47000000000E+01 0.  1.
         13    1    4    4    0    0  0.15914261866E+03  0.80187462540E+02 -0.19540237369E+03  0.26445886233E+03  0.00000000000E+00 0. -1.
        -14    1    4    4    0    0  0.20914344582E+02  0.33727408938E+02 -0.79320775433E+01  0.40470554446E+02  0.00000000000E+00 0.  1.
</event>
<event>
12    1  0.8417180E-002  0.2951146E+03  0.7818608E-02  0.1088235E+00
         21   -1    0    0  503  502  0.00000000000E+00  0.00000000000E+00  0.69683515921E+03  0.69683515921E+03  0.00000000000E+00 0.  1.
         21   -1    0    0  501  503 -0.00000000000E+00 -0.00000000000E+00 -0.12912312362E+03  0.12912312362E+03  0.00000000000E+00 0.  1.
          6    2    1    2  501    0 -0.22824401112E+03  0.70472486115E+02  0.19772322816E+03  0.35522824978E+03  0.17329435817E+03 0.  0.
         24    2    3    3    0    0 -0.25037384078E+03  0.62369116156E+02  0.17411446151E+03  0.32154059880E+03  0.80594938904E+02 0.  0.
         -6    2    1    2    0  502  0.22824401112E+03 -0.70472486115E+02  0.36998880742E+03  0.47073003305E+03  0.16623280811E+03 0.  0.
        -24    2    5    5    0    0  0.18832734480E+03 -0.22392860639E+02  0.34804036129E+03  0.40433112551E+03  0.79893284810E+02 0.  0.
          5    1    3    3  501    0  0.22129829657E+02  0.81033699588E+01  0.23608766656E+02  0.33687650977E+02  0.47000000000E+01 0. -1.
        -11    1    4    4    0    0 -0.95413615874E+02  0.14398486205E+02  0.21588580940E+02  0.98879428226E+02  0.00000000000E+00 0.  1.
         12    1    4    4    0    0 -0.15496022490E+03  0.47970629951E+02  0.15252588057E+03  0.22266117058E+03  0.00000000000E+00 0. -1.
         -5    1    5    5    0  502  0.39916666319E+02 -0.48079625475E+02  0.21948446127E+02  0.66398907545E+02  0.47000000000E+01 0.  1.
         11    1    6    6    0    0  0.43491354385E+02  0.26378664781E+02  0.63647244601E+02  0.81475785404E+02  0.00000000000E+00 0. -1.
        -12    1    6    6    0    0  0.14483599041E+03 -0.48771525420E+02  0.28439311669E+03  0.32285534010E+03  0.00000000000E+00 0.  1.
</event>
<event>
12    1  0.8417180E-002  0.3414270E+03  0.7818608E-02  0.1066317E+00
         21   -1    0    0  501  502  0.00000000000E+00  0.00000000000E+00  0.22914587110E+03  0.22914587110E+03  0.00000000000E+00 0. -1.
         21   -1    0    0  502  503 -0.00000000000E+00 -0.00000000000E+00 -0.50722166652E+03  0.50722166652E+03  0.00000000000E+00 0. -1.
         -6    2    1    2    0  503  0.29151309498E+03  0.32366484373E+02 -0.13067298916E+03  0.36557875489E+03  0.17477105617E+03 0.  0.
        -24    2    3    3    0    0  0.75944968461E+02 -0.34347517822E+02 -0.33271557533E+02  0.11975462234E+03  0.79289235189E+02 0.  0.
          6    2    1    2  501    0 -0.29151309498E+03 -0.32366484373E+02 -0.14740280626E+03  0.37078878273E+03  0.17242175108E+03 0.  0.
         24    2    5    5    0    0 -0.19371581649E+03  0.46233182349E+02 -0.91737527259E+02  0.23344640553E+03  0.80113205133E+02 0.  0.
          5    1    5    5  501    0 -0.97797278489E+02 -0.78599666722E+02 -0.55665279005E+02  0.13734237720E+03  0.47000000000E+01 0. -1.
        -11    1    6    6    0    0 -0.37031974169E+02  0.25973262772E+02  0.89385844244E+01  0.46107220491E+02  0.00000000000E+00 0.  1.
         12    1    6    6    0    0 -0.15668384232E+03  0.20259919576E+02 -0.10067611168E+03  0.18733918504E+03  0.00000000000E+00 0. -1.
         -5    1    3    3    0  503  0.21556812652E+03  0.66714002195E+02 -0.97401431623E+02  0.24582413255E+03  0.47000000000E+01 0.  1.
         11    1    4    4    0    0  0.23499169708E+02 -0.22237804605E+02 -0.53277237977E+02  0.62331332547E+02  0.00000000000E+00 0. -1.
        -12    1    4    4    0    0  0.52445798753E+02 -0.12109713217E+02  0.20005680444E+02  0.57423289796E+02  0.00000000000E+00 0.  1.
</event>
<event>
12    1  0.8417180E-002  0.1872042E+03  0.7818608E-02  0.1162202E+00
         21   -1    0    0  503  502  0.00000000000E+00  0.00000000000E+00  0.26322948378E+02  0.26322948378E+02  0.00000000000E+00 0.  1.
         21   -1    0    0  501  503 -0.00000000000E+00 -0.00000000000E+00 -0.14263138189E+04  0.14263138189E+04  0.00000000000E+00 0.  1.
          6    2    1    2  501    0 -0.54152830288E+02  0.13402186980E+02 -0.92898947810E+03  0.94766389436E+03  0.17869879297E+03 0.  0.
         24    2    3    3    0    0 -0.31428727698E+02 -0.44735855648E+02 -0.78044487287E+03  0.78646834051E+03  0.80306844815E+02 0.  0.
         -6    2    1    2    0  502  0.54152830288E+02 -0.13402186980E+02 -0.47100139240E+03  0.50497287289E+03  0.17332957934E+03 0.  0.
        -24    2    5    5    0    0 -0.10018047143E+02  0.33548737317E+02 -0.13297493525E+03  0.15768874350E+03  0.77185020409E+02 0.  0.
          5    1    3    3  501    0 -0.22724102590E+02  0.58138042628E+02 -0.14854460523E+03  0.16119555385E+03  0.47000000000E+01 0. -1.
        -11    1    4    4    0    0  0.90815388219E+01 -0.42060520454E+02 -0.59869317423E+03  0.60023751848E+03  0.00000000000E+00 0.  1.
         12    1    4    4    0    0 -0.40510266520E+02 -0.26753351942E+01 -0.18175169864E+03  0.18623082202E+03  0.00000000000E+00 0. -1.
         -5    1    5    5    0  502  0.64170877431E+02 -0.46950924296E+02 -0.33802645714E+03  0.34728412940E+03  0.47000000000E+01 0.  1.
         13    1    6    6    0    0  0.86604723763E+01 -0.22618714485E+02 -0.52223303363E+02  0.57566339478E+02  0.00000000000E+00 0. -1.
        -14    1    6    6    0    0 -0.18678519519E+02  0.56167451802E+02 -0.80751631890E+02  0.10012240402E+03  0.00000000000E+00 0.  1.
</event>
<event>
12    1  0.8417180E-002  0.1784055E+03  0.7818608E-02  0.1170047E+00
         21   -1    0    0  503  502  0.00000000000E+00  0.00000000000E+00  0.98354543478E+02  0.98354543478E+02  0.00000000000E+00 0.  1.
         21   -1    0    0  501  503 -0.00000000000E+00 -0.00000000000E+00 -0.39114677144E+03  0.39114677144E+03  0.00000000000E+00 0.  1.
          6    2    1    2  501    0  0.18004109393E+02  0.43380366262E+02 -0.25089435522E+03  0.30624206420E+03  0.16920466978E+03 0.  0.
         24    2    3    3    0    0  0.34501072791E+02 -0.21741831549E+02 -0.20308765820E+03  0.22365501480E+03  0.84344160844E+02 0.  0.
         -6    2    1    2    0  502 -0.18004109393E+02 -0.43380366262E+02 -0.41897872740E+02  0.18325925071E+03  0.17211193189E+03 0.  0.
        -24    2    5    5    0    0 -0.67673659354E+02 -0.22285979110E+02  0.11550256676E+02  0.10716174812E+03  0.79207593043E+02 0.  0.
          5    1    3    3  501    0 -0.16496963398E+02  0.65122197811E+02 -0.47806697016E+02  0.82587049401E+02  0.47000000000E+01 0. -1.
        -11    1    4    4    0    0 -0.11597397463E+02 -0.12827290059E+02 -0.22932706542E+01  0.17444141953E+02  0.00000000000E+00 0.  1.
         12    1    4    4    0    0  0.46098470254E+02 -0.89145414904E+01 -0.20079438755E+03  0.20621087285E+03  0.00000000000E+00 0. -1.
         -5    1    5    5    0  502  0.49669549961E+02 -0.21094387152E+02 -0.53448129416E+02  0.76097502592E+02  0.47000000000E+01 0.  1.
         11    1    6    6    0    0 -0.12751915509E+02 -0.22715480541E+02 -0.28931810204E+02  0.38931401812E+02  0.00000000000E+00 0. -1.
        -12    1    6    6    0    0 -0.54921743845E+02  0.42950143082E+00  0.40482066881E+02  0.68230346309E+02  0.00000000000E+00 0.  1.
</event>
<event>
12    1  0.8417180E-002  0.2892914E+03  0.7818608E-02  0.1090792E+00
         21   -1    0    0  503  502  0.00000000000E+00  0.00000000000E+00  0.33448281639E+03  0.33448281639E+03  0.00000000000E+00 0.  1.
         21   -1    0    0  501  503 -0.00000000000E+00 -0.00000000000E+00 -0.25010942946E+03  0.25010942946E+03  0.00000000000E+00 0.  1.
          6    2    1    2  501    0  0.93498893368E+02 -0.21206889354E+03  0.30707475146E+02  0.29036518975E+03  0.17220260081E+03 0.  0.
         24    2    3    3    0    0  0.98469908120E+02 -0.11950425171E+03 -0.33416843986E+02  0.17755143967E+03  0.80188772809E+02 0.  0.
         -6    2    1    2    0  502 -0.93498893368E+02  0.21206889354E+03  0.53665911782E+02  0.29422705610E+03  0.17313079387E+03 0.  0.
        -24    2    5    5    0    0 -0.10877766333E+03  0.17467979014E+03 -0.73899307030E+01  0.22086976766E+03  0.79895144231E+02 0.  0.
          5    1    3    3  501    0 -0.49710147529E+01 -0.92564641827E+02  0.64124319133E+02  0.11281375009E+03  0.47000000000E+01 0. -1.
        -13    1    4    4    0    0  0.38704187757E+02 -0.31109460010E+02  0.25330959413E+02  0.55744687252E+02  0.00000000000E+00 0.  1.
         14    1    4    4    0    0  0.59765720363E+02 -0.88394791699E+02 -0.58747803399E+02  0.12180675242E+03  0.00000000000E+00 0. -1.
         -5    1    5    5    0  502  0.15278769959E+02  0.37389103401E+02  0.61055842485E+02  0.73357288433E+02  0.47000000000E+01 0.  1.
         11    1    6    6    0    0 -0.90794347992E+01  0.42933897784E+02 -0.31340377180E+02  0.53925642852E+02  0.00000000000E+00 0. -1.
        -12    1    6    6    0    0 -0.99698228528E+02  0.13174589235E+03  0.23950446477E+02  0.16694412481E+03  0.00000000000E+00 0.  1.
</event>
<event>
12    1  0.8417180E-002  0.2034917E+03  0.7818608E-02  0.1146856E+00
         21   -1    0    0  501  502  0.00000000000E+00  0.00000000000E+00  0.44953949350E+02  0.44953949350E+02  0.00000000000E+00 0. -1.
         21   -1    0    0  502  503 -0.00000000000E+00 -0.00000000000E+00 -0.95302014359E+03  0.95302014359E+03  0.00000000000E+00 0.  1.
         -6    2    1    2    0  503 -0.57885228943E+02  0.91713077653E+02 -0.54608638289E+03  0.58271724645E+03  0.17200890499E+03 0.  0.
        -24    2    3    3    0    0 -0.56575441653E+02  0.57782908570E+02 -0.16688127472E+03  0.20196591555E+03  0.80007662593E+02 0.  0.
          6    2    1    2  501    0  0.57885228943E+02 -0.91713077653E+02 -0.36197981136E+03  0.41525684649E+03  0.17218268318E+03 0.  0.
         24    2    5    5    0    0  0.55188703652E+01 -0.12240963144E+03 -0.20826650776E+03  0.24992571322E+03  0.63822786505E+02 0.  0.
          5    1    5    5  501    0  0.52366358578E+02  0.30696553784E+02 -0.15371330360E+03  0.16533113327E+03  0.47000000000E+01 0. -1.
        -13    1    6    6    0    0  0.99794089544E+01 -0.23336335068E+02 -0.99705678467E+02  0.10288535103E+03  0.00000000000E+00 0.  1.
         14    1    6    6    0    0 -0.44605385892E+01 -0.99073296370E+02 -0.10856082929E+03  0.14704036219E+03  0.00000000000E+00 0. -1.
         -5    1    3    3    0  503 -0.13097872899E+01  0.33930169083E+02 -0.37920510817E+03  0.38075133090E+03  0.47000000000E+01 0.  1.
         13    1    4    4    0    0 -0.66418187261E+02  0.22389126663E+02 -0.13959844713E+03  0.15620619397E+03  0.00000000000E+00 0. -1.
        -14    1    4    4    0    0  0.98427456077E+01  0.35393781906E+02 -0.27282827582E+02  0.45759721586E+02  0.00000000000E+00 0.  1.
</event>
<event>
12    1  0.8417180E-002  0.1907780E+03  0.7818608E-02  0.1158168E+00
         21   -1    0    0  503  502  0.00000000000E+00  0.00000000000E+00  0.16187466596E+03  0.16187466596E+03  0.00000000000E+00 0. -1.
         21   -1    0    0  501  503 -0.00000000000E+00 -0.00000000000E+00 -0.45291322651E+03  0.45291322651E+03  0.00000000000E+00 0.  1.
          6    2    1    2  501    0 -0.74476372303E+02 -0.30188118991E+02 -0.36432394353E+03  0.41041817641E+03  0.17103535056E+03 0.  0.
         24    2    3    3    0    0 -0.97674756075E+02 -0.68553115690E+02 -0.28236049579E+03  0.31687602149E+03  0.80268772070E+02 0.  0.
         -6    2    1    2    0  502  0.74476372303E+02  0.30188118991E+02  0.73285382973E+02  0.20436971607E+03  0.17302653244E+03 0.  0.
        -24    2    5    5    0    0  0.96451404709E+02  0.49932288718E+02  0.98446629157E+02  0.16528119349E+03  0.76354614810E+02 0.  0.
          5    1    3    3  501    0  0.23198383772E+02  0.38364996699E+02 -0.81963447739E+02  0.93542154917E+02  0.47000000000E+01 0. -1.
        -13    1    4    4    0    0  0.74040375335E+01 -0.31451696048E+02 -0.59476814565E+02  0.67686929513E+02  0.00000000000E+00 0.  1.
         14    1    4    4    0    0 -0.10507879361E+03 -0.37101419642E+02 -0.22288368122E+03  0.24918909198E+03  0.00000000000E+00 0. -1.
         -5    1    5    5    0  502 -0.21975032406E+02 -0.19744169727E+02 -0.25161246184E+02  0.39088522573E+02  0.47000000000E+01 0.  1.
         13    1    6    6    0    0  0.49147310917E+02  0.39642568734E+02  0.98345275369E+02  0.11687080308E+03  0.00000000000E+00 0. -1.
        -14    1    6    6    0    0  0.47304093792E+02  0.10289719985E+02  0.10135378806E+00  0.48410390408E+02  0.00000000000E+00 0.  1.
</event>
<event>
12    1  0.8417180E-002  0.2038922E+03  0.7818608E-02  0.1146558E+00
         21   -1    0    0  501  502  0.00000000000E+00  0.00000000000E+00  0.74572257669E+02  0.74572257669E+02  0.00000000000E+00 0.  1.
         21   -1    0    0  502  503 -0.00000000000E+00 -0.00000000000E+00 -0.59999707460E+03  0.59999707460E+03  0.00000000000E+00 0.  1.
         -6    2    1    2    0  503  0.59332522234E+01  0.10946836087E+03 -0.35318557006E+03  0.40766416076E+03  0.17155610031E+03 0.  0.
        -24    2    3    3    0    0  0.33641011013E+02  0.13264909756E+03 -0.32337351902E+03  0.36059065613E+03  0.82022483374E+02 0.  0.
          6    2    1    2  501    0 -0.59332522234E+01 -0.10946836087E+03 -0.17223924687E+03  0.26690517151E+03  0.17191127626E+03 0.  0.
         24    2    5    5    0    0 -0.37517241373E+01 -0.13602063609E+03 -0.17790321668E+03  0.23926547292E+03  0.84158916035E+02 0.  0.
          5    1    5    5  501    0 -0.21815280861E+01  0.26552275222E+02  0.56639698133E+01  0.27639698593E+02  0.47000000000E+01 0. -1.
        -13    1    6    6    0    0  0.17260744803E+02 -0.49698579607E+02 -0.12559172516E+03  0.13616594124E+03  0.00000000000E+00 0.  1.
         14    1    6    6    0    0 -0.21012468940E+02 -0.86322056482E+02 -0.52311491526E+02  0.10309953168E+03  0.00000000000E+00 0. -1.
         -5    1    3    3    0  503 -0.27707758789E+02 -0.23180736693E+02 -0.29812051039E+02  0.47073504627E+02  0.47000000000E+01 0.  1.
         11    1    4    4    0    0  0.15293534195E+02  0.62785478535E+01 -0.45520683329E+01  0.17147410225E+02  0.00000000000E+00 0. -1.
        -12    1    4    4    0    0  0.18347476817E+02  0.12637054971E+03 -0.31882145069E+03  0.34344324591E+03  0.00000000000E+00 0.  1.
</event>
<event>
12    1  0.8417180E-002  0.1815580E+03  0.7818608E-02  0.1166431E+00
         21   -1    0    0  501  502  0.00000000000E+00  0.00000000000E+00  0.25157526798E+04  0.25157526798E+04  0.00000000000E+00 0.  1.
         21   -1    0    0  502  503 -0.00000000000E+00 -0.00000000000E+00 -0.19100333250E+02  0.19100333250E+02  0.00000000000E+00 0.  1.
         -6    2    1    2    0  503 -0.45131028390E+02 -0.27773147383E+02  0.53460256959E+03  0.56442092300E+03  0.17309798807E+03 0.  0.
        -24    2    3    3    0    0 -0.62109549436E+02  0.24580053395E+02  0.45928977186E+03  0.47102266118E+03  0.80333540081E+02 0.  0.
          6    2    1    2  501    0  0.45131028390E+02  0.27773147383E+02  0.19620497770E+04  0.19704320900E+04  0.17365234454E+03 0.  0.
         24    2    5    5    0    0  0.18147985934E+02  0.72858996974E+02  0.86634298771E+03  0.87345612111E+03  0.82083130504E+02 0.  0.
          5    1    5    5  501    0  0.26983042456E+02 -0.45085849591E+02  0.10957067892E+04  0.10969759689E+04  0.47000000000E+01 0. -1.
        -11    1    6    6    0    0  0.21655765009E+02  0.66675248550E+02  0.86255767208E+03  0.86540181338E+03  0.00000000000E+00 0.  1.
         12    1    6    6    0    0 -0.35077790754E+01  0.61837484238E+01  0.37853156251E+01  0.80543077289E+01  0.00000000000E+00 0. -1.
         -5    1    3    3    0  503  0.16978521046E+02 -0.52353200778E+02  0.75312797733E+02  0.93398261820E+02  0.47000000000E+01 0.  1.
         11    1    4    4    0    0  0.18709125253E+02  0.12720882465E+02  0.89029769640E+02  0.91859414872E+02  0.00000000000E+00 0. -1.
        -12    1    4    4    0    0 -0.80818674689E+02  0.11859170930E+02  0.37026000222E+03  0.37916324631E+03  0.00000000000E+00 0.  1.
</event>
<event>
12    1  0.8417180E-002  0.1941890E+03  0.7818608E-02  0.1154849E+00
         21   -1    0    0  501  502  0.00000000000E+00  0.00000000000E+00  0.18082230418E+03  0.18082230418E+03  0.00000000000E+00 0. -1.
         21   -1    0    0  502  503 -0.00000000000E+00 -0.00000000000E+00 -0.45758565044E+03  0.45758565044E+03  0.00000000000E+00 0.  1.
         -6    2    1    2    0  503 -0.84675401493E+02  0.23003670085E+02 -0.37421200769E+03  0.42159695389E+03  0.17323473203E+03 0.  0.
        -24    2    3    3    0    0  0.17240121571E+02  0.12741910742E+02 -0.10495464704E+03  0.13347598311E+03  0.79629027682E+02 0.  0.
          6    2    1    2  501    0  0.84675401493E+02 -0.23003670085E+02  0.97448661430E+02  0.21681100073E+03  0.17266058024E+03 0.  0.
         24    2    5    5    0    0  0.57753330623E+02 -0.80364321879E+02  0.37256667054E+02  0.12928838388E+03  0.74387872239E+02 0.  0.
          5    1    5    5  501    0  0.26922070870E+02  0.57360651793E+02  0.60191994376E+02  0.87522616855E+02  0.47000000000E+01 0. -1.
        -13    1    6    6    0    0  0.18843840545E+02 -0.82045757584E+02  0.31678565029E+02  0.89945139648E+02  0.00000000000E+00 0.  1.
         14    1    6    6    0    0  0.38909490078E+02  0.16814357054E+01  0.55781020253E+01  0.39343244228E+02  0.00000000000E+00 0. -1.
         -5    1    3    3    0  503 -0.10191552306E+03  0.10261759343E+02 -0.26925736064E+03  0.28812097079E+03  0.47000000000E+01 0.  1.
         13    1    4    4    0    0  0.19768541131E+02 -0.10519405769E+02  0.33769186930E+01  0.22646339572E+02  0.00000000000E+00 0. -1.
        -14    1    4    4    0    0 -0.25284195600E+01  0.23261316511E+02 -0.10833156574E+03  0.11082964354E+03  0.00000000000E+00 0.  1.
</event>
<event>
12    1  0.8417180E-002  0.1995609E+03  0.7818608E-02  0.1151269E+00
         21   -1    0    0  503  502  0.00000000000E+00  0.00000000000E+00  0.20530290133E+03  0.20530290133E+03  0.00000000000E+00 0.  1.
         21   -1    0    0  501  503 -0.00000000000E+00 -0.00000000000E+00 -0.19406855991E+03  0.19406855991E+03  0.00000000000E+00 0.  1.
          6    2    1    2  501    0 -0.37356827435E+02  0.80508933208E+02 -0.27453539975E+02  0.19609502543E+03  0.17269146262E+03 0.  0.
         24    2    3    3    0    0 -0.90664768127E+01 -0.12059142183E+02  0.21196642185E+02  0.87660147538E+02  0.83710094460E+02 0.  0.
         -6    2    1    2    0  502  0.37356827435E+02 -0.80508933208E+02  0.38687881398E+02  0.20327643580E+03  0.17873817808E+03 0.  0.
        -24    2    5    5    0    0  0.82863636534E+02 -0.39123475295E+02 -0.14424313479E+02  0.12187237542E+03  0.79042940819E+02 0.  0.
          5    1    3    3  501    0 -0.28290350623E+02  0.92568075390E+02 -0.48650182160E+02  0.10843487789E+03  0.47000000000E+01 0. -1.
        -13    1    4    4    0    0 -0.32937937577E+01  0.30756981162E+02  0.30528072873E+02  0.43460375066E+02  0.00000000000E+00 0.  1.
         14    1    4    4    0    0 -0.57726830550E+01 -0.42816123345E+02 -0.93314306876E+01  0.44199772472E+02  0.00000000000E+00 0. -1.
         -5    1    5    5    0  502 -0.45506809099E+02 -0.41385457913E+02  0.53112194877E+02  0.81404060376E+02  0.47000000000E+01 0.  1.
         11    1    6    6    0    0  0.57641525182E+02 -0.41792947353E+02 -0.43385165949E+02  0.83375467004E+02  0.00000000000E+00 0. -1.
        -12    1    6    6    0    0  0.25222111352E+02  0.26694720584E+01  0.28960852469E+02  0.38496908420E+02  0.00000000000E+00 0.  1.
</event>
<event>
12    1  0.8417180E-002  0.2254876E+03  0.7818608E-02  0.1129866E+00
         21   -1    0    0  501  502  0.00000000000E+00  0.00000000000E+00  0.54165554448E+03  0.54165554448E+03  0.00000000000E+00 0.  1.
         21   -1    0    0  502  503 -0.00000000000E+00 -0.00000000000E+00 -0.95628142709E+02  0.95628142709E+02  0.00000000000E+00 0.  1.
         -6    2    1    2    0  503 -0.13345981194E+03 -0.58994200667E+02  0.17951214027E+03  0.28817760697E+03  0.17184262434E+03 0.  0.
        -24    2    3    3    0    0 -0.56276029553E+02  0.33796640022E+02  0.10013331547E+03  0.14364192208E+03  0.79354373121E+02 0.  0.
          6    2    1    2  501    0  0.13345981194E+03  0.58994200667E+02  0.26651526149E+03  0.34910608021E+03  0.17190937588E+03 0.  0.
         24    2    5    5    0    0  0.21047026751E+02  0.55257833661E+02  0.68451621570E+02  0.12128621678E+03  0.80797997314E+02 0.  0.
          5    1    5    5  501    0  0.11241278519E+03  0.37363670054E+01  0.19806363992E+03  0.22781986343E+03  0.47000000000E+01 0. -1.
        -13    1    6    6    0    0  0.30586920231E+02  0.73454259937E+02  0.53712686163E+02  0.96000732533E+02  0.00000000000E+00 0.  1.
         14    1    6    6    0    0 -0.95398934794E+01 -0.18196426275E+02  0.14738935408E+02  0.25285484250E+02  0.00000000000E+00 0. -1.
         -5    1    3    3    0  503 -0.77183782390E+02 -0.92790840689E+02  0.79378824800E+02  0.14453568489E+03  0.47000000000E+01 0.  1.
         11    1    4    4    0    0 -0.75107238606E+02  0.26995537520E+02  0.92604158588E+02  0.12225132525E+03  0.00000000000E+00 0. -1.
        -12    1    4    4    0    0  0.18831209053E+02  0.68011025016E+01  0.75291568855E+01  0.21390596837E+02  0.00000000000E+00 0.  1.
</event>
<event>
12    1  0.8417180E-002  0.2199515E+03  0.7818608E-02  0.1134202E+00
         21   -1    0    0  501  502  0.00000000000E+00  0.00000000000E+00  0.35034203631E+03  0.35034203631E+03  0.00000000000E+00 0. -1.
         21   -1    0    0  502  503 -0.00000000000E+00 -0.00000000000E+00 -0.32223412263E+03  0.32223412263E+03  0.00000000000E+00 0. -1.
         -6    2    1    2    0  503 -0.11292410776E+03 -0.76967729006E+02 -0.24083533297E+03  0.32514394942E+03  0.17041433278E+03 0.  0.
        -24    2    3    3    0    0 -0.32024632705E+02  0.23327224481E+02 -0.11125985334E+03  0.14234433870E+03  0.79457027961E+02 0.  0.
          6    2    1    2  501    0  0.11292410776E+03  0.76967729006E+02  0.26894324665E+03  0.34743220951E+03  0.17234495893E+03 0.  0.
         24    2    5    5    0    0 -0.62365627360E+01  0.27527104746E+02  0.14974567806E+03  0.17172281569E+03  0.79172729651E+02 0.  0.
          5    1    5    5  501    0  0.11916067050E+03  0.49440624260E+02  0.11919756859E+03  0.17570939382E+03  0.47000000000E+01 0. -1.
        -11    1    6    6    0    0  0.88938815456E+01  0.28867409150E+02  0.10998222547E+02  0.32146373655E+02  0.00000000000E+00 0.  1.
         12    1    6    6    0    0 -0.15130444282E+02 -0.13403044032E+01  0.13874745551E+03  0.13957644203E+03  0.00000000000E+00 0. -1.
         -5    1    3    3    0  503 -0.80899475058E+02 -0.10029495349E+03 -0.12957547963E+03  0.18279961072E+03  0.47000000000E+01 0.  1.
         11    1    4    4    0    0 -0.51165538493E+02  0.69954808147E+01 -0.10406580664E+03  0.11617461510E+03  0.00000000000E+00 0. -1.
        -12    1    4    4    0    0  0.19140905787E+02  0.16331743666E+02 -0.71940467010E+01  0.26169723603E+02  0.00000000000E+00 0.  1.
</event>
<event>
12    1  0.8417180E-002  0.2152536E+03  0.7818608E-02  0.1138228E+00
         21   -1    0    0  501  502  0.00000000000E+00  0.00000000000E+00  0.20657165858E+03  0.20657165858E+03  0.00000000000E+00 0. -1.
         21   -1    0    0  502  503 -0.00000000000E+00 -0.00000000000E+00 -0.23421225405E+03  0.23421225405E+03  0.00000000000E+00 0.  1.
         -6    2    1    2    0  503 -0.10416351870E+03  0.75165281832E+02 -0.67746403615E+02  0.22566276407E+03  0.17272593802E+03 0.  0.
        -24    2    3    3    0    0 -0.78189339409E+02  0.64545371901E+02  0.22448574325E+02  0.13108652751E+03  0.80000383590E+02 0.  0.
          6    2    1    2  501    0  0.10416351870E+03 -0.75165281832E+02  0.40105808144E+02  0.21512114855E+03  0.16783555787E+03 0.  0.
         24    2    5    5    0    0  0.62469176494E+02  0.14748316612E+02 -0.89178275394E+01  0.10444919993E+03  0.81915791289E+02 0.  0.
          5    1    5    5  501    0  0.41694342203E+02 -0.89913598444E+02  0.49023635683E+02  0.11067194863E+03  0.47000000000E+01 0. -1.
        -11    1    6    6    0    0  0.67106017862E+02 -0.16177642134E+02 -0.18994463531E+02  0.71594157465E+02  0.00000000000E+00 0.  1.
         12    1    6    6    0    0 -0.46368413684E+01  0.30925958745E+02  0.10076635992E+02  0.32855042461E+02  0.00000000000E+00 0. -1.
         -5    1    3    3    0  503 -0.25974179288E+02  0.10619909932E+02 -0.90194977940E+02  0.94576236562E+02  0.47000000000E+01 0.  1.
         13    1    4    4    0    0  0.12510363361E+02  0.23005344587E+02  0.16912017067E+02  0.31173248023E+02  0.00000000000E+00 0. -1.
        -14    1    4    4    0    0 -0.90699702770E+02  0.41540027313E+02  0.55365572586E+01  0.99913279488E+02  0.00000000000E+00 0.  1.
</event>
<event>
12    1  0.8417180E-002  0.2118108E+03  0.7818608E-02  0.1140483E+00
         21   -1    0    0  501  502  0.00000000000E+00  0.00000000000E+00  0.40830824774E+03  0.40830824774E+03  0.00000000000E+00 0.  1.
         21   -1    0    0  502  503 -0.00000000000E+00 -0.00000000000E+00 -0.13155906160E+03  0.13155906160E+03  0.00000000000E+00 0.  1.
         -6    2    1    2    0  503  0.40430478013E+02  0.11747373300E+03  0.24973962155E+03  0.32634135973E+03  0.16939333813E+03 0.  0.
        -24    2    3    3    0    0 -0.33467909156E+02  0.23493777633E+02  0.10499759245E+03  0.13855012291E+03  0.80619995093E+02 0.  0.
          6    2    1    2  501    0 -0.40430478013E+02 -0.11747373300E+03  0.27009564590E+02  0.21352594962E+03  0.17154915646E+03 0.  0.
         24    2    5    5    0    0  0.42136799953E+02 -0.75044134914E+02  0.75824404178E+01  0.11856738319E+03  0.81200978180E+02 0.  0.
          5    1    5    5  501    0 -0.82567277966E+02 -0.42429598090E+02  0.19427124172E+02  0.94958566430E+02  0.47000000000E+01 0. -1.
        -11    1    6    6    0    0 -0.54584826555E+01 -0.69616685470E+02 -0.13230991357E+01  0.69842884534E+02  0.00000000000E+00 0.  1.
         12    1    6    6    0    0  0.47595282609E+02 -0.54274494441E+01  0.89055395535E+01  0.48724498651E+02  0.00000000000E+00 0. -1.
         -5    1    3    3    0  503  0.73898387169E+02  0.93979955372E+02  0.14474202910E+03  0.18779123682E+03  0.47000000000E+01 0.  1.
         13    1    4    4    0    0  0.80765289735E+01 -0.13353761338E+02  0.72602254244E+02  0.74260626064E+02  0.00000000000E+00 0. -1.
        -14    1    4    4    0    0 -0.41544438130E+02  0.36847538971E+02  0.32395338202E+02  0.64289496848E+02  0.00000000000E+00 0.  1.
</event>
<event>
12    1  0.8417180E-002  0.2467951E+03  0.7818608E-02  0.1115423E+00
         21   -1    0    0  501  502  0.00000000000E+00  0.00000000000E+00  0.80768311250E+03  0.80768311250E+03  0.00000000000E+00 0.  1.
         21   -1    0    0  502  503 -0.00000000000E+00 -0.00000000000E+00 -0.75434885872E+02  0.75434885872E+02  0.00000000000E+00 0.  1.
         -6    2    1    2    0  503  0.17293993679E+03  0.35198246990E+02  0.38662572058E+03  0.45842663452E+03  0.17183827599E+03 0.  0.
        -24    2    3    3    0    0  0.34745225988E+02  0.66200437057E+01  0.23566571291E+03  0.25172514514E+03  0.81093555519E+02 0.  0.
          6    2    1    2  501    0 -0.17293993679E+03 -0.35198246990E+02  0.34562250605E+03  0.42469136386E+03  0.17251289667E+03 0.  0.
         24    2    5    5    0    0 -0.17206936111E+03 -0.19798818265E+01  0.34165175302E+03  0.39089677012E+03  0.80390170945E+02 0.  0.
          5    1    5    5  501    0 -0.87057568123E+00 -0.33218365163E+02  0.39707530322E+01  0.33794593736E+02  0.47000000000E+01 0. -1.
        -13    1    6    6    0    0 -0.12165830004E+03 -0.38562908540E+02  0.22676985803E+03  0.26021608019E+03  0.00000000000E+00 0.  1.
         14    1    6    6    0    0 -0.50411061069E+02  0.36583026714E+02  0.11488189499E+03  0.13068068992E+03  0.00000000000E+00 0. -1.
         -5    1    3    3    0  503  0.13819471080E+03  0.28578203284E+02  0.15096000766E+03  0.20670148937E+03  0.47000000000E+01 0.  1.
         13    1    4    4    0    0 -0.79990306309E+01  0.34179846562E+02  0.68155270879E+02  0.76664120361E+02  0.00000000000E+00 0. -1.
        -14    1    4    4    0    0  0.42744256619E+02 -0.27559802857E+02  0.16751044203E+03  0.17506102478E+03  0.00000000000E+00 0.  1.
</event>
<event>
12    1  0.8417180E-002  0.2176771E+03  0.7818608E-02  0.1135683E+00
         21   -1    0    0  503  502  0.00000000000E+00  0.00000000000E+00  0.58298587435E+03  0.58298587435E+03  0.00000000000E+00 0.  1.
         21   -1    0    0  501  503 -0.00000000000E+00 -0.00000000000E+00 -0.10585097582E+03  0.10585097582E+03  0.00000000000E+00 0.  1.
          6    2    1    2  501    0 -0.11398801161E+03 -0.66381031853E+02  0.72368906628E+02  0.22939180197E+03  0.17315782391E+03 0.  0.
         24    2    3    3    0    0 -0.50210856725E+02  0.97374260704E+01 -0.15685318979E+02  0.96586750223E+02  0.80417805787E+02 0.  0.
         -6    2    1    2    0  502  0.11398801161E+03  0.66381031853E+02  0.40476599190E+03  0.45944504820E+03  0.17278465191E+03 0.  0.
        -24    2    5    5    0    0  0.86719783611E+01  0.65974277201E+02  0.14250977202E+03  0.17679323559E+03  0.80740352774E+02 0.  0.
          5    1    3    3  501    0 -0.63777154884E+02 -0.76118457924E+02  0.88054225607E+02  0.13280505175E+03  0.47000000000E+01 0. -1.
        -13    1    4    4    0    0 -0.72141131790E+02  0.58761039677E+01 -0.71230822457E+01  0.72729703660E+02  0.00000000000E+00 0.  1.
         14    1    4    4    0    0  0.21930275065E+02  0.38613221027E+01 -0.85622367329E+01  0.23857046562E+02  0.00000000000E+00 0. -1.
         -5    1    5    5    0  502  0.10531603325E+03  0.40675465241E+00  0.26225621988E+03  0.28265181261E+03  0.47000000000E+01 0.  1.
         13    1    6    6    0    0  0.12417622179E+02  0.70246997072E+02  0.15075426957E+03  0.16678035775E+03  0.00000000000E+00 0. -1.
        -14    1    6    6    0    0 -0.37456438179E+01 -0.42727198709E+01 -0.82444975475E+01  0.10012877834E+02  0.00000000000E+00 0.  1.
</event>
<event>
12    1  0.8417180E-002  0.2032766E+03  0.7818608E-02  0.1147424E+00
         21   -1    0    0  503  502  0.00000000000E+00  0.00000000000E+00  0.26220960858E+03  0.26220960858E+03  0.00000000000E+00 0.  1.
         21   -1    0    0  501  503 -0.00000000000E+00 -0.00000000000E+00 -0.25779080661E+03  0.25779080661E+03  0.00000000000E+00 0.  1.
          6    2    1    2  501    0  0.10639783412E+03 -0.16804408253E+02 -0.16115587674E+03  0.25782420077E+03  0.16999769014E+03 0.  0.
         24    2    3    3    0    0  0.97821310403E+02 -0.25818110722E+02 -0.18829089180E+03  0.22760495801E+03  0.78198295157E+02 0.  0.
         -6    2    1    2    0  502 -0.10639783412E+03  0.16804408253E+02  0.16557467872E+03  0.26217621441E+03  0.17239056218E+03 0.  0.
        -24    2    5    5    0    0 -0.67228482530E+02  0.73553020497E+02  0.73327022303E+02  0.14690972661E+03  0.79220577420E+02 0.  0.
          5    1    3    3  501    0  0.85765237160E+01  0.90137024689E+01  0.27135015056E+02  0.30219242766E+02  0.47000000000E+01 0. -1.
        -11    1    4    4    0    0  0.51055832598E+02  0.25200509142E+02 -0.10376784663E+03  0.11836185914E+03  0.00000000000E+00 0.  1.
         12    1    4    4    0    0  0.46765477805E+02 -0.51018619864E+02 -0.84523045166E+02  0.10924309887E+03  0.00000000000E+00 0. -1.
         -5    1    5    5    0  502 -0.39169351589E+02 -0.56748612244E+02  0.92247656415E+02  0.11526648780E+03  0.47000000000E+01 0.  1.
         13    1    6    6    0    0 -0.40554660398E+01 -0.13442519523E+02  0.25772620834E+02  0.29349209880E+02  0.00000000000E+00 0. -1.
        -14    1    6    6    0    0 -0.63173016490E+02  0.86995540020E+02  0.47554401469E+02  0.11756051673E+03  0.00000000000E+00 0.  1.
</event>
<event>
12    1  0.8417180E-002  0.1939017E+03  0.7818608E-02  0.1155260E+00
         21   -1    0    0  503  502  0.00000000000E+00  0.00000000000E+00  0.21357725100E+03  0.21357725100E+03  0.00000000000E+00 0. -1.
         21   -1    0    0  501  503 -0.00000000000E+00 -0.00000000000E+00 -0.19691371835E+03  0.19691371835E+03  0.00000000000E+00 0.  1.
          6    2    1    2  501    0 -0.87418734857E+02 -0.63192810024E+01  0.76900347829E+02  0.20744829658E+03  0.17157844778E+03 0.  0.
         24    2    3    3    0    0 -0.73776386952E+02  0.63319502305E+02  0.28732182874E+02  0.12155338456E+03  0.67062450898E+02 0.  0.
         -6    2    1    2    0  502  0.87418734857E+02  0.63192810024E+01 -0.60236815187E+02  0.20304267277E+03  0.17296208990E+03 0.  0.
        -24    2    5    5    0    0 -0.66268257993E+01  0.31253136475E+02 -0.60889442991E+02  0.10563230088E+03  0.80187189511E+02 0.  0.
          5    1    3    3  501    0 -0.13642347905E+02 -0.69638783307E+02  0.48168164956E+02  0.85894912027E+02  0.47000000000E+01 0. -1.
        -13    1    4    4    0    0  0.25437803462E+01 -0.84805096709E+00 -0.13137617696E+02  0.13408467758E+02  0.00000000000E+00 0.  1.
         14    1    4    4    0    0 -0.76320167298E+02  0.64167553272E+02  0.41869800570E+02  0.10814491680E+03  0.00000000000E+00 0. -1.
         -5    1    5    5    0  502  0.94045560656E+02 -0.24933855473E+02  0.65262780474E+00  0.97410371886E+02  0.47000000000E+01 0.  1.
         13    1    6    6    0    0  0.72353880572E+01 -0.24981957645E+02 -0.30969993224E+02  0.40442422385E+02  0.00000000000E+00 0. -1.
        -14    1    6    6    0    0 -0.13862213857E+02  0.56235094120E+02 -0.29919449767E+02  0.65189878494E+02  0.00000000000E+00 0.  1.
</event>
<event>
12    1  0.8417180E-002  0.1834102E+03  0.7818608E-02  0.1164574E+00
         21   -1    0    0  503  502  0.00000000000E+00  0.00000000000E+00  0.15558120737E+03  0.15558120737E+03  0.00000000000E+00 0.  1.
         21   -1    0    0  501  503 -0.00000000000E+00 -0.00000000000E+00 -0.72174381078E+03  0.72174381078E+03  0.00000000000E+00 0. -1.
          6    2    1    2  501    0  0.37532197669E+02 -0.48155810028E+02 -0.65023016526E+03  0.67556611300E+03  0.17280815178E+03 0.  0.
         24    2    3    3    0    0 -0.41171547922E+02 -0.29147253892E+02 -0.43561260597E+03  0.44613553193E+03  0.82060414339E+02 0.  0.
         -6    2    1    2    0  502 -0.37532197669E+02  0.48155810028E+02  0.84067561844E+02  0.20175890515E+03  0.17294985676E+03 0.  0.
        -24    2    5    5    0    0 -0.36711609550E+02  0.67417396563E+02  0.11840013836E+03  0.16210417163E+03  0.79789235248E+02 0.  0.
          5    1    3    3  501    0  0.78703745591E+02 -0.19008556135E+02 -0.21461755929E+03  0.22943058107E+03  0.47000000000E+01 0. -1.
        -11    1    4    4    0    0 -0.37247897382E+02  0.17450041873E+02 -0.29729682593E+03  0.30012882656E+03  0.00000000000E+00 0.  1.
         12    1    4    4    0    0 -0.39236505404E+01 -0.46597295765E+02 -0.13831578004E+03  0.14600670537E+03  0.00000000000E+00 0. -1.
         -5    1    5    5    0  502 -0.82058811846E+00 -0.19261586535E+02 -0.34332576513E+02  0.39654733523E+02  0.47000000000E+01 0.  1.
         11    1    6    6    0    0  0.13335451471E+02 -0.38117513915E+01 -0.14823045952E+01  0.13948510369E+02  0.00000000000E+00 0. -1.
        -12    1    6    6    0    0 -0.50047061021E+02  0.71229147954E+02  0.11988244295E+03  0.14815566126E+03  0.00000000000E+00 0.  1.
</event>
<event>
12    1  0.8417180E-002  0.2926536E+03  0.7818608E-02  0.1089107E+00
         21   -1    0    0  503  502  0.00000000000E+00  0.00000000000E+00  0.21720136004E+03  0.21720136004E+03  0.00000000000E+00 0.  1.
         21   -1    0    0  501  503 -0.00000000000E+00 -0.00000000000E+00 -0.48365296955E+03  0.48365296955E+03  0.00000000000E+00 0. -1.
          6    2    1    2  501    0  0.12137689294E+03  0.20308256374E+03 -0.28520635616E+03  0.40864263514E+03  0.17225347549E+03 0.  0.
         24    2    3    3    0    0  0.83695437966E+01  0.62268776021E+02 -0.16124258100E+03  0.18958033504E+03  0.77421468425E+02 0.  0.
         -6    2    1    2    0  502 -0.12137689294E+03 -0.20308256374E+03  0.18754746652E+02  0.29221169445E+03  0.17047303604E+03 0.  0.
        -24    2    5    5    0    0  0.29268772510E+01 -0.95706725496E+02 -0.95342176797E+01  0.12546831849E+03  0.80517412546E+02 0.  0.
          5    1    3    3  501    0  0.11300734915E+03  0.14081378772E+03 -0.12396377516E+03  0.21906230010E+03  0.47000000000E+01 0. -1.
        -13    1    4    4    0    0  0.29314915309E+02  0.29367108613E+02 -0.26330514642E+02  0.49143538020E+02  0.00000000000E+00 0.  1.
         14    1    4    4    0    0 -0.20945371512E+02  0.32901667409E+02 -0.13491206636E+03  0.14043679702E+03  0.00000000000E+00 0. -1.
         -5    1    5    5    0  502 -0.12430377019E+03 -0.10737583825E+03  0.28288964331E+02  0.16674337596E+03  0.47000000000E+01 0.  1.
         11    1    6    6    0    0 -0.16355201290E+02 -0.15064836095E+01  0.19053139831E+02  0.25155203031E+02  0.00000000000E+00 0. -1.
        -12    1    6    6    0    0  0.19282078541E+02 -0.94200241886E+02 -0.28587357511E+02  0.10031311546E+03  0.00000000000E+00 0.  1.
</event>
<event>
12    1  0.8417180E-002  0.2834734E+03  0.7818608E-02  0.1094410E+00
         21   -1    0    0  501  502  0.00000000000E+00  0.00000000000E+00  0.31683578899E+03  0.31683578899E+03  0.00000000000E+00 0. -1.
         21   -1    0    0  502  503 -0.00000000000E+00 -0.00000000000E+00 -0.27708270068E+03  0.27708270068E+03  0.00000000000E+00 0. -1.
         -6    2    1    2    0  503 -0.19088367108E+03 -0.10604201645E+03  0.11315909744E+03  0.30109495978E+03  0.17370005278E+03 0.  0.
        -24    2    3    3    0    0 -0.15954602995E+03 -0.56153714366E+02  0.18282751949E+02  0.18931615423E+03  0.83055234181E+02 0.  0.
          6    2    1    2  501    0  0.19088367108E+03  0.10604201645E+03 -0.73406009128E+02  0.29282352989E+03  0.18076418988E+03 0.  0.
         24    2    5    5    0    0  0.49120651263E+02  0.58830503172E+02  0.26646785373E+02  0.11293931029E+03  0.78558068673E+02 0.  0.
          5    1    5    5  501    0  0.14176301982E+03  0.47211513274E+02 -0.10005279450E+03  0.17988421960E+03  0.47000000000E+01 0. -1.
        -11    1    6    6    0    0 -0.42031730981E+01  0.47016562360E+02 -0.85384518740E+01  0.47970084017E+02  0.00000000000E+00 0.  1.
         12    1    6    6    0    0  0.53323824361E+02  0.11813940812E+02  0.35185237247E+02  0.64969226270E+02  0.00000000000E+00 0. -1.
         -5    1    3    3    0  503 -0.31337641135E+02 -0.49888302079E+02  0.94876345492E+02  0.11177880555E+03  0.47000000000E+01 0.  1.
         13    1    4    4    0    0 -0.74917328723E+02 -0.69257744483E+02  0.18440469358E+02  0.10367879351E+03  0.00000000000E+00 0. -1.
        -14    1    4    4    0    0 -0.84628701226E+02  0.13104030116E+02 -0.15771740872E+00  0.85637360721E+02  0.00000000000E+00 0.  1.
</event>
<event>
12    1  0.8417180E-002  0.2197346E+03  0.7818608E-02  0.1134452E+00
         21   -1    0    0  503  502  0.00000000000E+00  0.00000000000E+00  0.10843984649E+03  0.10843984649E+03  0.00000000000E+00 0. -1.
         21   -1    0    0  501  503 -0.00000000000E+00 -0.00000000000E+00 -0.55806720259E+03  0.55806720259E+03  0.00000000000E+00 0. -1.
          6    2    1    2  501    0 -0.42237414563E+01  0.13333960892E+03 -0.37808458531E+03  0.43729994763E+03  0.17460240333E+03 0.  0.
         24    2    3    3    0    0  0.43352506234E+02  0.36703476704E+02 -0.12525904995E+03  0.16244565401E+03  0.86441748664E+02 0.  0.
         -6    2    1    2    0  502  0.42237414563E+01 -0.13333960892E+03 -0.71542770780E+02  0.22920710145E+03  0.17210530498E+03 0.  0.
        -24    2    5    5    0    0 -0.23320743920E+01 -0.10154522710E+03 -0.11620322713E+03  0.17379493854E+03  0.79903810608E+02 0.  0.
          5    1    3    3  501    0 -0.47576247690E+02  0.96636132217E+02 -0.25282553536E+03  0.27485429363E+03  0.47000000000E+01 0. -1.
        -13    1    4    4    0    0  0.55786357329E+02  0.13281805813E+02 -0.12314675780E+03  0.13584420483E+03  0.00000000000E+00 0.  1.
         14    1    4    4    0    0 -0.12433851095E+02  0.23421670891E+02 -0.21122921578E+01  0.26601449181E+02  0.00000000000E+00 0. -1.
         -5    1    5    5    0  502  0.65558158482E+01 -0.31794381826E+02  0.44660456347E+02  0.55412162908E+02  0.47000000000E+01 0.  1.
         11    1    6    6    0    0 -0.68890607557E+01  0.48706770119E+01  0.69783425187E+01  0.10948968762E+02  0.00000000000E+00 0. -1.
        -12    1    6    6    0    0  0.45569863638E+01 -0.10641590411E+03 -0.12318156965E+03  0.16284596978E+03  0.00000000000E+00 0.  1.
</event>
<event>
12    1  0.8417180E-002  0.1881967E+03  0.7818608E-02  0.1160194E+00
         21   -1    0    0  501  502  0.00000000000E+00  0.00000000000E+00  0.22848359476E+03  0.22848359476E+03  0.00000000000E+00 0.  1.
         21   -1    0    0  502  503 -0.00000000000E+00 -0.00000000000E+00 -0.15992800285E+03  0.15992800285E+03  0.00000000000E+00 0.  1.
         -6    2    1    2    0  503  0.12290094125E+02 -0.75884389012E+02 -0.90799717535E+00  0.18819886067E+03  0.17178038244E+03 0.  0.
        -24    2    3    3    0    0  0.54697451184E+02  0.38947938182E+01 -0.52113901857E+01  0.97624520284E+02  0.80600296452E+02 0.  0.
          6    2    1    2  501    0 -0.12290094125E+02  0.75884389012E+02  0.69463589089E+02  0.20021273694E+03  0.17131976802E+03 0.  0.
         24    2    5    5    0    0 -0.51410667170E+02  0.84736697777E+01  0.37016716118E+01  0.98127752278E+02  0.83069209796E+02 0.  0.
          5    1    5    5  501    0  0.39120573045E+02  0.67410719234E+02  0.65761917477E+02  0.10208498466E+03  0.47000000000E+01 0. -1.
        -11    1    6    6    0    0 -0.38439934428E+02  0.29621969386E+02  0.33787126602E+02  0.59132559163E+02  0.00000000000E+00 0.  1.
         12    1    6    6    0    0 -0.12970732742E+02 -0.21148299608E+02 -0.30085454990E+02  0.38995193116E+02  0.00000000000E+00 0. -1.
         -5    1    3    3    0  503 -0.42407357059E+02 -0.79779182830E+02  0.43033930103E+01  0.90574340391E+02  0.47000000000E+01 0.  1.
         13    1    4    4    0    0  0.29043129096E+02  0.35189214272E+02  0.20139393065E+02  0.49873633332E+02  0.00000000000E+00 0. -1.
        -14    1    4    4    0    0  0.25654322088E+02 -0.31294420453E+02 -0.25350783250E+02  0.47750886952E+02  0.00000000000E+00 0.  1.
</event>
<event>
12    1  0.8417180E-002  0.2220433E+03  0.7818608E-02  0.1135002E+00
         21   -1    0    0  503  502  0.00000000000E+00  0.00000000000E+00  0.35756354359E+03  0.35756354359E+03  0.00000000000E+00 0.  1.
         21   -1    0    0  501  503 -0.00000000000E+00 -0.00000000000E+00 -0.15380506595E+03  0.15380506595E+03  0.00000000000E+00 0.  1.
          6    2    1    2  501    0  0.94589444736E+02  0.69630377092E+02 -0.25966314176E+01  0.20824210745E+03  0.17193743150E+03 0.  0.
         24    2    3    3    0    0  0.11031005798E+03  0.10261683681E+03 -0.97382560253E+01  0.17071429101E+03  0.79686959014E+02 0.  0.
         -6    2    1    2    0  502 -0.94589444736E+02 -0.69630377092E+02  0.20635510906E+03  0.30312650209E+03  0.18843485018E+03 0.  0.
        -24    2    5    5    0    0 -0.10354733017E+03  0.11694276220E+02  0.81348389204E+02  0.15365171171E+03  0.78310167961E+02 0.  0.
          5    1    3    3  501    0 -0.15720613240E+02 -0.32986459713E+02  0.71416246077E+01  0.37527816444E+02  0.47000000000E+01 0. -1.
        -13    1    4    4    0    0  0.19137890585E+02  0.52800146742E+02 -0.31748112432E+02  0.64514006192E+02  0.00000000000E+00 0.  1.
         14    1    4    4    0    0  0.91172167391E+02  0.49816690063E+02  0.22009856407E+02  0.10620028481E+03  0.00000000000E+00 0. -1.
         -5    1    5    5    0  502  0.89578854296E+01 -0.81324653312E+02  0.12500671986E+03  0.14947479038E+03  0.47000000000E+01 0.  1.
         13    1    6    6    0    0 -0.75752209034E+02  0.30060939488E+02  0.87715733954E+02  0.11973348420E+03  0.00000000000E+00 0. -1.
        -14    1    6    6    0    0 -0.27795121132E+02 -0.18366663269E+02 -0.63673447494E+01  0.33918227512E+02  0.00000000000E+00 0.  1.
</event>
<event>
12    1  0.8417180E-002  0.3169208E+03  0.7818608E-02  0.1077421E+00
         21   -1    0    0  503  502  0.00000000000E+00  0.00000000000E+00  0.88856433044E+03  0.88856433044E+03  0.00000000000E+00 0.  1.
         21   -1    0    0  501  503 -0.00000000000E+00 -0.00000000000E+00 -0.12740698496E+03  0.12740698496E+03  0.00000000000E+00 0. -1.
          6    2    1    2  501    0 -0.23945847955E+03 -0.10990813757E+03  0.20228144214E+03  0.37349093133E+03  0.17075576658E+03 0.  0.
         24    2    3    3    0    0 -0.20978526423E+03 -0.14111911763E+03  0.14057669480E+03  0.29809735848E+03  0.71942793684E+02 0.  0.
         -6    2    1    2    0  502  0.23945847955E+03  0.10990813757E+03  0.55887590334E+03  0.64248038407E+03  0.17612099947E+03 0.  0.
        -24    2    5    5    0    0  0.10256006905E+03  0.10623037118E+03  0.39402681322E+03  0.42811617700E+03  0.78885182041E+02 0.  0.
          5    1    3    3  501    0 -0.29673215316E+02  0.31210980057E+02  0.61704747336E+02  0.75393572850E+02  0.47000000000E+01 0. -1.
        -13    1    4    4    0    0 -0.27913115900E+02 -0.47550766934E+02  0.49909815555E+02  0.74372085919E+02  0.00000000000E+00 0.  1.
         14    1    4    4    0    0 -0.18187214833E+03 -0.93568350692E+02  0.90666879246E+02  0.22372527256E+03  0.00000000000E+00 0. -1.
         -5    1    5    5    0  502  0.13689841050E+03  0.36777663924E+01  0.16484909012E+03  0.21436420707E+03  0.47000000000E+01 0.  1.
         11    1    6    6    0    0 -0.83842819146E+01 -0.53209038394E+01  0.28028229777E+02  0.29735330254E+02  0.00000000000E+00 0. -1.
        -12    1    6    6    0    0  0.11094435096E+03  0.11155127502E+03  0.36599858345E+03  0.39838084675E+03  0.00000000000E+00 0.  1.
</event>
<event>
12    1  0.8417180E-002  0.2146401E+03  0.7818608E-02  0.1138039E+00
         21   -1    0    0  503  502  0.00000000000E+00  0.00000000000E+00  0.47862723604E+03  0.47862723604E+03  0.00000000000E+00 0. -1.
         21   -1    0    0  501  503 -0.00000000000E+00 -0.00000000000E+00 -0.14444526393E+03  0.14444526393E+03  0.00000000000E+00 0.  1.
          6    2    1    2  501    0 -0.12748642006E+03 -0.79222402810E+00 -0.13139495109E+02  0.21504192943E+03  0.17267591077E+03 0.  0.
         24    2    3    3    0    0 -0.14262568230E+03  0.42352653014E+02 -0.26816086156E+01  0.16790240179E+03  0.77770129436E+02 0.  0.
         -6    2    1    2    0  502  0.12748642006E+03  0.79222402810E+00  0.34732146722E+03  0.40803057054E+03  0.17205618264E+03 0.  0.
        -24    2    5    5    0    0  0.95504759546E+02  0.52328099604E+02  0.14664702862E+03  0.19833771566E+03  0.77285893579E+02 0.  0.
          5    1    3    3  501    0  0.15139262238E+02 -0.43144877042E+02 -0.10457886493E+02  0.47139527639E+02  0.47000000000E+01 0. -1.
        -13    1    4    4    0    0 -0.10928099734E+03  0.30833513245E+02 -0.36261943713E+02  0.11919719158E+03  0.00000000000E+00 0.  1.
         14    1    4    4    0    0 -0.33344684958E+02  0.11519139769E+02  0.33580335097E+02  0.48705210206E+02  0.00000000000E+00 0. -1.
         -5    1    5    5    0  502  0.31981660516E+02 -0.51535875575E+02  0.20067443860E+03  0.20969285488E+03  0.47000000000E+01 0.  1.
         13    1    6    6    0    0  0.29643548499E+02 -0.19312535387E+02  0.49396317660E+02  0.60759445267E+02  0.00000000000E+00 0. -1.
        -14    1    6    6    0    0  0.65861211047E+02  0.71640634991E+02  0.97250710962E+02  0.13757827040E+03  0.00000000000E+00 0.  1.
</event>
<event>
12    1  0.8417180E-002  0.2171524E+03  0.7818608E-02  0.1136335E+00
         21   -1    0    0  501  502  0.00000000000E+00  0.00000000000E+00  0.16049370247E+03  0.16049370247E+03  0.00000000000E+00 0. -1.
         21   -1    0    0  502  503 -0.00000000000E+00 -0.00000000000E+00 -0.31579125131E+03  0.31579125131E+03  0.00000000000E+00 0. -1.
         -6    2    1    2    0  503  0.89560628213E+02  0.96996085916E+02 -0.14328496309E+03  0.25880056145E+03  0.17034612748E+03 0.  0.
        -24    2    3    3    0    0  0.20551169744E+02  0.15634403222E+02 -0.47812579347E+01  0.83908036990E+02  0.79692616359E+02 0.  0.
          6    2    1    2  501    0 -0.89560628213E+02 -0.96996085916E+02 -0.12012585752E+02  0.21748439233E+03  0.17241175100E+03 0.  0.
         24    2    5    5    0    0 -0.21633055700E+01 -0.48311193447E+02 -0.53014118533E+02  0.10926366211E+03  0.82397814234E+02 0.  0.
          5    1    5    5  501    0 -0.87397322643E+02 -0.48684892469E+02  0.41001532781E+02  0.10822073022E+03  0.47000000000E+01 0. -1.
        -13    1    6    6    0    0  0.74116536566E+01  0.20656031695E+02 -0.32750204660E+00  0.21947927303E+02  0.00000000000E+00 0.  1.
         14    1    6    6    0    0 -0.95749592266E+01 -0.68967225142E+02 -0.52686616486E+02  0.87315734806E+02  0.00000000000E+00 0. -1.
         -5    1    3    3    0  503  0.69009458469E+02  0.81361682695E+02 -0.13850370516E+03  0.17489252446E+03  0.47000000000E+01 0.  1.
         13    1    4    4    0    0  0.47392731374E+02  0.26591970468E+02 -0.71860255352E+01  0.54816446833E+02  0.00000000000E+00 0. -1.
        -14    1    4    4    0    0 -0.26841561629E+02 -0.10957567246E+02  0.24047676005E+01  0.29091590157E+02  0.00000000000E+00 0.  1.
</event>
<event>
12    1  0.8417180E-002  0.1847342E+03  0.7818608E-02  0.1163533E+00
         21   -1    0    0  501  502  0.00000000000E+00  0.00000000000E+00  0.67509253701E+03  0.67509253701E+03  0.00000000000E+00 0.  1.
         21   -1    0    0  502  503 -0.00000000000E+00 -0.00000000000E+00 -0.75330190394E+02  0.75330190394E+02  0.00000000000E+00 0. -1.
         -6    2    1    2    0  503  0.54058689374E+02 -0.36428085618E+02  0.84044874825E+02  0.20295387127E+03  0.17285076094E+03 0.  0.
        -24    2    3    3    0    0  0.27722883766E+02  0.11274230017E+02  0.11295097307E+03  0.14109323685E+03  0.79080418697E+02 0.  0.
          6    2    1    2  501    0 -0.54058689374E+02  0.36428085618E+02  0.51571747179E+03  0.54746885613E+03  0.17177977300E+03 0.  0.
         24    2    5    5    0    0 -0.22465680945E+02  0.85182846913E+02  0.40860761562E+03  0.42552724626E+03  0.79702130076E+02 0.  0.
          5    1    5    5  501    0 -0.31593008429E+02 -0.48754761295E+02  0.10710985617E+03  0.12194160987E+03  0.47000000000E+01 0. -1.
        -13    1    6    6    0    0 -0.35835879553E+02  0.91171062778E+02  0.38842893821E+03  0.40059132915E+03  0.00000000000E+00 0.  1.
         14    1    6    6    0    0  0.13370198608E+02 -0.59882158650E+01  0.20178677406E+02  0.24935917106E+02  0.00000000000E+00 0. -1.
         -5    1    3    3    0  503  0.26335805608E+02 -0.47702315635E+02 -0.28906098246E+02  0.61860634411E+02  0.47000000000E+01 0.  1.
         11    1    4    4    0    0  0.55502313237E+02  0.31809854831E+01  0.75944062929E+02  0.94117618635E+02  0.00000000000E+00 0. -1.
        -12    1    4    4    0    0 -0.27779429471E+02  0.80932445340E+01  0.37006910142E+02  0.46975618219E+02  0.00000000000E+00 0.  1.
</event>
<event>
12    1  0.8417180E-002  0.2988982E+03  0.7818608E-02  0.1085897E+00
         21   -1    0    0  501  502  0.00000000000E+00  0.00000000000E+00  0.64657472604E+03  0.64657472604E+03  0.00000000000E+00 0.  1.
         21   -1    0    0  502  503 -0.00000000000E+00 -0.00000000000E+00 -0.16334093459E+03  0.16334093459E+03  0.00000000000E+00 0. -1.
         -6    2    1    2    0  503  0.79915416728E+02 -0.23036456612E+03  0.40149386581E+03  0.50004223969E+03  0.17143689814E+03 0.  0.
        -24    2    3    3    0    0  0.64919711289E+02 -0.25039237531E+03  0.38196868706E+03  0.46795942611E+03  0.78581397663E+02 0.  0.
          6    2    1    2  501    0 -0.79915416728E+02  0.23036456612E+03  0.81739925642E+02  0.30987342093E+03  0.17287514108E+03 0.  0.
         24    2    5    5    0    0 -0.95416833376E+02  0.24009309819E+03  0.53099987470E+02  0.27556198970E+03  0.79785547626E+02 0.  0.
          5    1    5    5  501    0  0.15501416648E+02 -0.97285320723E+01  0.28639938173E+02  0.34311431228E+02  0.47000000000E+01 0. -1.
        -11    1    6    6    0    0  0.12929834063E+02  0.31551150913E+02  0.15919978138E+02  0.37631123246E+02  0.00000000000E+00 0.  1.
         12    1    6    6    0    0 -0.10834666744E+03  0.20854194728E+03  0.37180009331E+02  0.23793086646E+03  0.00000000000E+00 0. -1.
         -5    1    3    3    0  503  0.14995705439E+02  0.20027809192E+02  0.19525178744E+02  0.32082813586E+02  0.47000000000E+01 0.  1.
         13    1    4    4    0    0 -0.18000154451E+01 -0.68563659928E+02  0.54936673263E+02  0.87876353973E+02  0.00000000000E+00 0. -1.
        -14    1    4    4    0    0  0.66719726734E+02 -0.18182871538E+03  0.32703201380E+03  0.38008307213E+03  0.00000000000E+00 0.  1.
</event>
<event>
12    1  0.8417180E-002  0.2782680E+03  0.7818608E-02  0.1097291E+00
         21   -1    0    0  503  502  0.00000000000E+00  0.00000000000E+00  0.63632860931E+02  0.63632860931E+02  0.00000000000E+00 0.  1.
         21   -1    0    0  501  503 -0.00000000000E+00 -0.00000000000E+00 -0.11964647460E+04  0.11964647460E+04  0.00000000000E+00 0. -1.
          6    2    1    2  501    0  0.16078790599E+03  0.14804431155E+03 -0.57427043644E+03  0.63813760852E+03  0.17223009128E+03 0.  0.
         24    2    3    3    0    0  0.18431923618E+03  0.13314186156E+03 -0.45297426239E+03  0.51359581491E+03  0.83033984477E+02 0.  0.
         -6    2    1    2    0  502 -0.16078790599E+03 -0.14804431155E+03 -0.55856144867E+03  0.62195999845E+03  0.16454020434E+03 0.  0.
        -24    2    5    5    0    0 -0.78900495952E+02 -0.10248235456E+03 -0.46751612719E+03  0.49122063786E+03  0.77449755409E+02 0.  0.
          5    1    3    3  501    0 -0.23531330193E+02  0.14902449988E+02 -0.12129617405E+03  0.12454179361E+03  0.47000000000E+01 0. -1.
        -13    1    4    4    0    0  0.12018248036E+03  0.12648628082E+03 -0.36460584891E+03  0.40420296001E+03  0.00000000000E+00 0.  1.
         14    1    4    4    0    0  0.64136755819E+02  0.66555807426E+01 -0.88368413477E+02  0.10939285490E+03  0.00000000000E+00 0. -1.
         -5    1    5    5    0  502 -0.81887410035E+02 -0.45561956985E+02 -0.91045321472E+02  0.13073936059E+03  0.47000000000E+01 0.  1.
         13    1    6    6    0    0 -0.88855933753E+02 -0.60272910930E+02 -0.32978198865E+03  0.34682035810E+03  0.00000000000E+00 0. -1.
        -14    1    6    6    0    0  0.99554378009E+01 -0.42209443631E+02 -0.13773413855E+03  0.14440027976E+03  0.00000000000E+00 0.  1.
</event>
<event>
12    1  0.8417180E-002  0.2975544E+03  0.7818608E-02  0.1086599E+00
         21   -1    0    0  501  502  0.00000000000E+00  0.00000000000E+00  0.25273025443E+03  0.25273025443E+03  0.00000000000E+00 0.  1.
         21   -1    0    0  502  503 -0.00000000000E+00 -0.00000000000E+00 -0.39774041996E+03  0.39774041996E+03  0.00000000000E+00 0.  1.
         -6    2    1    2    0  503 -0.18237338868E+03 -0.15681320171E+03 -0.18609668773E+03  0.35009305873E+03  0.17344376455E+03 0.  0.
        -24    2    3    3    0    0 -0.18491662023E+02 -0.81867005945E+02 -0.80298874545E+02  0.14107291649E+03  0.80059417220E+02 0.  0.
          6    2    1    2  501    0  0.18237338868E+03  0.15681320171E+03  0.41086522208E+02  0.30037761565E+03  0.17518041144E+03 0.  0.
         24    2    5    5    0    0  0.12605379772E+03  0.11895267654E+03 -0.38892334588E+02  0.19538226706E+03  0.81377622335E+02 0.  0.
          5    1    5    5  501    0  0.56319590955E+02  0.37860525171E+02  0.79978856795E+02  0.10499534859E+03  0.47000000000E+01 0. -1.
        -13    1    6    6    0    0  0.11127514454E+03  0.66334422575E+02 -0.22223215469E+01  0.12956601454E+03  0.00000000000E+00 0.  1.
         14    1    6    6    0    0  0.14778653186E+02  0.52618253963E+02 -0.36670013041E+02  0.65816252525E+02  0.00000000000E+00 0. -1.
         -5    1    3    3    0  503 -0.16388172665E+03 -0.74946195764E+02 -0.10579781319E+03  0.20902014225E+03  0.47000000000E+01 0.  1.
         11    1    4    4    0    0  0.12659309588E+01  0.80107896069E+01  0.95029003104E+01  0.12493215984E+02  0.00000000000E+00 0. -1.
        -12    1    4    4    0    0 -0.19757592982E+02 -0.89877795552E+02 -0.89801774856E+02  0.12857970050E+03  0.00000000000E+00 0.  1.
</event>
<event>
12    1  0.8417180E-002  0.1745280E+03  0.7818608E-02  0.1173857E+00
         21   -1    0    0  501  502  0.00000000000E+00  0.00000000000E+00  0.50097088144E+03  0.50097088144E+03  0.00000000000E+00 0. -1.
         21   -1    0    0  502  503 -0.00000000000E+00 -0.00000000000E+00 -0.11634252640E+03  0.11634252640E+03  0.00000000000E+00 0. -1.
         -6    2    1    2    0  503  0.11882047570E+02 -0.27308078773E+02 -0.21912616615E+02  0.17589825154E+03  0.17196836310E+03 0.  0.
        -24    2    3    3    0    0 -0.20839763818E+01 -0.50052094728E+02  0.40935443798E+02  0.10745624116E+03  0.85799639051E+02 0.  0.
          6    2    1    2  501    0 -0.11882047570E+02  0.27308078773E+02  0.40654097165E+03  0.44141515631E+03  0.16936606616E+03 0.  0.
         24    2    5    5    0    0 -0.25747920817E+02 -0.22625814689E+02  0.36470110309E+03  0.37464449839E+03  0.78592128511E+02 0.  0.
          5    1    5    5  501    0  0.13865873247E+02  0.49933893463E+02  0.41839868562E+02  0.66770657916E+02  0.47000000000E+01 0. -1.
        -13    1    6    6    0    0  0.38518925121E+01 -0.34179298090E+02  0.67583206029E+02  0.75832389063E+02  0.00000000000E+00 0.  1.
         14    1    6    6    0    0 -0.29599813329E+02  0.11553483401E+02  0.29711789706E+03  0.29881210933E+03  0.00000000000E+00 0. -1.
         -5    1    3    3    0  503  0.13966023952E+02  0.22744015954E+02 -0.62848060413E+02  0.68442010377E+02  0.47000000000E+01 0.  1.
         11    1    4    4    0    0  0.20566462728E+02 -0.33353017310E+02 -0.17257609466E+02  0.42816214654E+02  0.00000000000E+00 0. -1.
        -12    1    4    4    0    0 -0.22650439110E+02 -0.16699077418E+02  0.58193053264E+02  0.64640026506E+02  0.00000000000E+00 0.  1.
</event>
<event>
12    1  0.8417180E-002  0.1786294E+03  0.7818608E-02  0.1169308E+00
         21   -1    0    0  501  502  0.00000000000E+00  0.00000000000E+00  0.45555015649E+03  0.45555015649E+03  0.00000000000E+00 0. -1.
         21   -1    0    0  502  503 -0.00000000000E+00 -0.00000000000E+00 -0.10477991479E+03  0.10477991479E+03  0.00000000000E+00 0. -1.
         -6    2    1    2    0  503 -0.31358974825E+01  0.45728166835E+02  0.13667311387E+02  0.17915151038E+03  0.17264868715E+03 0.  0.
        -24    2    3    3    0    0 -0.65592642763E+02  0.49414873808E+02  0.15488712523E+02  0.11638333101E+03  0.80999722117E+02 0.  0.
          6    2    1    2  501    0  0.31358974825E+01 -0.45728166835E+02  0.33710293031E+03  0.38117856091E+03  0.17192385110E+03 0.  0.
         24    2    5    5    0    0  0.49063464880E+02  0.20457990820E+02  0.15493080136E+03  0.18193317582E+03  0.79185694917E+02 0.  0.
          5    1    5    5  501    0 -0.45927567397E+02 -0.66186157655E+02  0.18217212895E+03  0.19924538509E+03  0.47000000000E+01 0. -1.
        -13    1    6    6    0    0  0.20978510014E+02  0.22239026504E+02  0.15034337932E+03  0.15342035031E+03  0.00000000000E+00 0.  1.
         14    1    6    6    0    0  0.28084954865E+02 -0.17810356847E+01  0.45874220403E+01  0.28512825515E+02  0.00000000000E+00 0. -1.
         -5    1    3    3    0  503  0.62456745280E+02 -0.36867069728E+01 -0.18214011353E+01  0.62768179370E+02  0.47000000000E+01 0.  1.
         13    1    4    4    0    0  0.18780162409E+02  0.38973944025E+01 -0.52449537514E+00  0.19187477130E+02  0.00000000000E+00 0. -1.
        -14    1    4    4    0    0 -0.84372805172E+02  0.45517479406E+02  0.16013207898E+02  0.97195853878E+02  0.00000000000E+00 0.  1.
</event>
<event>
12    1  0.8417180E-002  0.1842187E+03  0.7818608E-02  0.1163838E+00
         21   -1    0    0  503  502  0.00000000000E+00  0.00000000000E+00  0.17131397113E+03  0.17131397113E+03  0.00000000000E+00 0. -1.
         21   -1    0    0  501  503 -0.00000000000E+00 -0.00000000000E+00 -0.22575344969E+03  0.22575344969E+03  0.00000000000E+00 0. -1.
          6    2    1    2  501    0 -0.64440445834E+02  0.13499476527E+02 -0.97048211755E+02  0.20821838346E+03  0.17205154135E+03 0.  0.
         24    2    3    3    0    0 -0.93004551693E+02  0.47379633507E+02 -0.66212500388E+02  0.15402701629E+03  0.91899674828E+02 0.  0.
         -6    2    1    2    0  502  0.64440445834E+02 -0.13499476527E+02  0.42608733192E+02  0.18884903735E+03  0.17179536617E+03 0.  0.
        -24    2    5    5    0    0  0.35475961961E+01  0.47952368768E+02  0.43103629801E+02  0.10220838090E+03  0.79225091452E+02 0.  0.
          5    1    3    3  501    0  0.28564105859E+02 -0.33880156981E+02 -0.30835711367E+02  0.54191367173E+02  0.47000000000E+01 0. -1.
        -11    1    4    4    0    0  0.87022584708E+01  0.29568964811E+02  0.97354410029E+00  0.30838300385E+02  0.00000000000E+00 0.  1.
         12    1    4    4    0    0 -0.10170681016E+03  0.17810668696E+02 -0.67186044488E+02  0.12318871591E+03  0.00000000000E+00 0. -1.
         -5    1    5    5    0  502  0.60892849638E+02 -0.61451845295E+02 -0.49489660915E+00  0.86640656449E+02  0.47000000000E+01 0.  1.
         11    1    6    6    0    0  0.19129780878E+02  0.42195589717E+02  0.61774626378E+02  0.77217360562E+02  0.00000000000E+00 0. -1.
        -12    1    6    6    0    0 -0.15582184682E+02  0.57567790511E+01 -0.18670996577E+02  0.24991020341E+02  0.00000000000E+00 0.  1.
</event>
<event>
12    1  0.8417180E-002  0.1739211E+03  0.7818608E-02  0.1174579E+00
         21   -1    0    0  503  502  0.00000000000E+00  0.00000000000E+00  0.42758425867E+02  0.42758425867E+02  0.00000000000E+00 0. -1.
         21   -1    0    0  501  503 -0.00000000000E+00 -0.00000000000E+00 -0.75600375638E+03  0.75600375638E+03  0.00000000000E+00 0. -1.
          6    2    1    2  501    0 -0.10207061174E+02 -0.82689802656E+01 -0.47253633976E+03  0.50352669362E+03  0.17342427355E+03 0.  0.
         24    2    3    3    0    0  0.17639662671E+02  0.58857867348E+02 -0.30014486972E+03  0.31638406714E+03  0.78971696677E+02 0.  0.
         -6    2    1    2    0  502  0.10207061174E+02  0.82689802656E+01 -0.24070899074E+03  0.29523548862E+03  0.17044241076E+03 0.  0.
        -24    2    5    5    0    0  0.53670709183E+02 -0.22093986210E+02 -0.82436920230E+02  0.12825304423E+03  0.79273629195E+02 0.  0.
          5    1    3    3  501    0 -0.27846723845E+02 -0.67126847614E+02 -0.17239147005E+03  0.18714262648E+03  0.47000000000E+01 0. -1.
        -13    1    4    4    0    0 -0.20436612663E+02 -0.39877040460E+01 -0.30668482895E+02  0.37069027014E+02  0.00000000000E+00 0.  1.
         14    1    4    4    0    0  0.38076275334E+02  0.62845571394E+02 -0.26947638682E+03  0.27931504013E+03  0.00000000000E+00 0. -1.
         -5    1    5    5    0  502 -0.43463648009E+02  0.30362966476E+02 -0.15827207051E+03  0.16698244440E+03  0.47000000000E+01 0.  1.
         13    1    6    6    0    0 -0.20379974146E+02 -0.11150560461E+02 -0.22745640528E+02  0.32512190142E+02  0.00000000000E+00 0. -1.
        -14    1    6    6    0    0  0.74050683329E+02 -0.10943425749E+02 -0.59691279702E+02  0.95740854086E+02  0.00000000000E+00 0.  1.
</event>
<event>
12    1  0.8417180E-002  0.1916074E+03  0.7818608E-02  0.1158572E+00
         21   -1    0    0  503  502  0.00000000000E+00  0.00000000000E+00  0.98545079215E+02  0.98545079215E+02  0.00000000000E+00 0. -1.
         21   -1    0    0  501  503 -0.00000000000E+00 -0.00000000000E+00 -0.41384915206E+03  0.41384915206E+03  0.00000000000E+00 0. -1.
          6    2    1    2  501    0 -0.64922927248E+02  0.20061253141E+02 -0.24808303030E+03  0.30933747166E+03  0.17183434199E+03 0.  0.
         24    2    3    3    0    0 -0.40321933168E+02  0.66001406338E+02 -0.22690958187E+03  0.25289182077E+03  0.80524969638E+02 0.  0.
         -6    2    1    2    0  502  0.64922927248E+02 -0.20061253141E+02 -0.67221042545E+02  0.20305675962E+03  0.17915339435E+03 0.  0.
        -24    2    5    5    0    0 -0.32749189702E+01 -0.37927255931E+02 -0.96826007546E+02  0.12644942161E+03  0.71867785907E+02 0.  0.
          5    1    3    3  501    0 -0.24600994080E+02 -0.45940153197E+02 -0.21173448431E+02  0.56445650886E+02  0.47000000000E+01 0. -1.
        -11    1    4    4    0    0  0.17054135159E+02  0.85486123552E+01 -0.10297859988E+03  0.10473067523E+03  0.00000000000E+00 0.  1.
         12    1    4    4    0    0 -0.57376068327E+02  0.57452793983E+02 -0.12393098199E+03  0.14816114554E+03  0.00000000000E+00 0. -1.
         -5    1    5    5    0  502  0.68197846218E+02  0.17866002791E+02  0.29604965001E+02  0.76607338012E+02  0.47000000000E+01 0.  1.
         13    1    6    6    0    0  0.18317240882E+02 -0.30784649030E+02 -0.10721595550E+02  0.37392091952E+02  0.00000000000E+00 0. -1.
        -14    1    6    6    0    0 -0.21592159852E+02 -0.71426069011E+01 -0.86104411996E+02  0.89057329656E+02  0.00000000000E+00 0.  1.
</event>
<event>
12    1  0.8417180E-002  0.2219819E+03  0.7818608E-02  0.1133271E+00
         21   -1    0    0  501  502  0.00000000000E+00  0.00000000000E+00  0.74067515910E+02  0.74067515910E+02  0.00000000000E+00 0. -1.
         21   -1    0    0  502  503 -0.00000000000E+00 -0.00000000000E+00 -0.65414623001E+03  0.65414623001E+03  0.00000000000E+00 0. -1.
         -6    2    1    2    0  503 -0.13058846788E+03  0.24322362854E+02 -0.26413355266E+03  0.34208255534E+03  0.17207270483E+03 0.  0.
        -24    2    3    3    0    0 -0.11185652650E+03  0.64050753808E+02 -0.25404689600E+03  0.29677183565E+03  0.83182422933E+02 0.  0.
          6    2    1    2  501    0  0.13058846788E+03 -0.24322362854E+02 -0.31594516144E+03  0.38613119058E+03  0.17785113446E+03 0.  0.
         24    2    5    5    0    0 -0.71998435976E+01  0.87147588904E+01 -0.10036842794E+03  0.12811474107E+03  0.78814851284E+02 0.  0.
          5    1    5    5  501    0  0.13778831147E+03 -0.33037121745E+02 -0.21557673350E+03  0.25801644951E+03  0.47000000000E+01 0. -1.
        -11    1    6    6    0    0 -0.39224900300E+02  0.26152189866E+01 -0.81403739080E+02  0.90399120073E+02  0.00000000000E+00 0.  1.
         12    1    6    6    0    0  0.32025056702E+02  0.60995399038E+01 -0.18964688857E+02  0.37715620998E+02  0.00000000000E+00 0. -1.
         -5    1    3    3    0  503 -0.18731941378E+02 -0.39728390954E+02 -0.10086656659E+02  0.45310719683E+02  0.47000000000E+01 0.  1.
         11    1    4    4    0    0 -0.11665511595E+03  0.32112002511E+02 -0.19571256691E+03  0.23009347150E+03  0.00000000000E+00 0. -1.
        -12    1    4    4    0    0  0.47985894489E+01  0.31938751297E+02 -0.58334329094E+02  0.66678364152E+02  0.00000000000E+00 0.  1.
</event>
<event>
12    1  0.8417180E-002  0.2456510E+03  0.7818608E-02  0.1116134E+00
         21   -1    0    0  501  502  0.00000000000E+00  0.00000000000E+00  0.12105146140E+03  0.12105146140E+03  0.00000000000E+00 0.  1.
         21   -1    0    0  502  503 -0.00000000000E+00 -0.00000000000E+00 -0.50149831779E+03  0.50149831779E+03  0.00000000000E+00 0. -1.
         -6    2    1    2    0  503 -0.10752260885E+03  0.13751480505E+03 -0.16367808985E+03  0.29493242389E+03  0.17240413145E+03 0.  0.
        -24    2    3    3    0    0 -0.42200674104E+02  0.12541936713E+03 -0.17189841096E+03  0.22782863520E+03  0.69612561937E+02 0.  0.
          6    2    1    2  501    0  0.10752260885E+03 -0.13751480505E+03 -0.21676876654E+03  0.32761735530E+03  0.17283807545E+03 0.  0.
         24    2    5    5    0    0  0.43541034487E+02 -0.12451936330E+03 -0.74471772813E+02  0.17098706517E+03  0.79307237925E+02 0.  0.
          5    1    5    5  501    0  0.63981574364E+02 -0.12995441746E+02 -0.14229699372E+03  0.15663029013E+03  0.47000000000E+01 0. -1.
        -13    1    6    6    0    0 -0.18798939118E+02 -0.80632104712E+01 -0.26335406353E+01  0.20624039647E+02  0.00000000000E+00 0.  1.
         14    1    6    6    0    0  0.62339973605E+02 -0.11645615283E+03 -0.71838232178E+02  0.15036302552E+03  0.00000000000E+00 0. -1.
         -5    1    3    3    0  503 -0.65321934747E+02  0.12095437922E+02  0.82203211130E+01  0.67103788692E+02  0.47000000000E+01 0.  1.
         11    1    4    4    0    0 -0.27418182232E+02  0.10069537338E+02 -0.58564502948E+02  0.65444276333E+02  0.00000000000E+00 0. -1.
        -12    1    4    4    0    0 -0.14782491872E+02  0.11534982979E+03 -0.11333390801E+03  0.16238435886E+03  0.00000000000E+00 0.  1.
</event>
<event>
12    1  0.8417180E-002  0.1868718E+03  0.7818608E-02  0.1161406E+00
         21   -1    0    0  501  502  0.00000000000E+00  0.00000000000E+00  0.52592770623E+02  0.52592770623E+02  0.00000000000E+00 0.  1.
         21   -1    0    0  502  503 -0.00000000000E+00 -0.00000000000E+00 -0.12090997556E+04  0.12090997556E+04  0.00000000000E+00 0.  1.
         -6    2    1    2    0  503 -0.32627856050E+02 -0.65110507565E+02 -0.10027221888E+04  0.10199866976E+04  0.17209625241E+03 0.  0.
        -24    2    3    3    0    0 -0.31200583148E+02 -0.10925626526E+03 -0.66985132254E+03  0.68416533338E+03  0.80442533564E+02 0.  0.
          6    2    1    2  501    0  0.32627856050E+02  0.65110507565E+02 -0.15378479611E+03  0.24170582860E+03  0.17166242711E+03 0.  0.
         24    2    5    5    0    0  0.51882360893E+02  0.77890748600E+01 -0.24820854735E+02  0.99191721303E+02  0.80439254635E+02 0.  0.
          5    1    5    5  501    0 -0.19254504843E+02  0.57321432705E+02 -0.12896394138E+03  0.14251410730E+03  0.47000000000E+01 0. -1.
        -13    1    6    6    0    0  0.53124525578E+02  0.26096333629E+02 -0.43156849280E+02  0.73251262696E+02  0.00000000000E+00 0.  1.
         14    1    6    6    0    0 -0.12421646851E+01 -0.18307258769E+02  0.18335994546E+02  0.25940458607E+02  0.00000000000E+00 0. -1.
         -5    1    3    3    0  503 -0.14272729026E+01  0.44145757698E+02 -0.33287086631E+03  0.33582136423E+03  0.47000000000E+01 0.  1.
         11    1    4    4    0    0 -0.16773898018E+02 -0.21723333479E+02 -0.42627747665E+02  0.50699030989E+02  0.00000000000E+00 0. -1.
        -12    1    4    4    0    0 -0.14426685130E+02 -0.87532931784E+02 -0.62722357487E+03  0.63346630239E+03  0.00000000000E+00 0.  1.
</event>
<event>
12    1  0.8417180E-002  0.2793986E+03  0.7818608E-02  0.1096284E+00
         21   -1    0    0  501  502  0.00000000000E+00  0.00000000000E+00  0.47958619937E+03  0.47958619937E+03  0.00000000000E+00 0. -1.
         21   -1    0    0  502  503 -0.00000000000E+00 -0.00000000000E+00 -0.30407032842E+03  0.30407032842E+03  0.00000000000E+00 0.  1.
         -6    2    1    2    0  503 -0.23939159265E+02  0.21641617491E+03 -0.18024227935E+03  0.33249192754E+03  0.17508443249E+03 0.  0.
        -24    2    3    3    0    0  0.50461266819E+02  0.96328740207E+02 -0.67646391566E+02  0.15178127671E+03  0.81461377527E+02 0.  0.
          6    2    1    2  501    0  0.23939159265E+02 -0.21641617491E+03  0.35575815030E+03  0.45116460025E+03  0.17197846060E+03 0.  0.
         24    2    5    5    0    0 -0.45802390154E+01 -0.12127767554E+03  0.97618941542E+02  0.17453735785E+03  0.78769146021E+02 0.  0.
          5    1    5    5  501    0  0.28519398281E+02 -0.95138499374E+02  0.25813920876E+03  0.27662724240E+03  0.47000000000E+01 0. -1.
        -11    1    6    6    0    0 -0.36471862108E+02 -0.87279449344E+02  0.82546782162E+02  0.12554628728E+03  0.00000000000E+00 0.  1.
         12    1    6    6    0    0  0.31891623093E+02 -0.33998226195E+02  0.15072159381E+02  0.48991070577E+02  0.00000000000E+00 0. -1.
         -5    1    3    3    0  503 -0.74400426084E+02  0.12008743470E+03 -0.11259588779E+03  0.18071065083E+03  0.47000000000E+01 0.  1.
         13    1    4    4    0    0  0.28411205771E+02 -0.11153678277E+01  0.41737852993E+01  0.28737799889E+02  0.00000000000E+00 0. -1.
        -14    1    4    4    0    0  0.22050061048E+02  0.97444108035E+02 -0.71820176865E+02  0.12304347682E+03  0.00000000000E+00 0.  1.
</event>
<event>
12    1  0.8417180E-002  0.2166459E+03  0.7818608E-02  0.1137778E+00
         21   -1    0    0  503  502  0.00000000000E+00  0.00000000000E+00  0.11246975881E+03  0.11246975881E+03  0.00000000000E+00 0.  1.
         21   -1    0    0  501  503 -0.00000000000E+00 -0.00000000000E+00 -0.40642913944E+03  0.40642913944E+03  0.00000000000E+00 0. -1.
          6    2    1    2  501    0 -0.91868857764E+02  0.94965312115E+02 -0.17028517106E+03  0.27555849088E+03  0.17168909366E+03 0.  0.
         24    2    3    3    0    0 -0.51614166717E+01  0.10328004024E+03 -0.82453661225E+02  0.15176923786E+03  0.74443860575E+02 0.  0.
         -6    2    1    2    0  502  0.91868857764E+02 -0.94965312115E+02 -0.12367420957E+03  0.24334040736E+03  0.16266820898E+03 0.  0.
        -24    2    5    5    0    0  0.10941011430E+03 -0.26677680072E+02 -0.88504356799E+02  0.16441066066E+03  0.80719095885E+02 0.  0.
          5    1    3    3  501    0 -0.86707441092E+02 -0.83147281232E+01 -0.87831509836E+02  0.12378925303E+03  0.47000000000E+01 0. -1.
        -13    1    4    4    0    0  0.32150570819E+02  0.67374878226E+02 -0.57825504182E+02  0.94428927527E+02  0.00000000000E+00 0.  1.
         14    1    4    4    0    0 -0.37311987491E+02  0.35905162012E+02 -0.24628157043E+02  0.57340310332E+02  0.00000000000E+00 0. -1.
         -5    1    5    5    0  502 -0.17541256538E+02 -0.68287632043E+02 -0.35169852770E+02  0.78929746704E+02  0.47000000000E+01 0.  1.
         13    1    6    6    0    0  0.52574405853E+02 -0.53837149021E+02 -0.53677533597E+02  0.92432593703E+02  0.00000000000E+00 0. -1.
        -14    1    6    6    0    0  0.56835708449E+02  0.27159468949E+02 -0.34826823202E+02  0.71978066957E+02  0.00000000000E+00 0.  1.
</event>
<event>
12    1  0.8417180E-002  0.1886728E+03  0.7818608E-02  0.1159673E+00
         21   -1    0    0  501  502  0.00000000000E+00  0.00000000000E+00  0.59366762269E+02  0.59366762269E+02  0.00000000000E+00 0.  1.
         21   -1    0    0  502  503 -0.00000000000E+00 -0.00000000000E+00 -0.13094183438E+04  0.13094183438E+04  0.00000000000E+00 0.  1.
         -6    2    1    2    0  503  0.99292073474E+01  0.77255819635E+02 -0.11289913109E+04  0.11446478975E+04  0.17184405234E+03 0.  0.
        -24    2    3    3    0    0 -0.13772768442E+02  0.87169465494E+02 -0.43443008806E+03  0.44959577980E+03  0.74957714358E+02 0.  0.
          6    2    1    2  501    0 -0.99292073474E+01 -0.77255819635E+02 -0.12106027060E+03  0.22413720855E+03  0.17179886004E+03 0.  0.
         24    2    5    5    0    0  0.24602405887E+02  0.15485005704E+01 -0.30390434535E+02  0.99054586380E+02  0.90997562287E+02 0.  0.
          5    1    5    5  501    0 -0.34531613234E+02 -0.78804320206E+02 -0.90669836069E+02  0.12508262217E+03  0.47000000000E+01 0. -1.
        -13    1    6    6    0    0 -0.29538566835E+02  0.12498445714E+01 -0.33676824305E+02  0.44813140231E+02  0.00000000000E+00 0.  1.
         14    1    6    6    0    0  0.54140972722E+02  0.29865599904E+00  0.32863897695E+01  0.54241446149E+02  0.00000000000E+00 0. -1.
         -5    1    3    3    0  503  0.23701975789E+02 -0.99136458584E+01 -0.69456122284E+03  0.69505211769E+03  0.47000000000E+01 0.  1.
         13    1    4    4    0    0 -0.33046318698E+02  0.19739669982E+02 -0.86650629746E+02  0.94815849866E+02  0.00000000000E+00 0. -1.
        -14    1    4    4    0    0  0.19273550256E+02  0.67429795512E+02 -0.34777945831E+03  0.35477992994E+03  0.00000000000E+00 0.  1.
</event>
<event>
12    1  0.8417180E-002  0.1979725E+03  0.7818608E-02  0.1151537E+00
         21   -1    0    0  503  502  0.00000000000E+00  0.00000000000E+00  0.61198569174E+02  0.61198569174E+02  0.00000000000E+00 0.  1.
         21   -1    0    0  501  503 -0.00000000000E+00 -0.00000000000E+00 -0.64717069162E+03  0.64717069162E+03  0.00000000000E+00 0. -1.
          6    2    1    2  501    0  0.41323884923E+02  0.88295089335E+02 -0.33234638169E+03  0.38684263504E+03  0.17230618271E+03 0.  0.
         24    2    3    3    0    0  0.10757751082E+02  0.65209753740E+02 -0.78550227187E+02  0.13012917748E+03  0.79971391436E+02 0.  0.
         -6    2    1    2    0  502 -0.41323884923E+02 -0.88295089335E+02 -0.25362574076E+03  0.32152662575E+03  0.17190016994E+03 0.  0.
        -24    2    5    5    0    0  0.19953876776E+02  0.69411532760E+01 -0.12568727792E+03  0.15060194567E+03  0.80232894765E+02 0.  0.
          5    1    3    3  501    0  0.30566133841E+02  0.23085335595E+02 -0.25379615450E+03  0.25671345757E+03  0.47000000000E+01 0. -1.
        -13    1    4    4    0    0  0.26375994321E+02  0.76757610478E+02 -0.49127479400E+02  0.94873247415E+02  0.00000000000E+00 0.  1.
         14    1    4    4    0    0 -0.15618243240E+02 -0.11547856738E+02 -0.29422747786E+02  0.35255930061E+02  0.00000000000E+00 0. -1.
         -5    1    5    5    0  502 -0.61277761699E+02 -0.95236242611E+02 -0.12793846283E+03  0.17092468007E+03  0.47000000000E+01 0.  1.
         13    1    6    6    0    0  0.20560223383E+02 -0.99837819371E+01 -0.13090129150E+03  0.13288170229E+03  0.00000000000E+00 0. -1.
        -14    1    6    6    0    0 -0.60634660714E+00  0.16924935213E+02  0.52140135741E+01  0.17720243388E+02  0.00000000000E+00 0.  1.
</event>
<event>
12    1  0.8417180E-002  0.2791079E+03  0.7818608E-02  0.1096198E+00
         21   -1    0    0  501  502  0.00000000000E+00  0.00000000000E+00  0.80632633069E+03  0.80632633069E+03  0.00000000000E+00 0. -1.
         21   -1    0    0  502  503 -0.00000000000E+00 -0.00000000000E+00 -0.11254231929E+03  0.11254231929E+03  0.00000000000E+00 0. -1.
         -6    2    1    2    0  503  0.99291424041E+02  0.19487265853E+03  0.17383471179E+03  0.32881562306E+03  0.17339857846E+03 0.  0.
        -24    2    3    3    0    0  0.66225669432E+02  0.74318801470E+02  0.18619475529E+02  0.12946558883E+03  0.80656867519E+02 0.  0.
          6    2    1    2  501    0 -0.99291424041E+02 -0.19487265853E+03  0.51994929961E+03  0.59005302692E+03  0.17315068720E+03 0.  0.
         24    2    5    5    0    0 -0.12370522084E+03 -0.19809925049E+03  0.49899711091E+03  0.55737997103E+03  0.84427606292E+02 0.  0.
          5    1    5    5  501    0  0.24413796798E+02  0.32265919539E+01  0.20952188705E+02  0.32673055890E+02  0.47000000000E+01 0. -1.
        -13    1    6    6    0    0 -0.69337842099E+02 -0.42452349907E+02  0.20091540295E+03  0.21674163768E+03  0.00000000000E+00 0.  1.
         14    1    6    6    0    0 -0.54367378739E+02 -0.15564690058E+03  0.29808170795E+03  0.34063833335E+03  0.00000000000E+00 0. -1.
         -5    1    3    3    0  503  0.33065754609E+02  0.12055385706E+03  0.15521523626E+03  0.19935003423E+03  0.47000000000E+01 0.  1.
         11    1    4    4    0    0  0.25887988489E+02  0.67196047593E+02 -0.18323839413E+02  0.74305180513E+02  0.00000000000E+00 0. -1.
        -12    1    4    4    0    0  0.40337680943E+02  0.71227538771E+01  0.36943314942E+02  0.55160408316E+02  0.00000000000E+00 0.  1.
</event>
<event>
12    1  0.8417180E-002  0.1849775E+03  0.7818608E-02  0.1164217E+00
         21   -1    0    0  501  502  0.00000000000E+00  0.00000000000E+00  0.50724161511E+03  0.50724161511E+03  0.00000000000E+00 0.  1.
         21   -1    0    0  502  503 -0.00000000000E+00 -0.00000000000E+00 -0.17505401169E+03  0.17505401169E+03  0.00000000000E+00 0.  1.
         -6    2    1    2    0  503  0.14599220252E+02  0.53114375458E+02 -0.10435202369E+03  0.20818221804E+03  0.17151156506E+03 0.  0.
        -24    2    3    3    0    0  0.27187405696E+02 -0.32201190248E+02 -0.73708062089E+02  0.11653970309E+03  0.79828267531E+02 0.  0.
          6    2    1    2  501    0 -0.14599220252E+02 -0.53114375458E+02  0.43653962711E+03  0.47411340876E+03  0.17658540205E+03 0.  0.
         24    2    5    5    0    0 -0.40613888604E+02  0.21888296912E+02  0.33339719688E+03  0.34387280547E+03  0.70471483344E+02 0.  0.
          5    1    5    5  501    0  0.26014668353E+02 -0.75002672370E+02  0.10314243023E+03  0.13024060329E+03  0.47000000000E+01 0. -1.
        -13    1    6    6    0    0 -0.75093121252E+01 -0.12874072101E+02  0.22291443477E+03  0.22341212306E+03  0.00000000000E+00 0.  1.
         14    1    6    6    0    0 -0.33104576479E+02  0.34762369014E+02  0.11048276211E+03  0.12046068241E+03  0.00000000000E+00 0. -1.
         -5    1    3    3    0  503 -0.12588185444E+02  0.85315565706E+02 -0.30643961603E+02  0.91642514955E+02  0.47000000000E+01 0.  1.
         13    1    4    4    0    0  0.42590839882E+02 -0.22894125316E+02 -0.87560399314E+01  0.49140501128E+02  0.00000000000E+00 0. -1.
        -14    1    4    4    0    0 -0.15403434186E+02 -0.93070649322E+01 -0.64952022158E+02  0.67399201960E+02  0.00000000000E+00 0.  1.
</event>
<event>
12    1  0.8417180E-002  0.2664824E+03  0.7818608E-02  0.1103627E+00
         21   -1    0    0  501  502  0.00000000000E+00  0.00000000000E+00  0.32154530340E+03  0.32154530340E+03  0.00000000000E+00 0. -1.
         21   -1    0    0  502  503 -0.00000000000E+00 -0.00000000000E+00 -0.27695756523E+03  0.27695756523E+03  0.00000000000E+00 0.  1.
         -6    2    1    2    0  503  0.16864132729E+03  0.10855725578E+03 -0.11446332208E+03  0.29002534686E+03  0.17546587893E+03 0.  0.
        -24    2    3    3    0    0  0.16103506180E+02  0.63535299381E+02 -0.29546817895E+02  0.10967106743E+03  0.82817096093E+02 0.  0.
          6    2    1    2  501    0 -0.16864132729E+03 -0.10855725578E+03  0.15905106025E+03  0.30847752176E+03  0.17215274210E+03 0.  0.
         24    2    5    5    0    0 -0.12854828980E+03 -0.13935635953E+03  0.94209872662E+02  0.22612155018E+03  0.79439269873E+02 0.  0.
          5    1    5    5  501    0 -0.40093037493E+02  0.30799103752E+02  0.64841187585E+02  0.82355971579E+02  0.47000000000E+01 0. -1.
        -11    1    6    6    0    0 -0.45892518575E+02 -0.10461079141E+03  0.66948076852E+02  0.13240689535E+03  0.00000000000E+00 0.  1.
         12    1    6    6    0    0 -0.82655771220E+02 -0.34745568120E+02  0.27261795810E+02  0.93714654834E+02  0.00000000000E+00 0. -1.
         -5    1    3    3    0  503  0.15253782111E+03  0.45021956400E+02 -0.84916504180E+02  0.18035427943E+03  0.47000000000E+01 0.  1.
         11    1    4    4    0    0  0.19054173322E+02  0.42633297732E+02  0.23718189630E+02  0.52375682486E+02  0.00000000000E+00 0. -1.
        -12    1    4    4    0    0 -0.29506671424E+01  0.20902001648E+02 -0.53265007525E+02  0.57295384947E+02  0.00000000000E+00 0.  1.
</event>
<event>
12    1  0.8417180E-002  0.1773932E+03  0.7818608E-02  0.1170870E+00
         21   -1    0    0  503  502  0.00000000000E+00  0.00000000000E+00  0.82128370434E+03  0.82128370434E+03  0.00000000000E+00 0. -1.
         21   -1    0    0  501  503 -0.00000000000E+00 -0.00000000000E+00 -0.14687647496E+03  0.14687647496E+03  0.00000000000E+00 0. -1.
          6    2    1    2  501    0  0.21306147332E+02  0.38443194316E+02 -0.79318127072E+02  0.19431855304E+03  0.17186187381E+03 0.  0.
         24    2    3    3    0    0  0.74627632205E+02  0.41114570549E+02 -0.78741910145E+02  0.14072061440E+03  0.79638630729E+02 0.  0.
         -6    2    1    2    0  502 -0.21306147332E+02 -0.38443194316E+02  0.75372535645E+03  0.77384162627E+03  0.16969713753E+03 0.  0.
        -24    2    5    5    0    0  0.47371682871E+02 -0.41628316697E+02  0.53389497345E+03  0.54346307550E+03  0.79569332433E+02 0.  0.
          5    1    3    3  501    0 -0.53321484873E+02 -0.26713762332E+01 -0.57621692678E+00  0.53597938636E+02  0.47000000000E+01 0. -1.
        -13    1    4    4    0    0  0.37744540508E+01 -0.20753517126E+02 -0.63595133357E+01  0.22031758585E+02  0.00000000000E+00 0.  1.
         14    1    4    4    0    0  0.70853178154E+02  0.61868087676E+02 -0.72382396809E+02  0.11868885582E+03  0.00000000000E+00 0. -1.
         -5    1    5    5    0  502 -0.68677830203E+02  0.31851223812E+01  0.21983038300E+03  0.23037855077E+03  0.47000000000E+01 0.  1.
         11    1    6    6    0    0  0.21815579337E+02 -0.60652622812E+01  0.43153197765E+03  0.43212562369E+03  0.00000000000E+00 0. -1.
        -12    1    6    6    0    0  0.25556103534E+02 -0.35563054416E+02  0.10236299580E+03  0.11133745181E+03  0.00000000000E+00 0.  1.
</event>
<event>
12    1  0.8417180E-002  0.4397492E+03  0.7818608E-02  0.1030865E+00
         21   -1    0    0  503  502  0.00000000000E+00  0.00000000000E+00  0.70999190856E+03  0.70999190856E+03  0.00000000000E+00 0. -1.
         21   -1    0    0  501  503 -0.00000000000E+00 -0.00000000000E+00 -0.41998008437E+03  0.41998008437E+03  0.00000000000E+00 0.  1.
          6    2    1    2  501    0 -0.39972003921E+03 -0.64622999456E+02 -0.19026270432E+03  0.47914432745E+03  0.17154342909E+03 0.  0.
         24    2    3    3    0    0 -0.19894734541E+03 -0.10035147425E+03 -0.98566478691E+02  0.25550066829E+03  0.76907581851E+02 0.  0.
         -6    2    1    2    0  502  0.39972003921E+03  0.64622999456E+02  0.48027452852E+03  0.65082766549E+03  0.17017868732E+03 0.  0.
        -24    2    5    5    0    0  0.24952910238E+03  0.14192722558E+02  0.38515587149E+03  0.46597588906E+03  0.79512750774E+02 0.  0.
          5    1    3    3  501    0 -0.20077269379E+03  0.35728474790E+02 -0.91696225630E+02  0.22364365915E+03  0.47000000000E+01 0. -1.
        -11    1    4    4    0    0 -0.20499441319E+03 -0.92900789833E+02 -0.89210641748E+02  0.24209875008E+03  0.00000000000E+00 0.  1.
         12    1    4    4    0    0  0.60470677733E+01 -0.74506844127E+01 -0.93558369425E+01  0.13401918212E+02  0.00000000000E+00 0. -1.
         -5    1    5    5    0  502  0.15019093683E+03  0.50430276898E+02  0.95118657026E+02  0.18485177642E+03  0.47000000000E+01 0.  1.
         13    1    6    6    0    0  0.21333454287E+03  0.10553999693E+02  0.26461061585E+03  0.34006145344E+03  0.00000000000E+00 0. -1.
        -14    1    6    6    0    0  0.36194559510E+02  0.36387228644E+01  0.12054525564E+03  0.12591443563E+03  0.00000000000E+00 0.  1.
</event>
<event>
12    1  0.8417180E-002  0.2243165E+03  0.7818608E-02  0.1130736E+00
         21   -1    0    0  501  502  0.00000000000E+00  0.00000000000E+00  0.29284094988E+03  0.29284094988E+03  0.00000000000E+00 0.  1.
         21   -1    0    0  502  503 -0.00000000000E+00 -0.00000000000E+00 -0.32327483438E+03  0.32327483438E+03  0.00000000000E+00 0. -1.
         -6    2    1    2    0  503  0.13201590023E+03  0.56800648815E+02 -0.22615588567E+03  0.31841628296E+03  0.17201143280E+03 0.  0.
        -24    2    3    3    0    0  0.14071826130E+03  0.77581119327E+02 -0.13607193868E+03  0.22543904625E+03  0.80540250421E+02 0.  0.
          6    2    1    2  501    0 -0.13201590023E+03 -0.56800648815E+02  0.19572200116E+03  0.29769950130E+03  0.17223060040E+03 0.  0.
         24    2    5    5    0    0 -0.11840749286E+03  0.19992186274E+02  0.12153270424E+03  0.18995689111E+03  0.83026504222E+02 0.  0.
          5    1    5    5  501    0 -0.13608407372E+02 -0.76792835089E+02  0.74189296924E+02  0.10774261019E+03  0.47000000000E+01 0. -1.
        -13    1    6    6    0    0 -0.97545838342E+02 -0.20782861555E+02  0.90100805984E+02  0.13440711719E+03  0.00000000000E+00 0.  1.
         14    1    6    6    0    0 -0.20861654517E+02  0.40775047829E+02  0.31431898254E+02  0.55549773920E+02  0.00000000000E+00 0. -1.
         -5    1    3    3    0  503 -0.87023610682E+01 -0.20780470512E+02 -0.90083946984E+02  0.92977236715E+02  0.47000000000E+01 0.  1.
         13    1    4    4    0    0  0.78340471752E+01  0.25287510593E+02 -0.55458863490E+02  0.61453364650E+02  0.00000000000E+00 0. -1.
        -14    1    4    4    0    0  0.13288421412E+03  0.52293608734E+02 -0.80613075193E+02  0.16398568160E+03  0.00000000000E+00 0.  1.
</event>
<event>
12    1  0.8417180E-002  0.2067185E+03  0.7818608E-02  0.1144352E+00
         21   -1    0    0  503  502  0.00000000000E+00  0.00000000000E+00  0.54258681852E+03  0.54258681852E+03  0.00000000000E+00 0. -1.
         21   -1    0    0  501  503 -0.00000000000E+00 -0.00000000000E+00 -0.44414827371E+03  0.44414827371E+03  0.00000000000E+00 0. -1.
          6    2    1    2  501    0 -0.67800168125E+02  0.91124221967E+02 -0.39847461328E+03  0.44853880565E+03  0.17176890324E+03 0.  0.
         24    2    3    3    0    0 -0.21511764951E+02  0.12033731672E+03 -0.32760170159E+03  0.35886673205E+03  0.80738037243E+02 0.  0.
         -6    2    1    2    0  502  0.67800168125E+02 -0.91124221967E+02  0.49691315808E+03  0.53819628658E+03  0.17271962709E+03 0.  0.
        -24    2    5    5    0    0  0.80710571012E+02 -0.71313256210E+02  0.49479284419E+03  0.51399424951E+03  0.88149606307E+02 0.  0.
          5    1    3    3  501    0 -0.46288403174E+02 -0.29213094755E+02 -0.70872911685E+02  0.89672073603E+02  0.47000000000E+01 0. -1.
        -11    1    4    4    0    0  0.26023933863E+02  0.68550807587E+02 -0.13172026574E+03  0.15075372885E+03  0.00000000000E+00 0.  1.
         12    1    4    4    0    0 -0.47535698814E+02  0.51786509135E+02 -0.19588143585E+03  0.20811300320E+03  0.00000000000E+00 0. -1.
         -5    1    5    5    0  502 -0.12910402887E+02 -0.19810965757E+02  0.21203138954E+01  0.24202037062E+02  0.47000000000E+01 0.  1.
         13    1    6    6    0    0  0.61674396650E+02  0.36842044949E+01  0.22362921372E+03  0.23200717617E+03  0.00000000000E+00 0. -1.
        -14    1    6    6    0    0  0.19036174362E+02 -0.74997460704E+02  0.27116363046E+03  0.28198707334E+03  0.00000000000E+00 0.  1.
</event>
<event>
12    1  0.8417180E-002  0.1889824E+03  0.7818608E-02  0.1160908E+00
         21   -1    0    0  503  502  0.00000000000E+00  0.00000000000E+00  0.92852246504E+02  0.92852246504E+02  0.00000000000E+00 0.  1.
         21   -1    0    0  501  503 -0.00000000000E+00 -0.00000000000E+00 -0.37932890306E+03  0.37932890306E+03  0.00000000000E+00 0.  1.
          6    2    1    2  501    0  0.66129692445E+01 -0.61993228895E+02 -0.17999918386E+03  0.26098670719E+03  0.17840253178E+03 0.  0.
         24    2    3    3    0    0 -0.58287577986E+02 -0.61884229126E+02 -0.70242652826E+02  0.13339094308E+03  0.75046744493E+02 0.  0.
         -6    2    1    2    0  502 -0.66129692445E+01  0.61993228895E+02 -0.10647747270E+03  0.21119444238E+03  0.17140230018E+03 0.  0.
        -24    2    5    5    0    0  0.31935779051E+02  0.84496232415E+02 -0.11396365491E+03  0.16569143054E+03  0.79413023085E+02 0.  0.
          5    1    3    3  501    0  0.64900547231E+02 -0.10899976916E+00 -0.10975653103E+03  0.12759576410E+03  0.47000000000E+01 0. -1.
        -13    1    4    4    0    0 -0.68543011304E+02 -0.43756625159E+02 -0.76496781846E+02  0.11164472346E+03  0.00000000000E+00 0.  1.
         14    1    4    4    0    0  0.10255433318E+02 -0.18127603967E+02  0.62541290201E+01  0.21746219623E+02  0.00000000000E+00 0. -1.
         -5    1    5    5    0  502 -0.38548748296E+02 -0.22503003520E+02  0.74861822174E+01  0.45503011843E+02  0.47000000000E+01 0.  1.
         13    1    6    6    0    0 -0.14002238920E+02  0.67654220888E+02 -0.82106299474E+02  0.10730610752E+03  0.00000000000E+00 0. -1.
        -14    1    6    6    0    0  0.45938017972E+02  0.16842011526E+02 -0.31857355440E+02  0.58385323011E+02  0.00000000000E+00 0.  1.
</event>
<event>
12    1  0.8417180E-002  0.1747613E+03  0.7818608E-02  0.1174000E+00
         21   -1    0    0  501  502  0.00000000000E+00  0.00000000000E+00  0.79955390242E+03  0.79955390242E+03  0.00000000000E+00 0. -1.
         21   -1    0    0  502  503 -0.00000000000E+00 -0.00000000000E+00 -0.44056350147E+02  0.44056350147E+02  0.00000000000E+00 0. -1.
         -6    2    1    2    0  503 -0.11130437605E+02  0.89927459196E+01  0.21656675912E+03  0.27828523185E+03  0.17417449007E+03 0.  0.
        -24    2    3    3    0    0 -0.22932976834E+02  0.59784577854E+02  0.77218376197E+02  0.12942566062E+03  0.81781457736E+02 0.  0.
          6    2    1    2  501    0  0.11130437605E+02 -0.89927459196E+01  0.53893079315E+03  0.56532502071E+03  0.17012120126E+03 0.  0.
         24    2    5    5    0    0 -0.37326480941E+02  0.19133974946E+02  0.45776762859E+03  0.46658933991E+03  0.79968963718E+02 0.  0.
          5    1    5    5  501    0  0.48456918547E+02 -0.28126720866E+02  0.81163164565E+02  0.98735680804E+02  0.47000000000E+01 0. -1.
        -13    1    6    6    0    0 -0.55332692781E+02  0.24223478716E+02  0.22169538707E+03  0.22977669259E+03  0.00000000000E+00 0.  1.
         14    1    6    6    0    0  0.18006211839E+02 -0.50895037702E+01  0.23607224152E+03  0.23681264732E+03  0.00000000000E+00 0. -1.
         -5    1    3    3    0  503  0.11802539229E+02 -0.50791831934E+02  0.13934838292E+03  0.14885957123E+03  0.47000000000E+01 0.  1.
         13    1    4    4    0    0 -0.41388776228E+02  0.16848409701E+01  0.20747882153E+02  0.46328653127E+02  0.00000000000E+00 0. -1.
        -14    1    4    4    0    0  0.18455799393E+02  0.58099736884E+02  0.56470494044E+02  0.83097007496E+02  0.00000000000E+00 0.  1.
</event>
<event>
12    1  0.8417180E-002  0.1788615E+03  0.7818608E-02  0.1168979E+00
         21   -1    0    0  501  502  0.00000000000E+00  0.00000000000E+00  0.16461895150E+03  0.16461895150E+03  0.00000000000E+00 0.  1.
         21   -1    0    0  502  503 -0.00000000000E+00 -0.00000000000E+00 -0.21042056324E+03  0.21042056324E+03  0.00000000000E+00 0.  1.
         -6    2    1    2    0  503 -0.76872717252E+01  0.47346143751E+02  0.29457818453E+02  0.18098945347E+03  0.17201356843E+03 0.  0.
        -24    2    3    3    0    0 -0.36845050867E+02 -0.25142105380E+02  0.43164071859E+02  0.10152453209E+03  0.80339344537E+02 0.  0.
          6    2    1    2  501    0  0.76872717252E+01 -0.47346143751E+02 -0.75259430200E+02  0.19405006127E+03  0.17230987485E+03 0.  0.
         24    2    5    5    0    0  0.16784385979E+02 -0.11344890904E+02  0.24366840482E+02  0.87624822235E+02  0.81694212735E+02 0.  0.
          5    1    5    5  501    0 -0.90971142541E+01 -0.36001252847E+02 -0.99626270681E+02  0.10642523904E+03  0.47000000000E+01 0. -1.
        -11    1    6    6    0    0  0.14799868286E+02 -0.46554312923E+02  0.12611611628E+02  0.50451886990E+02  0.00000000000E+00 0.  1.
         12    1    6    6    0    0  0.19845176930E+01  0.35209422018E+02  0.11755228853E+02  0.37172935245E+02  0.00000000000E+00 0. -1.
         -5    1    3    3    0  503  0.29157779142E+02  0.72488249131E+02 -0.13706253406E+02  0.79464921374E+02  0.47000000000E+01 0.  1.
         11    1    4    4    0    0  0.21326099413E+02 -0.12099603885E+02  0.32900307624E+02  0.41032099290E+02  0.00000000000E+00 0. -1.
        -12    1    4    4    0    0 -0.58171150279E+02 -0.13042501495E+02  0.10263764235E+02  0.60492432802E+02  0.00000000000E+00 0.  1.
</event>
<event>
12    1  0.8417180E-002  0.2198062E+03  0.7818608E-02  0.1134372E+00
         21   -1    0    0  501  502  0.00000000000E+00  0.00000000000E+00  0.50246217619E+03  0.50246217619E+03  0.00000000000E+00 0.  1.
         21   -1    0    0  502  503 -0.00000000000E+00 -0.00000000000E+00 -0.96107039255E+02  0.96107039255E+02  0.00000000000E+00 0.  1.
         -6    2    1    2    0  503  0.13125481020E+03 -0.29767833047E+02  0.17754165969E+03  0.28255231755E+03  0.17378383741E+03 0.  0.
        -24    2    3    3    0    0  0.42133629371E+02  0.92535725403E+01  0.14429408672E+02  0.92570867409E+02  0.80624353204E+02 0.  0.
          6    2    1    2  501    0 -0.13125481020E+03  0.29767833047E+02  0.22881347725E+03  0.31601689790E+03  0.17145589317E+03 0.  0.
         24    2    5    5    0    0 -0.44597780396E+02 -0.23686581048E+02  0.17960119472E+03  0.20283229669E+03  0.79588537467E+02 0.  0.
          5    1    5    5  501    0 -0.86657029802E+02  0.53454414095E+02  0.49212282533E+02  0.11318460122E+03  0.47000000000E+01 0. -1.
        -11    1    6    6    0    0 -0.53412160558E+02 -0.13636560588E+02  0.56248105663E+02  0.78756993790E+02  0.00000000000E+00 0.  1.
         12    1    6    6    0    0  0.88143801622E+01 -0.10050020460E+02  0.12335308906E+03  0.12407530290E+03  0.00000000000E+00 0. -1.
         -5    1    3    3    0  503  0.89121180827E+02 -0.39021405587E+02  0.16311225101E+03  0.18998145014E+03  0.47000000000E+01 0.  1.
         11    1    4    4    0    0 -0.27327041293E+01 -0.27044069179E+02  0.21190356427E+02  0.34465643112E+02  0.00000000000E+00 0. -1.
        -12    1    4    4    0    0  0.44866333500E+02  0.36297641719E+02 -0.67609477549E+01  0.58105224297E+02  0.00000000000E+00 0.  1.
</event>
<event>
12    1  0.8417180E-002  0.1815395E+03  0.7818608E-02  0.1166346E+00
         21   -1    0    0  501  502  0.00000000000E+00  0.00000000000E+00  0.50546913282E+03  0.50546913282E+03  0.00000000000E+00 0. -1.
         21   -1    0    0  502  503 -0.00000000000E+00 -0.00000000000E+00 -0.65751228270E+02  0.65751228270E+02  0.00000000000E+00 0.  1.
         -6    2    1    2    0  503 -0.53854249399E+02 -0.23292765599E+02  0.24679682491E+03  0.30631443433E+03  0.17168874974E+03 0.  0.
        -24    2    3    3    0    0  0.15333773466E+02 -0.51266280299E+01  0.21139184086E+03  0.22636073550E+03  0.79317496608E+02 0.  0.
          6    2    1    2  501    0  0.53854249399E+02  0.23292765599E+02  0.19292107965E+03  0.26490592676E+03  0.17179573322E+03 0.  0.
         24    2    5    5    0    0  0.28082915566E+02  0.10924641669E+02  0.12966376001E+02  0.82634377962E+02  0.75844021335E+02 0.  0.
          5    1    5    5  501    0  0.25771333832E+02  0.12368123931E+02  0.17995470365E+03  0.18227154880E+03  0.47000000000E+01 0. -1.
        -13    1    6    6    0    0  0.38853128559E+01  0.33756008525E+02 -0.16879212655E+02  0.37940368836E+02  0.00000000000E+00 0.  1.
         14    1    6    6    0    0  0.24197602711E+02 -0.22831366857E+02  0.29845588656E+02  0.44694009126E+02  0.00000000000E+00 0. -1.
         -5    1    3    3    0  503 -0.69188022865E+02 -0.18166137569E+02  0.35404984043E+02  0.79953698834E+02  0.47000000000E+01 0.  1.
         11    1    4    4    0    0 -0.31665886478E+02 -0.24484175709E+01  0.60997491245E+02  0.68770757254E+02  0.00000000000E+00 0. -1.
        -12    1    4    4    0    0  0.46999659944E+02 -0.26782104590E+01  0.15039434962E+03  0.15758997824E+03  0.00000000000E+00 0.  1.
</event>
<event>
12    1  0.8417180E-002  0.1983502E+03  0.7818608E-02  0.1153997E+00
         21   -1    0    0  503  502  0.00000000000E+00  0.00000000000E+00  0.22758274276E+03  0.22758274276E+03  0.00000000000E+00 0.  1.
         21   -1    0    0  501  503 -0.00000000000E+00 -0.00000000000E+00 -0.59346452140E+03  0.59346452140E+03  0.00000000000E+00 0.  1.
          6    2    1    2  501    0 -0.27294761332E+01 -0.70496919547E+02 -0.53469149230E+03  0.57029621617E+03  0.18537938540E+03 0.  0.
         24    2    3    3    0    0  0.97857165116E+01 -0.18872040542E+02 -0.49996872852E+03  0.50666038896E+03  0.79272353875E+02 0.  0.
         -6    2    1    2    0  502  0.27294761332E+01  0.70496919547E+02  0.16880971367E+03  0.25075104799E+03  0.17147041416E+03 0.  0.
        -24    2    5    5    0    0 -0.21254746256E+02 -0.25700185981E+02  0.72619057702E+02  0.11253434013E+03  0.79235007221E+02 0.  0.
          5    1    3    3  501    0 -0.12515192645E+02 -0.51624879005E+02 -0.34722763786E+02  0.63635827206E+02  0.47000000000E+01 0. -1.
        -13    1    4    4    0    0 -0.18344297688E+02 -0.38731946594E+02 -0.18937824426E+03  0.19416692907E+03  0.00000000000E+00 0.  1.
         14    1    4    4    0    0  0.28130014200E+02  0.19859906052E+02 -0.31059048426E+03  0.31249345989E+03  0.00000000000E+00 0. -1.
         -5    1    5    5    0  502  0.23984222389E+02  0.96197105528E+02  0.96190655968E+02  0.13821670786E+03  0.47000000000E+01 0.  1.
         11    1    6    6    0    0 -0.37144400547E+02 -0.21900644290E+01  0.29707235456E+01  0.37327310010E+02  0.00000000000E+00 0. -1.
        -12    1    6    6    0    0  0.15889654291E+02 -0.23510121552E+02  0.69648334156E+02  0.75207030121E+02  0.00000000000E+00 0.  1.
</event>
<event>
12    1  0.8417180E-002  0.2179606E+03  0.7818608E-02  0.1136064E+00
         21   -1    0    0  501  502  0.00000000000E+00  0.00000000000E+00  0.10333338751E+03  0.10333338751E+03  0.00000000000E+00 0. -1.
         21   -1    0    0  502  503 -0.00000000000E+00 -0.00000000000E+00 -0.48523522763E+03  0.48523522763E+03  0.00000000000E+00 0. -1.
         -6    2    1    2    0  503  0.11428654390E+03 -0.55045503944E+02 -0.26874006146E+03  0.34601737617E+03  0.17724384999E+03 0.  0.
        -24    2    3    3    0    0  0.12502819197E+03 -0.42872775864E+02 -0.28407171953E+03  0.32319834789E+03  0.79311452809E+02 0.  0.
          6    2    1    2  501    0 -0.11428654390E+03  0.55045503944E+02 -0.11316177866E+03  0.24255123897E+03  0.17301472121E+03 0.  0.
         24    2    5    5    0    0 -0.77064554690E+02  0.64278206590E+02 -0.54832604770E+01  0.12815074702E+03  0.79510467144E+02 0.  0.
          5    1    5    5  501    0 -0.37221989208E+02 -0.92327026457E+01 -0.10767851818E+03  0.11440049194E+03  0.47000000000E+01 0. -1.
        -11    1    6    6    0    0 -0.20011665183E+02  0.44724710540E+02 -0.35767495397E+02  0.60663664604E+02  0.00000000000E+00 0.  1.
         12    1    6    6    0    0 -0.57052889508E+02  0.19553496050E+02  0.30284234920E+02  0.67487082420E+02  0.00000000000E+00 0. -1.
         -5    1    3    3    0  503 -0.10741648076E+02 -0.12172728080E+02  0.15331658070E+02  0.22819028276E+02  0.47000000000E+01 0.  1.
         11    1    4    4    0    0  0.10033502029E+03 -0.87825345600E+01 -0.13584023197E+03  0.16910593671E+03  0.00000000000E+00 0. -1.
        -12    1    4    4    0    0  0.24693171687E+02 -0.34090241304E+02 -0.14823148756E+03  0.15409241118E+03  0.00000000000E+00 0.  1.
</event>
<event>
12    1  0.8417180E-002  0.2206924E+03  0.7818608E-02  0.1133716E+00
         21   -1    0    0  503  502  0.00000000000E+00  0.00000000000E+00  0.12919838991E+03  0.12919838991E+03  0.00000000000E+00 0.  1.
         21   -1    0    0  501  503 -0.00000000000E+00 -0.00000000000E+00 -0.10104645586E+04  0.10104645586E+04  0.00000000000E+00 0.  1.
          6    2    1    2  501    0 -0.10102376108E+03 -0.92295444911E+02 -0.89225523799E+03  0.91869709585E+03  0.17076502787E+03 0.  0.
         24    2    3    3    0    0 -0.12394686983E+03 -0.48913568105E+02 -0.79104375138E+03  0.80612129396E+03  0.79535905626E+02 0.  0.
         -6    2    1    2    0  502  0.10102376108E+03  0.92295444911E+02  0.10989069297E+02  0.22096585266E+03  0.17314993197E+03 0.  0.
        -24    2    5    5    0    0  0.12422174788E+03  0.10748758543E+03 -0.15646003441E+02  0.18223001880E+03  0.77319846481E+02 0.  0.
          5    1    3    3  501    0  0.22923108752E+02 -0.43381876806E+02 -0.10121148661E+03  0.11257580189E+03  0.47000000000E+01 0. -1.
        -11    1    4    4    0    0 -0.36829642114E+02 -0.47494669282E+02 -0.45558437532E+03  0.45953159759E+03  0.00000000000E+00 0.  1.
         12    1    4    4    0    0 -0.87117227719E+02 -0.14188988231E+01 -0.33545937607E+03  0.34658969637E+03  0.00000000000E+00 0. -1.
         -5    1    5    5    0  502 -0.23197986796E+02 -0.15192140522E+02  0.26635072737E+02  0.38735833859E+02  0.47000000000E+01 0.  1.
         13    1    6    6    0    0  0.14072160282E+02 -0.77004022892E+01  0.12563053797E+02  0.20375284320E+02  0.00000000000E+00 0. -1.
        -14    1    6    6    0    0  0.11014958760E+03  0.11518798772E+03 -0.28209057238E+02  0.16185473448E+03  0.00000000000E+00 0.  1.
</event>
<event>
12    1  0.8417180E-002  0.1889471E+03  0.7818608E-02  0.1160148E+00
         21   -1    0    0  503  502  0.00000000000E+00  0.00000000000E+00  0.28019438245E+03  0.28019438245E+03  0.00000000000E+00 0.  1.
         21   -1    0    0  501  503 -0.00000000000E+00 -0.00000000000E+00 -0.13108228243E+03  0.13108228243E+03  0.00000000000E+00 0.  1.
          6    2    1    2  501    0 -0.68557495074E+02  0.23026005212E+02  0.11726038353E+03  0.21966367935E+03  0.17109005651E+03 0.  0.
         24    2    3    3    0    0 -0.82072519904E+02  0.11024941217E+02  0.16532420402E+02  0.11721908951E+03  0.81299115427E+02 0.  0.
         -6    2    1    2    0  502  0.68557495074E+02 -0.23026005212E+02  0.31851716498E+02  0.19161298553E+03  0.17455852123E+03 0.  0.
        -24    2    5    5    0    0 -0.78452049330E+00  0.36725413222E+02  0.38892573499E+02  0.99687957408E+02  0.84117091783E+02 0.  0.
          5    1    3    3  501    0  0.13515024829E+02  0.12001063994E+02  0.10072796312E+03  0.10244458984E+03  0.47000000000E+01 0. -1.
        -13    1    4    4    0    0 -0.24029719220E+02  0.11231887200E+02  0.45256796114E+02  0.52457223433E+02  0.00000000000E+00 0.  1.
         14    1    4    4    0    0 -0.58042800684E+02 -0.20694598251E+00 -0.28724375712E+02  0.64761866078E+02  0.00000000000E+00 0. -1.
         -5    1    5    5    0  502  0.69342015568E+02 -0.59751418433E+02 -0.70408570005E+01  0.91925028121E+02  0.47000000000E+01 0.  1.
         13    1    6    6    0    0 -0.26018038395E+02  0.31327589131E+02 -0.12147153668E+02  0.42495993987E+02  0.00000000000E+00 0. -1.
        -14    1    6    6    0    0  0.25233517902E+02  0.53978240905E+01  0.51039727167E+02  0.57191963421E+02  0.00000000000E+00 0.  1.
</event>
<event>
12    1  0.8417180E-002  0.1803218E+03  0.7818608E-02  0.1167646E+00
         21   -1    0    0  503  502  0.00000000000E+00  0.00000000000E+00  0.22472059739E+03  0.22472059739E+03  0.00000000000E+00 0.  1.
         21   -1    0    0  501  503 -0.00000000000E+00 -0.00000000000E+00 -0.31500939234E+03  0.31500939234E+03  0.00000000000E+00 0.  1.
          6    2    1    2  501    0  0.20058667439E+02  0.49656718313E+02 -0.24390961085E+03  0.30332794553E+03  0.17218537819E+03 0.  0.
         24    2    3    3    0    0 -0.82716270795E+00 -0.24899451122E+02 -0.65337587652E+02  0.10863614352E+03  0.83139307517E+02 0.  0.
         -6    2    1    2    0  502 -0.20058667439E+02 -0.49656718313E+02  0.15362081590E+03  0.23640204419E+03  0.17151802123E+03 0.  0.
        -24    2    5    5    0    0 -0.43672148524E+02 -0.80026707804E+01  0.20057190702E+02  0.94437301595E+02  0.80900023099E+02 0.  0.
          5    1    3    3  501    0  0.20885830147E+02  0.74556169434E+02 -0.17857202320E+03  0.19469180201E+03  0.47000000000E+01 0. -1.
        -13    1    4    4    0    0  0.73249549335E+01 -0.29685721559E+02 -0.83082514622E+02  0.88530227975E+02  0.00000000000E+00 0.  1.
         14    1    4    4    0    0 -0.81521176414E+01  0.47862704373E+01  0.17744926970E+02  0.20105915545E+02  0.00000000000E+00 0. -1.
         -5    1    5    5    0  502  0.23613481085E+02 -0.41654047532E+02  0.13356362520E+03  0.14196474260E+03  0.47000000000E+01 0.  1.
         13    1    6    6    0    0 -0.32049966486E+02  0.31883218167E+02 -0.56850041927E+01  0.45563792918E+02  0.00000000000E+00 0. -1.
        -14    1    6    6    0    0 -0.11622182038E+02 -0.39885888947E+02  0.25742194894E+02  0.48873508677E+02  0.00000000000E+00 0.  1.
</event>
<event>
12    1  0.8417180E-002  0.2053772E+03  0.7818608E-02  0.1146228E+00
         21   -1    0    0  503  502  0.00000000000E+00  0.00000000000E+00  0.37837572172E+03  0.37837572172E+03  0.00000000000E+00 0.  1.
         21   -1    0    0  501  503 -0.00000000000E+00 -0.00000000000E+00 -0.20774602953E+03  0.20774602953E+03  0.00000000000E+00 0. -1.
          6    2    1    2  501    0 -0.10657765303E+03 -0.35234307230E+02 -0.11622383160E+03  0.23598252847E+03  0.17198698259E+03 0.  0.
         24    2    3    3    0    0 -0.44922458597E+02  0.19131234687E+02  0.18710377745E+01  0.92019118812E+02  0.77974265098E+02 0.  0.
         -6    2    1    2    0  502  0.10657765303E+03  0.35234307230E+02  0.28685352379E+03  0.35013922278E+03  0.16647005342E+03 0.  0.
        -24    2    5    5    0    0  0.29034680001E+02 -0.19340773913E+02  0.64764437408E+02  0.10860867722E+03  0.79902028988E+02 0.  0.
          5    1    3    3  501    0 -0.61655194434E+02 -0.54365541917E+02 -0.11809486937E+03  0.14396340966E+03  0.47000000000E+01 0. -1.
        -11    1    4    4    0    0 -0.56689822515E+02  0.23895557775E+02  0.24381566847E+02  0.66175482318E+02  0.00000000000E+00 0.  1.
         12    1    4    4    0    0  0.11767363918E+02 -0.47643230874E+01 -0.22510529073E+02  0.25843636493E+02  0.00000000000E+00 0. -1.
         -5    1    5    5    0  502  0.77542973030E+02  0.54575081143E+02  0.22208908638E+03  0.24153054556E+03  0.47000000000E+01 0.  1.
         11    1    6    6    0    0 -0.20290204053E+02  0.16293237953E+02  0.15273869088E+02  0.30173714727E+02  0.00000000000E+00 0. -1.
        -12    1    6    6    0    0  0.49324884054E+02 -0.35634011866E+02  0.49490568320E+02  0.78434962493E+02  0.00000000000E+00 0.  1.
</event>
<event>
12    1  0.8417180E-002  0.2101765E+03  0.7818608E-02  0.1141627E+00
         21   -1    0    0  503  502  0.00000000000E+00  0.00000000000E+00  0.16167378982E+03  0.16167378982E+03  0.00000000000E+00 0. -1.
         21   -1    0    0  501  503 -0.00000000000E+00 -0.00000000000E+00 -0.27242792384E+03  0.27242792384E+03  0.00000000000E+00 0. -1.
          6    2    1    2  501    0 -0.45447383573E+02  0.10941236889E+03 -0.64640855528E+02  0.21892596782E+03  0.17237635581E+03 0.  0.
         24    2    3    3    0    0  0.10406642723E+02  0.10179764239E+03  0.39617185386E+01  0.13000994293E+03  0.80098887870E+02 0.  0.
         -6    2    1    2    0  502  0.45447383573E+02 -0.10941236889E+03 -0.46113278499E+02  0.21517574584E+03  0.17360194701E+03 0.  0.
        -24    2    5    5    0    0  0.22200079011E+02 -0.10394018153E+03  0.31896589761E+02  0.13345664434E+03  0.74140937651E+02 0.  0.
          5    1    3    3  501    0 -0.55854026296E+02  0.76147264909E+01 -0.68602574066E+02  0.88916024886E+02  0.47000000000E+01 0. -1.
        -13    1    4    4    0    0 -0.23357784576E+02  0.81006855766E+00 -0.11977764827E+01  0.23402499436E+02  0.00000000000E+00 0.  1.
         14    1    4    4    0    0  0.33764427299E+02  0.10098757384E+03  0.51594950213E+01  0.10660744350E+03  0.00000000000E+00 0. -1.
         -5    1    5    5    0  502  0.23247304562E+02 -0.54721873545E+01 -0.78009868260E+02  0.81719101499E+02  0.47000000000E+01 0.  1.
         11    1    6    6    0    0  0.10671306145E+02 -0.10784793263E+03  0.10554941762E+02  0.10888737366E+03  0.00000000000E+00 0. -1.
        -12    1    6    6    0    0  0.11528772866E+02  0.39077510983E+01  0.21341647999E+02  0.24569270680E+02  0.00000000000E+00 0.  1.
</event>
<event>
12    1  0.8417180E-002  0.2687979E+03  0.7818608E-02  0.1102062E+00
         21   -1    0    0  501  502  0.00000000000E+00  0.00000000000E+00  0.10122126724E+04  0.10122126724E+04  0.00000000000E+00 0. -1.
         21   -1    0    0  502  503 -0.00000000000E+00 -0.00000000000E+00 -0.11709929697E+03  0.11709929697E+03  0.00000000000E+00 0.  1.
         -6    2    1    2    0  503  0.19519868207E+03  0.65840045042E+02  0.94405206706E+02  0.28489411224E+03  0.17266984427E+03 0.  0.
        -24    2    3    3    0    0  0.55106839076E+02  0.37658684087E+02 -0.14619203277E+02  0.10509331816E+03  0.79849509809E+02 0.  0.
          6    2    1    2  501    0 -0.19519868207E+03 -0.65840045042E+02  0.80070816874E+03  0.84441785716E+03  0.17166976724E+03 0.  0.
         24    2    5    5    0    0 -0.86899062325E+02  0.30943889840E+02  0.37959494461E+03  0.39893567432E+03  0.80922054590E+02 0.  0.
          5    1    5    5  501    0 -0.10829961975E+03 -0.96783934883E+02  0.42111322413E+03  0.44548218284E+03  0.47000000000E+01 0. -1.
        -13    1    6    6    0    0 -0.24743748025E+02  0.33183839968E+02  0.57259206252E+02  0.70654348783E+02  0.00000000000E+00 0.  1.
         14    1    6    6    0    0 -0.62155314300E+02 -0.22399501278E+01  0.32233573836E+03  0.32828132554E+03  0.00000000000E+00 0. -1.
         -5    1    3    3    0  503  0.14009184300E+03  0.28181360955E+02  0.10902440998E+03  0.17980079408E+03  0.47000000000E+01 0.  1.
         13    1    4    4    0    0 -0.20195721602E+02  0.96912233794E+01  0.36957865919E+01  0.22703431903E+02  0.00000000000E+00 0. -1.
        -14    1    4    4    0    0  0.75302560678E+02  0.27967460708E+02 -0.18314989869E+02  0.82389886254E+02  0.00000000000E+00 0.  1.
</event>
<event>
12    1  0.8417180E-002  0.2767667E+03  0.7818608E-02  0.1097527E+00
         21   -1    0    0  503  502  0.00000000000E+00  0.00000000000E+00  0.19911552690E+03  0.19911552690E+03  0.00000000000E+00 0. -1.
         21   -1    0    0  501  503 -0.00000000000E+00 -0.00000000000E+00 -0.42371472061E+03  0.42371472061E+03  0.00000000000E+00 0.  1.
          6    2    1    2  501    0  0.76045416670E+02 -0.20239298788E+03 -0.20743053321E+03  0.34553152619E+03  0.17210108235E+03 0.  0.
         24    2    3    3    0    0  0.22694301165E+01 -0.67581031334E+02 -0.14647459205E+03  0.18013842905E+03  0.80141758131E+02 0.  0.
         -6    2    1    2    0  502 -0.76045416670E+02  0.20239298788E+03 -0.17168660502E+02  0.27729872132E+03  0.17278307500E+03 0.  0.
        -24    2    5    5    0    0 -0.19122369107E+02  0.22092599781E+02 -0.22627700570E+02  0.88088905485E+02  0.79961831340E+02 0.  0.
          5    1    3    3  501    0  0.73775986554E+02 -0.13481195654E+03 -0.60955941166E+02  0.16539309714E+03  0.47000000000E+01 0. -1.
        -11    1    4    4    0    0  0.36063903304E+02 -0.57389090488E+02 -0.11124947053E+03  0.13027109242E+03  0.00000000000E+00 0.  1.
         12    1    4    4    0    0 -0.33794473188E+02 -0.10191940847E+02 -0.35225121518E+02  0.49867336626E+02  0.00000000000E+00 0. -1.
         -5    1    5    5    0  502 -0.56923047563E+02  0.18030038810E+03  0.54590400680E+01  0.18920981584E+03  0.47000000000E+01 0.  1.
         13    1    6    6    0    0 -0.58453472388E+01  0.20827141512E+02  0.28199589382E+02  0.35540888414E+02  0.00000000000E+00 0. -1.
        -14    1    6    6    0    0 -0.13277021868E+02  0.12654582686E+01 -0.50827289952E+02  0.52548017072E+02  0.00000000000E+00 0.  1.
</event>
<event>
12    1  0.8417180E-002  0.2331050E+03  0.7818608E-02  0.1125847E+00
         21   -1    0    0  503  502  0.00000000000E+00  0.00000000000E+00  0.41293676462E+03  0.41293676462E+03  0.00000000000E+00 0. -1.
         21   -1    0    0  501  503 -0.00000000000E+00 -0.00000000000E+00 -0.21001849679E+03  0.21001849679E+03  0.00000000000E+00 0. -1.
          6    2    1    2  501    0  0.10544107604E+03 -0.10034637040E+03 -0.95138554783E+02  0.24456947082E+03  0.17197577412E+03 0.  0.
         24    2    3    3    0    0  0.28817108179E+02 -0.98763714207E+02 -0.10557745676E+03  0.16707883961E+03  0.78638681978E+02 0.  0.
         -6    2    1    2    0  502 -0.10544107604E+03  0.10034637040E+03  0.29805682261E+03  0.37838579059E+03  0.18207339852E+03 0.  0.
        -24    2    5    5    0    0 -0.70775667535E+02 -0.55457923903E+01  0.12550953324E+03  0.17293628888E+03  0.95469189522E+02 0.  0.
          5    1    3    3  501    0  0.76623967857E+02 -0.15826561883E+01  0.10438901974E+02  0.77490631209E+02  0.47000000000E+01 0. -1.
        -13    1    4    4    0    0  0.43033231236E+02 -0.66416007668E+02 -0.31822886302E+02  0.85297368996E+02  0.00000000000E+00 0.  1.
         14    1    4    4    0    0 -0.14216123056E+02 -0.32347706539E+02 -0.73754570455E+02  0.81781470616E+02  0.00000000000E+00 0. -1.
         -5    1    5    5    0  502 -0.34665408501E+02  0.10589216279E+03  0.17254728937E+03  0.20544950172E+03  0.47000000000E+01 0.  1.
         11    1    6    6    0    0 -0.60598953966E+01 -0.42014239313E+00  0.10453827697E+03  0.10471461314E+03  0.00000000000E+00 0. -1.
        -12    1    6    6    0    0 -0.64715772139E+02 -0.51256499972E+01  0.20971256267E+02  0.68221675740E+02  0.00000000000E+00 0.  1.
</event>
<event>
12    1  0.8417180E-002  0.1805815E+03  0.7818608E-02  0.1167852E+00
         21   -1    0    0  503  502  0.00000000000E+00  0.00000000000E+00  0.47547788739E+03  0.47547788739E+03  0.00000000000E+00 0.  1.
         21   -1    0    0  501  503 -0.00000000000E+00 -0.00000000000E+00 -0.79998160305E+02  0.79998160305E+02  0.00000000000E+00 0.  1.
          6    2    1    2  501    0 -0.55423657023E+01 -0.53543828797E+02  0.87372464031E+02  0.19834895444E+03  0.16973715220E+03 0.  0.
         24    2    3    3    0    0  0.80609082811E+01 -0.82477606053E+02  0.78034350096E+01  0.11246803160E+03  0.75634851696E+02 0.  0.
         -6    2    1    2    0  502  0.55423657023E+01  0.53543828797E+02  0.30810726305E+03  0.35712709325E+03  0.17237173715E+03 0.  0.
        -24    2    5    5    0    0  0.38181689210E+02  0.33683516433E+02  0.66671861796E+02  0.11264212351E+03  0.75171072656E+02 0.  0.
          5    1    3    3  501    0 -0.13603273983E+02  0.28933777257E+02  0.79569029021E+02  0.85880922845E+02  0.47000000000E+01 0. -1.
        -13    1    4    4    0    0 -0.60162323024E+01  0.10871948034E+02 -0.10544393746E+02  0.16296580765E+02  0.00000000000E+00 0.  1.
         14    1    4    4    0    0  0.14077140583E+02 -0.93349554087E+02  0.18347828756E+02  0.96171450833E+02  0.00000000000E+00 0. -1.
         -5    1    5    5    0  502 -0.32639323508E+02  0.19860312364E+02  0.24143540125E+03  0.24448496973E+03  0.47000000000E+01 0.  1.
         13    1    6    6    0    0  0.20965217043E+02  0.43290330885E+02  0.55496735964E+01  0.48418921413E+02  0.00000000000E+00 0. -1.
        -14    1    6    6    0    0  0.17216472168E+02 -0.96068144521E+01  0.61122188200E+02  0.64223202101E+02  0.00000000000E+00 0.  1.
</event>
<event>
12    1  0.8417180E-002  0.1790941E+03  0.7818608E-02  0.1169158E+00
         21   -1    0    0  503  502  0.00000000000E+00  0.00000000000E+00  0.65643012945E+03  0.65643012945E+03  0.00000000000E+00 0.  1.
         21   -1    0    0  501  503 -0.00000000000E+00 -0.00000000000E+00 -0.66257284439E+02  0.66257284439E+02  0.00000000000E+00 0.  1.
          6    2    1    2  501    0  0.13469316243E+02  0.51378007837E+02  0.10598069339E+03  0.20643481155E+03  0.16900385167E+03 0.  0.
         24    2    3    3    0    0 -0.37075489232E+02  0.74176334117E+02  0.94733911505E+02  0.14966227290E+03  0.80917003750E+02 0.  0.
         -6    2    1    2    0  502 -0.13469316243E+02 -0.51378007837E+02  0.48419215162E+03  0.51625260234E+03  0.17103680179E+03 0.  0.
        -24    2    5    5    0    0 -0.61399796416E+02 -0.25037403877E+02  0.17442744309E+03  0.20166172041E+03  0.76457242831E+02 0.  0.
          5    1    3    3  501    0  0.50544805475E+02 -0.22798326280E+02  0.11246781888E+02  0.56772538648E+02  0.47000000000E+01 0. -1.
        -13    1    4    4    0    0  0.38909857697E+01 -0.70979194765E+01 -0.87018230939E+01  0.11884525919E+02  0.00000000000E+00 0.  1.
         14    1    4    4    0    0 -0.40966475002E+02  0.81274253594E+02  0.10343573460E+03  0.13777774698E+03  0.00000000000E+00 0. -1.
         -5    1    5    5    0  502  0.47930480174E+02 -0.26340603960E+02  0.30976470852E+03  0.31459088193E+03  0.47000000000E+01 0.  1.
         13    1    6    6    0    0 -0.21560232635E+02 -0.35147593306E+01  0.14722664763E+03  0.14883844576E+03  0.00000000000E+00 0. -1.
        -14    1    6    6    0    0 -0.39839563781E+02 -0.21522644547E+02  0.27200795462E+02  0.52823274646E+02  0.00000000000E+00 0.  1.
</event>
<event>
12    1  0.8417180E-002  0.1963551E+03  0.7818608E-02  0.1153047E+00
         21   -1    0    0  503  502  0.00000000000E+00  0.00000000000E+00  0.86786670777E+02  0.86786670777E+02  0.00000000000E+00 0. -1.
         21   -1    0    0  501  503 -0.00000000000E+00 -0.00000000000E+00 -0.58209692907E+03  0.58209692907E+03  0.00000000000E+00 0.  1.
          6    2    1    2  501    0  0.61191364144E+02  0.71736049834E+02 -0.41204305103E+03  0.45643708445E+03  0.17223499140E+03 0.  0.
         24    2    3    3    0    0  0.19900768409E+02  0.40990846057E+02 -0.38742131619E+03  0.39917889134E+03  0.84688966264E+02 0.  0.
         -6    2    1    2    0  502 -0.61191364144E+02 -0.71736049834E+02 -0.83267207258E+02  0.21244651540E+03  0.17120061392E+03 0.  0.
        -24    2    5    5    0    0  0.30236286379E+01  0.29957854811E+02 -0.35982765422E+02  0.83128597150E+02  0.68622072700E+02 0.  0.
          5    1    3    3  501    0  0.41290595735E+02  0.30745203777E+02 -0.24621734839E+02  0.57258193107E+02  0.47000000000E+01 0. -1.
        -13    1    4    4    0    0  0.34681445477E+02  0.54511125900E+02 -0.35669827154E+03  0.36250230679E+03  0.00000000000E+00 0.  1.
         14    1    4    4    0    0 -0.14780677068E+02 -0.13520279842E+02 -0.30723044651E+02  0.36676584549E+02  0.00000000000E+00 0. -1.
         -5    1    5    5    0  502 -0.64214992782E+02 -0.10169390465E+03 -0.47284441835E+02  0.12931791825E+03  0.47000000000E+01 0.  1.
         13    1    6    6    0    0 -0.49925718615E+01  0.13622120105E+00  0.19229420321E+02  0.19867434054E+02  0.00000000000E+00 0. -1.
        -14    1    6    6    0    0  0.80162004994E+01  0.29821633610E+02 -0.55212185744E+02  0.63261163095E+02  0.00000000000E+00 0.  1.
</event>
<event>
12    1  0.8417180E-002  0.2225468E+03  0.7818608E-02  0.1132246E+00
         21   -1    0    0  503  502  0.00000000000E+00  0.00000000000E+00  0.15770023476E+03  0.15770023476E+03  0.00000000000E+00 0.  1.
         21   -1    0    0  501  503 -0.00000000000E+00 -0.00000000000E+00 -0.97075622055E+03  0.97075622055E+03  0.00000000000E+00 0.  1.
          6    2    1    2  501    0  0.14047772479E+03 -0.47403456830E+01 -0.87086858203E+03  0.89852307076E+03  0.17080737537E+03 0.  0.
         24    2    3    3    0    0  0.16327819322E+03  0.16287262505E+02 -0.76500296899E+03  0.78810731241E+03  0.94649617081E+02 0.  0.
         -6    2    1    2    0  502 -0.14047772479E+03  0.47403456830E+01  0.57812596239E+02  0.22993338456E+03  0.17254159791E+03 0.  0.
        -24    2    5    5    0    0 -0.12952250353E+03  0.31057428061E+02 -0.11841247542E+02  0.15452546951E+03  0.77441996528E+02 0.  0.
          5    1    3    3  501    0 -0.22800468430E+02 -0.21027608188E+02 -0.10586561304E+03  0.11041575835E+03  0.47000000000E+01 0. -1.
        -13    1    4    4    0    0  0.86440798434E+02  0.20315946323E+02 -0.59388366118E+03  0.60048526404E+03  0.00000000000E+00 0.  1.
         14    1    4    4    0    0  0.76837394790E+02 -0.40286838175E+01 -0.17111930780E+03  0.18762204837E+03  0.00000000000E+00 0. -1.
         -5    1    5    5    0  502 -0.10955221263E+02 -0.26317082378E+02  0.69653843781E+02  0.75407915044E+02  0.47000000000E+01 0.  1.
         11    1    6    6    0    0 -0.12602786370E+01 -0.14532866841E+02 -0.11215080381E+02  0.18400286651E+02  0.00000000000E+00 0. -1.
        -12    1    6    6    0    0 -0.12826222489E+03  0.45590294902E+02 -0.62616716109E+00  0.13612518286E+03  0.00000000000E+00 0.  1.
</event>
<event>
12    1  0.8417180E-002  0.2024794E+03  0.7818608E-02  0.1147695E+00
         21   -1    0    0  503  502  0.00000000000E+00  0.00000000000E+00  0.81500846419E+03  0.81500846419E+03  0.00000000000E+00 0.  1.
         21   -1    0    0  501  503 -0.00000000000E+00 -0.00000000000E+00 -0.50544569220E+02  0.50544569220E+02  0.00000000000E+00 0.  1.
          6    2    1    2  501    0 -0.56989468402E+02  0.89826758326E+02  0.35027676229E+03  0.40458832516E+03  0.17228249078E+03 0.  0.
         24    2    3    3    0    0 -0.21842004917E+02  0.12183063909E+03  0.21089365574E+03  0.25724745179E+03  0.79877028098E+02 0.  0.
         -6    2    1    2    0  502  0.56989468402E+02 -0.89826758326E+02  0.41418713268E+03  0.46096470825E+03  0.17210704622E+03 0.  0.
        -24    2    5    5    0    0  0.25202247038E+01 -0.99493357308E+02  0.36580690580E+03  0.38732315750E+03  0.79367854460E+02 0.  0.
          5    1    3    3  501    0 -0.35147463485E+02 -0.32003880768E+02  0.13938310655E+03  0.14734087337E+03  0.47000000000E+01 0. -1.
        -13    1    4    4    0    0  0.62862455345E+01  0.61090453926E+02  0.16508055192E+03  0.17613389528E+03  0.00000000000E+00 0.  1.
         14    1    4    4    0    0 -0.28128250452E+02  0.60740185168E+02  0.45813103824E+02  0.81113556510E+02  0.00000000000E+00 0. -1.
         -5    1    5    5    0  502  0.54469243698E+02  0.96665989822E+01  0.48380226873E+02  0.73641550753E+02  0.47000000000E+01 0.  1.
         13    1    6    6    0    0  0.90002579271E+01 -0.11184033545E+02  0.18937291769E+03  0.18991626893E+03  0.00000000000E+00 0. -1.
        -14    1    6    6    0    0 -0.64800332233E+01 -0.88309323763E+02  0.17643398811E+03  0.19740688857E+03  0.00000000000E+00 0.  1.
</event>
<event>
12    1  0.8417180E-002  0.2164577E+03  0.7818608E-02  0.1136596E+00
         21   -1    0    0  501  502  0.00000000000E+00  0.00000000000E+00  0.21785870853E+03  0.21785870853E+03  0.00000000000E+00 0.  1.
         21   -1    0    0  502  503 -0.00000000000E+00 -0.00000000000E+00 -0.25238524072E+03  0.25238524072E+03  0.00000000000E+00 0. -1.
         -6    2    1    2    0  503 -0.89433476757E+02  0.94787098826E+02 -0.10794610000E+03  0.24167363974E+03  0.17254230429E+03 0.  0.
        -24    2    3    3    0    0 -0.41867498174E+02  0.73726375119E+02  0.40139762372E+01  0.11812921424E+03  0.82157978672E+02 0.  0.
          6    2    1    2  501    0  0.89433476757E+02 -0.94787098826E+02  0.73419567813E+02  0.22857030951E+03  0.17283232505E+03 0.  0.
         24    2    5    5    0    0  0.96374873322E+02 -0.65412107816E+02 -0.11324762588E+02  0.13848832120E+03  0.74053391571E+02 0.  0.
          5    1    5    5  501    0 -0.69413965645E+01 -0.29374991011E+02  0.84744330401E+02  0.90081988312E+02  0.47000000000E+01 0. -1.
        -13    1    6    6    0    0  0.23191770854E+02  0.15771319325E+02 -0.78871077940E+01  0.29134158954E+02  0.00000000000E+00 0.  1.
         14    1    6    6    0    0  0.73183102468E+02 -0.81183427140E+02 -0.34376547943E+01  0.10935416224E+03  0.00000000000E+00 0. -1.
         -5    1    3    3    0  503 -0.47565978583E+02  0.21060723708E+02 -0.11196007624E+03  0.12354442550E+03  0.47000000000E+01 0.  1.
         11    1    4    4    0    0 -0.21452090256E+02  0.32769229958E+02 -0.39037346745E+02  0.55298544730E+02  0.00000000000E+00 0. -1.
        -12    1    4    4    0    0 -0.20415407918E+02  0.40957145161E+02  0.43051322982E+02  0.62830669507E+02  0.00000000000E+00 0.  1.
</event>
<event>
12    1  0.8417180E-002  0.1742469E+03  0.7818608E-02  0.1174284E+00
         21   -1    0    0  503  502  0.00000000000E+00  0.00000000000E+00  0.12139363803E+03  0.12139363803E+03  0.00000000000E+00 0.  1.
         21   -1    0    0  501  503 -0.00000000000E+00 -0.00000000000E+00 -0.24960507116E+03  0.24960507116E+03  0.00000000000E+00 0.  1.
          6    2    1    2  501    0 -0.30312362555E+01  0.32274433418E+02 -0.40224067706E+02  0.17579687115E+03  0.16803492744E+03 0.  0.
         24    2    3    3    0    0 -0.19818667733E+02 -0.36678520090E+02  0.56309211949E+01  0.91173602129E+02  0.80887730992E+02 0.  0.
         -6    2    1    2    0  502  0.30312362555E+01 -0.32274433418E+02 -0.87987365427E+02  0.19520183804E+03  0.17120500476E+03 0.  0.
        -24    2    5    5    0    0  0.21281505382E+02 -0.77146341209E+02 -0.24148113263E+02  0.11492668280E+03  0.78870467298E+02 0.  0.
          5    1    3    3  501    0  0.16787431477E+02  0.68952953508E+02 -0.45854988901E+02  0.84623269023E+02  0.47000000000E+01 0. -1.
        -11    1    4    4    0    0 -0.30540260858E+02 -0.40423238715E+00  0.32634850155E+02  0.44697923685E+02  0.00000000000E+00 0.  1.
         12    1    4    4    0    0  0.10721593126E+02 -0.36274287703E+02 -0.27003928960E+02  0.46475678444E+02  0.00000000000E+00 0. -1.
         -5    1    5    5    0  502 -0.18250269127E+02  0.44871907791E+02 -0.63839252164E+02  0.80275155240E+02  0.47000000000E+01 0.  1.
         13    1    6    6    0    0  0.49997351314E+02 -0.34052694116E+02 -0.10794399475E+02  0.61447865504E+02  0.00000000000E+00 0. -1.
        -14    1    6    6    0    0 -0.28715845932E+02 -0.43093647092E+02 -0.13353713788E+02  0.53478817295E+02  0.00000000000E+00 0.  1.
</event>
<event>
12    1  0.8417180E-002  0.2169234E+03  0.7818608E-02  0.1136218E+00
         21   -1    0    0  501  502  0.00000000000E+00  0.00000000000E+00  0.86588562668E+02  0.86588562668E+02  0.00000000000E+00 0. -1.
         21   -1    0    0  502  503 -0.00000000000E+00 -0.00000000000E+00 -0.58364503102E+03  0.58364503102E+03  0.00000000000E+00 0.  1.
         -6    2    1    2    0  503  0.11740018190E+03  0.61119732955E+02 -0.16022819562E+03  0.26959779113E+03  0.17173080633E+03 0.  0.
        -24    2    3    3    0    0 -0.96231618266E+01  0.15156402443E+02 -0.56282975423E+02  0.99086042543E+02  0.79548404924E+02 0.  0.
          6    2    1    2  501    0 -0.11740018190E+03 -0.61119732955E+02 -0.33682827273E+03  0.40063580256E+03  0.17186429681E+03 0.  0.
         24    2    5    5    0    0 -0.51279519886E+02 -0.87506441498E+02 -0.27363495756E+03  0.30532743244E+03  0.89787440877E+02 0.  0.
          5    1    5    5  501    0 -0.66120662012E+02  0.26386708544E+02 -0.63193315174E+02  0.95308370123E+02  0.47000000000E+01 0. -1.
        -11    1    6    6    0    0 -0.59684799782E+02 -0.51604512868E+02 -0.24844270782E+03  0.26067044355E+03  0.00000000000E+00 0.  1.
         12    1    6    6    0    0  0.84052798965E+01 -0.35901928630E+02 -0.25192249736E+02  0.44656988885E+02  0.00000000000E+00 0. -1.
         -5    1    3    3    0  503  0.12702334372E+03  0.45963330511E+02 -0.10394522020E+03  0.17051174858E+03  0.47000000000E+01 0.  1.
         11    1    4    4    0    0  0.78318487539E+01  0.20317670312E+02  0.14394306715E+02  0.26102521863E+02  0.00000000000E+00 0. -1.
        -12    1    4    4    0    0 -0.17455010580E+02 -0.51612678685E+01 -0.70677282138E+02  0.72983520680E+02  0.00000000000E+00 0.  1.
</event>
<event>
12    1  0.8417180E-002  0.1926482E+03  0.7818608E-02  0.1156571E+00
         21   -1    0    0  503  502  0.00000000000E+00  0.00000000000E+00  0.35554209108E+02  0.35554209108E+02  0.00000000000E+00 0. -1.
         21   -1    0    0  501  503 -0.00000000000E+00 -0.00000000000E+00 -0.15704355492E+04  0.15704355492E+04  0.00000000000E+00 0. -1.
          6    2    1    2  501    0 -0.45029941037E+02 -0.75237201512E+02 -0.12346780816E+04  0.12492891255E+04  0.16913019160E+03 0.  0.
         24    2    3    3    0    0 -0.85392605884E+02 -0.18049257582E+02 -0.85808515369E+03  0.86621742330E+03  0.80030123043E+02 0.  0.
         -6    2    1    2    0  502  0.45029941037E+02  0.75237201512E+02 -0.30020325843E+03  0.35670063279E+03  0.17153720582E+03 0.  0.
        -24    2    5    5    0    0  0.55359584873E+02  0.87171874777E+02 -0.11519444363E+03  0.17096025075E+03  0.72760072182E+02 0.  0.
          5    1    3    3  501    0  0.40362664847E+02 -0.57187943929E+02 -0.37659292796E+03  0.38307170221E+03  0.47000000000E+01 0. -1.
        -11    1    4    4    0    0 -0.36608565564E+02  0.24355883556E+02 -0.53030323480E+03  0.53212302804E+03  0.00000000000E+00 0.  1.
         12    1    4    4    0    0 -0.48784040320E+02 -0.42405141139E+02 -0.32778191889E+03  0.33409439525E+03  0.00000000000E+00 0. -1.
         -5    1    5    5    0  502 -0.10329643837E+02 -0.11934673265E+02 -0.18500881480E+03  0.18574038204E+03  0.47000000000E+01 0.  1.
         11    1    6    6    0    0  0.37965024729E+02  0.83792553842E+02 -0.12128279940E+03  0.15222369267E+03  0.00000000000E+00 0. -1.
        -12    1    6    6    0    0  0.17394560145E+02  0.33793209347E+01  0.60883557659E+01  0.18736558076E+02  0.00000000000E+00 0.  1.
</event>
<event>
12    1  0.8417180E-002  0.3017256E+03  0.7818608E-02  0.1084474E+00
         21   -1    0    0  503  502  0.00000000000E+00  0.00000000000E+00  0.26611955064E+03  0.26611955064E+03  0.00000000000E+00 0.  1.
         21   -1    0    0  501  503 -0.00000000000E+00 -0.00000000000E+00 -0.61876317864E+03  0.61876317864E+03  0.00000000000E+00 0. -1.
          6    2    1    2  501    0 -0.10764769121E+03  0.22285179781E+03 -0.47274709404E+03  0.56082806953E+03  0.17259014872E+03 0.  0.
         24    2    3    3    0    0  0.72464699129E+01  0.11631225650E+03 -0.26680699918E+03  0.30201393777E+03  0.80283195385E+02 0.  0.
         -6    2    1    2    0  502  0.10764769121E+03 -0.22285179781E+03  0.12010346605E+03  0.32405465975E+03  0.17127647456E+03 0.  0.
        -24    2    5    5    0    0  0.97908349454E+02 -0.21786023104E+03  0.54190255671E+02  0.25707397732E+03  0.78110952134E+02 0.  0.
          5    1    3    3  501    0 -0.11489416112E+03  0.10653954132E+03 -0.20594009487E+03  0.25881413176E+03  0.47000000000E+01 0. -1.
        -11    1    4    4    0    0  0.28808394085E+02  0.10560134143E+03 -0.16949179806E+03  0.20176480489E+03  0.00000000000E+00 0.  1.
         12    1    4    4    0    0 -0.21561924172E+02  0.10710915065E+02 -0.97315201118E+02  0.10024913288E+03  0.00000000000E+00 0. -1.
         -5    1    5    5    0  502  0.97393417523E+01 -0.49915667746E+01  0.65913210379E+02  0.66980682432E+02  0.47000000000E+01 0.  1.
         13    1    6    6    0    0  0.37892377936E+02 -0.95618667436E+02 -0.15637923792E+02  0.10403512161E+03  0.00000000000E+00 0. -1.
        -14    1    6    6    0    0  0.60015971518E+02 -0.12224156360E+03  0.69828179463E+02  0.15303885571E+03  0.00000000000E+00 0.  1.
</event>
<event>
12    1  0.8417180E-002  0.1911634E+03  0.7818608E-02  0.1157647E+00
         21   -1    0    0  503  502  0.00000000000E+00  0.00000000000E+00  0.14537913828E+03  0.14537913828E+03  0.00000000000E+00 0.  1.
         21   -1    0    0  501  503 -0.00000000000E+00 -0.00000000000E+00 -0.28874156461E+03  0.28874156461E+03  0.00000000000E+00 0.  1.
          6    2    1    2  501    0 -0.50835368689E+02 -0.65300782350E+02 -0.15133945236E+03  0.24381767238E+03  0.17232237417E+03 0.  0.
         24    2    3    3    0    0 -0.75825144810E+02 -0.82825608747E+01 -0.14663440315E+03  0.18120941431E+03  0.74277521804E+02 0.  0.
         -6    2    1    2    0  502  0.50835368689E+02  0.65300782350E+02  0.79770260275E+01  0.19030303051E+03  0.17118172680E+03 0.  0.
        -24    2    5    5    0    0 -0.13515582071E+02 -0.11975581619E+02 -0.16321529660E+02  0.86740531981E+02  0.83255282380E+02 0.  0.
          5    1    3    3  501    0  0.24989776121E+02 -0.57018221476E+02 -0.47050492088E+01  0.62608258073E+02  0.47000000000E+01 0. -1.
        -13    1    4    4    0    0 -0.36216798617E+02 -0.41159136841E+02 -0.70546459435E+02  0.89345027766E+02  0.00000000000E+00 0.  1.
         14    1    4    4    0    0 -0.39608346193E+02  0.32876575967E+02 -0.76087943716E+02  0.91864386540E+02  0.00000000000E+00 0. -1.
         -5    1    5    5    0  502  0.64350950760E+02  0.77276363969E+02  0.24298555687E+02  0.10356249852E+03  0.47000000000E+01 0.  1.
         11    1    6    6    0    0 -0.29000281470E+02  0.22296317384E+02 -0.29392471182E+02  0.46926106342E+02  0.00000000000E+00 0. -1.
        -12    1    6    6    0    0  0.15484699400E+02 -0.34271899003E+02  0.13070941522E+02  0.39814425639E+02  0.00000000000E+00 0.  1.
</event>
<event>
12    1  0.8417180E-002  0.1850908E+03  0.7818608E-02  0.1167618E+00
         21   -1    0    0  503  502  0.00000000000E+00  0.00000000000E+00  0.54433828808E+02  0.54433828808E+02  0.00000000000E+00 0.  1.
         21   -1    0    0  501  503 -0.00000000000E+00 -0.00000000000E+00 -0.66692639145E+03  0.66692639145E+03  0.00000000000E+00 0.  1.
          6    2    1    2  501    0  0.14835082416E+02 -0.65476877548E+02 -0.45967380693E+03  0.49553870513E+03  0.17248564676E+03 0.  0.
         24    2    3    3    0    0  0.42381993999E+02  0.78766279797E+01 -0.24818932455E+03  0.26995646868E+03  0.97058124239E+02 0.  0.
         -6    2    1    2    0  502 -0.14835082416E+02  0.65476877548E+02 -0.15281875572E+03  0.22582151514E+03  0.15210024140E+03 0.  0.
        -24    2    5    5    0    0  0.27477162577E+02  0.36470496756E+02 -0.35587550969E+02  0.97770972108E+02  0.78788308815E+02 0.  0.
          5    1    3    3  501    0 -0.27546911583E+02 -0.73353505528E+02 -0.21148448238E+03  0.22558223644E+03  0.47000000000E+01 0. -1.
        -11    1    4    4    0    0 -0.30932764313E+02  0.83069062595E+01 -0.91995107863E+02  0.97411192737E+02  0.00000000000E+00 0.  1.
         12    1    4    4    0    0  0.73314758312E+02 -0.43027827986E+00 -0.15619421668E+03  0.17254527594E+03  0.00000000000E+00 0. -1.
         -5    1    5    5    0  502 -0.42312244993E+02  0.29006380793E+02 -0.11723120475E+03  0.12805054303E+03  0.47000000000E+01 0.  1.
         13    1    6    6    0    0  0.27729463827E+02 -0.16109688873E+02  0.34906493129E+01  0.32258795271E+02  0.00000000000E+00 0. -1.
        -14    1    6    6    0    0 -0.25230124977E+00  0.52580185628E+02 -0.39078200282E+02  0.65512176837E+02  0.00000000000E+00 0.  1.
</event>
<event>
12    1  0.8417180E-002  0.2090046E+03  0.7818608E-02  0.1142924E+00
         21   -1    0    0  503  502  0.00000000000E+00  0.00000000000E+00  0.58127341393E+03  0.58127341393E+03  0.00000000000E+00 0.  1.
         21   -1    0    0  501  503 -0.00000000000E+00 -0.00000000000E+00 -0.85048730437E+03  0.85048730437E+03  0.00000000000E+00 0. -1.
          6    2    1    2  501    0  0.91343499532E+02 -0.67483490493E+02 -0.81865261509E+03  0.84491125470E+03  0.17545731028E+03 0.  0.
         24    2    3    3    0    0  0.42341433136E+02 -0.15683028376E+02 -0.70344543588E+03  0.70934107166E+03  0.79312800689E+02 0.  0.
         -6    2    1    2    0  502 -0.91343499532E+02  0.67483490493E+02  0.54943872465E+03  0.58684946360E+03  0.17208057525E+03 0.  0.
        -24    2    5    5    0    0 -0.67370379719E+02 -0.23143783281E+02  0.36623677257E+03  0.38100229099E+03  0.77194361090E+02 0.  0.
          5    1    3    3  501    0  0.49002066396E+02 -0.51800462117E+02 -0.11520717921E+03  0.13557018304E+03  0.47000000000E+01 0. -1.
        -13    1    4    4    0    0 -0.19777953591E+02  0.10071891664E+02 -0.24291197812E+03  0.24392383968E+03  0.00000000000E+00 0.  1.
         14    1    4    4    0    0  0.62119386727E+02 -0.25754920039E+02 -0.46053345775E+03  0.46541723198E+03  0.00000000000E+00 0. -1.
         -5    1    5    5    0  502 -0.23973119813E+02  0.90627273774E+02  0.18320195208E+03  0.20584717261E+03  0.47000000000E+01 0.  1.
         11    1    6    6    0    0 -0.69860837073E+02 -0.28727007819E+02  0.18725792938E+03  0.20191906708E+03  0.00000000000E+00 0. -1.
        -12    1    6    6    0    0  0.24904573545E+01  0.55832245379E+01  0.17897884319E+03  0.17908322390E+03  0.00000000000E+00 0.  1.
</event>
<event>
12    1  0.8417180E-002  0.2123544E+03  0.7818608E-02  0.1141522E+00
         21   -1    0    0  501  502  0.00000000000E+00  0.00000000000E+00  0.82927208362E+03  0.82927208362E+03  0.00000000000E+00 0. -1.
         21   -1    0    0  502  503 -0.00000000000E+00 -0.00000000000E+00 -0.19198588376E+03  0.19198588376E+03  0.00000000000E+00 0. -1.
         -6    2    1    2    0  503  0.11236292227E+03  0.34443234992E+02 -0.11533932224E+03  0.24165581047E+03  0.17686890270E+03 0.  0.
        -24    2    3    3    0    0  0.91190109592E+02 -0.37624972095E+02 -0.10727056002E+03  0.16596360881E+03  0.79408260198E+02 0.  0.
          6    2    1    2  501    0 -0.11236292227E+03 -0.34443234992E+02  0.75262552211E+03  0.77960215690E+03  0.16589931821E+03 0.  0.
         24    2    5    5    0    0 -0.14360032320E+03 -0.39071127018E+02  0.58031003646E+03  0.60435402084E+03  0.79601748076E+02 0.  0.
          5    1    5    5  501    0  0.31237400925E+02  0.46278920257E+01  0.17231548565E+03  0.17524813607E+03  0.47000000000E+01 0. -1.
        -11    1    6    6    0    0  0.10872892453E+00  0.48792040963E+01 -0.21441116438E-01  0.48804625102E+01  0.00000000000E+00 0.  1.
         12    1    6    6    0    0 -0.14370905212E+03 -0.43950331115E+02  0.58033147758E+03  0.59947355833E+03  0.00000000000E+00 0. -1.
         -5    1    3    3    0  503  0.21172812680E+02  0.72068207088E+02 -0.80687622152E+01  0.75692201668E+02  0.47000000000E+01 0.  1.
         11    1    4    4    0    0  0.29868190974E+02  0.20035255723E+02 -0.58530975876E+02  0.68697856160E+02  0.00000000000E+00 0. -1.
        -12    1    4    4    0    0  0.61321918618E+02 -0.57660227818E+02 -0.48739584148E+02  0.97265752647E+02  0.00000000000E+00 0.  1.
</event>
<event>
12    1  0.8417180E-002  0.3493845E+03  0.7818608E-02  0.1063186E+00
         21   -1    0    0  501  502  0.00000000000E+00  0.00000000000E+00  0.58532415095E+03  0.58532415095E+03  0.00000000000E+00 0. -1.
         21   -1    0    0  502  503 -0.00000000000E+00 -0.00000000000E+00 -0.30758839040E+03  0.30758839040E+03  0.00000000000E+00 0. -1.
         -6    2    1    2    0  503 -0.25260360915E+03  0.16249714542E+03 -0.11721652217E+03  0.36560158332E+03  0.17236849779E+03 0.  0.
        -24    2    3    3    0    0 -0.22048800933E+03  0.17266779957E+03 -0.55231784259E+02  0.29489761107E+03  0.74060244104E+02 0.  0.
          6    2    1    2  501    0  0.25260360915E+03 -0.16249714542E+03  0.39495228273E+03  0.52731095803E+03  0.17848147017E+03 0.  0.
         24    2    5    5    0    0  0.10459936160E+03 -0.16946111315E+02  0.10510581040E+03  0.17076723231E+03  0.82982040928E+02 0.  0.
          5    1    5    5  501    0  0.14800424755E+03 -0.14555103410E+03  0.28984647233E+03  0.35654372571E+03  0.47000000000E+01 0. -1.
        -11    1    6    6    0    0  0.87137595787E+02 -0.33929367042E+02  0.40839227694E+02  0.10203923297E+03  0.00000000000E+00 0.  1.
         12    1    6    6    0    0  0.17461765811E+02  0.16983255728E+02  0.64266582707E+02  0.68727999339E+02  0.00000000000E+00 0. -1.
         -5    1    3    3    0  503 -0.32115599827E+02 -0.10170654152E+02 -0.61984737916E+02  0.70703972255E+02  0.47000000000E+01 0.  1.
         13    1    4    4    0    0 -0.13767201154E+03  0.84016815473E+02  0.75692773994E+00  0.16128540226E+03  0.00000000000E+00 0. -1.
        -14    1    4    4    0    0 -0.82815997788E+02  0.88650984095E+02 -0.55988711999E+02  0.13361220881E+03  0.00000000000E+00 0.  1.
</event>
<event>
12    1  0.8417180E-002  0.1832152E+03  0.7818608E-02  0.1164990E+00
         21   -1    0    0  503  502  0.00000000000E+00  0.00000000000E+00  0.18491437388E+03  0.18491437388E+03  0.00000000000E+00 0.  1.
         21   -1    0    0  501  503 -0.00000000000E+00 -0.00000000000E+00 -0.26684174462E+03  0.26684174462E+03  0.00000000000E+00 0.  1.
          6    2    1    2  501    0  0.26008742352E+02 -0.55797732755E+02 -0.16958206168E+03  0.24965152069E+03  0.17256292905E+03 0.  0.
         24    2    3    3    0    0 -0.10691090567E+02  0.24607426731E+01 -0.16170830039E+03  0.18018920132E+03  0.78728769755E+02 0.  0.
         -6    2    1    2    0  502 -0.26008742352E+02  0.55797732755E+02  0.87654690937E+02  0.20210459780E+03  0.17138576939E+03 0.  0.
        -24    2    5    5    0    0  0.21327981850E+02  0.53677238458E+02 -0.57202368460E+01  0.97289383767E+02  0.78079282437E+02 0.  0.
          5    1    3    3  501    0  0.36699832919E+02 -0.58258475428E+02 -0.78737612890E+01  0.69462319371E+02  0.47000000000E+01 0. -1.
        -13    1    4    4    0    0 -0.23636958557E+02 -0.13175280192E+02 -0.12856707668E+02  0.29959785547E+02  0.00000000000E+00 0.  1.
         14    1    4    4    0    0  0.12945867990E+02  0.15636022866E+02 -0.14885159272E+03  0.15022941578E+03  0.00000000000E+00 0. -1.
         -5    1    5    5    0  502 -0.47336724202E+02  0.21204942972E+01  0.93374927783E+02  0.10481521403E+03  0.47000000000E+01 0.  1.
         13    1    6    6    0    0 -0.26791727382E+02  0.12094639049E+02  0.11237657818E+02  0.31470015936E+02  0.00000000000E+00 0. -1.
        -14    1    6    6    0    0  0.48119709232E+02  0.41582599409E+02 -0.16957894664E+02  0.65819367830E+02  0.00000000000E+00 0.  1.
</event>
<event>
12    1  0.8417180E-002  0.2000401E+03  0.7818608E-02  0.1149931E+00
         21   -1    0    0  501  502  0.00000000000E+00  0.00000000000E+00  0.31859213551E+03  0.31859213551E+03  0.00000000000E+00 0.  1.
         21   -1    0    0  502  503 -0.00000000000E+00 -0.00000000000E+00 -0.19701330467E+03  0.19701330467E+03  0.00000000000E+00 0.  1.
         -6    2    1    2    0  503  0.38368650764E+02 -0.94956812911E+02 -0.95249114137E+02  0.22059626419E+03  0.17059123176E+03 0.  0.
        -24    2    3    3    0    0  0.78336352386E+02 -0.35763667164E+02 -0.29622279081E+02  0.12348695900E+03  0.83402192001E+02 0.  0.
          6    2    1    2  501    0 -0.38368650764E+02  0.94956812911E+02  0.21682794498E+03  0.29500917599E+03  0.17183453237E+03 0.  0.
         24    2    5    5    0    0 -0.76002662449E+02  0.10951094006E+03  0.19233562623E+03  0.24757390293E+03  0.80813325649E+02 0.  0.
          5    1    5    5  501    0  0.37634011685E+02 -0.14554127152E+02  0.24492318746E+02  0.47435273059E+02  0.47000000000E+01 0. -1.
        -13    1    6    6    0    0 -0.38208595667E+02  0.24381622515E+02  0.12408220435E+03  0.13210130104E+03  0.00000000000E+00 0.  1.
         14    1    6    6    0    0 -0.37794066781E+02  0.85129317547E+02  0.68253421882E+02  0.11547260190E+03  0.00000000000E+00 0. -1.
         -5    1    3    3    0  503 -0.39967701622E+02 -0.59193145746E+02 -0.65626835056E+02  0.97109305197E+02  0.47000000000E+01 0.  1.
         11    1    4    4    0    0  0.11753486420E+02  0.26205855086E+02 -0.10194536905E+02  0.30476546172E+02  0.00000000000E+00 0. -1.
        -12    1    4    4    0    0  0.66582865966E+02 -0.61969522251E+02 -0.19427742175E+02  0.93010412827E+02  0.00000000000E+00 0.  1.
</event>
<event>
12    1  0.8417180E-002  0.2349981E+03  0.7818608E-02  0.1125588E+00
         21   -1    0    0  503  502  0.00000000000E+00  0.00000000000E+00  0.74800203056E+03  0.74800203056E+03  0.00000000000E+00 0. -1.
         21   -1    0    0  501  503 -0.00000000000E+00 -0.00000000000E+00 -0.89525502849E+02  0.89525502849E+02  0.00000000000E+00 0.  1.
          6    2    1    2  501    0  0.14057283568E+03 -0.26174996957E+01  0.12404373594E+03  0.25371034093E+03  0.17092254161E+03 0.  0.
         24    2    3    3    0    0  0.30553287904E+01  0.46767791145E+01  0.61117512479E+02  0.10223073569E+03  0.81759193308E+02 0.  0.
         -6    2    1    2    0  502 -0.14057283568E+03  0.26174996957E+01  0.53443279177E+03  0.58381719248E+03  0.18829904907E+03 0.  0.
        -24    2    5    5    0    0 -0.14718903295E+02 -0.22853149308E+01  0.36107769413E+03  0.36948723711E+03  0.76953547127E+02 0.  0.
          5    1    3    3  501    0  0.13751750689E+03 -0.72942788102E+01  0.62926223463E+02  0.15147960524E+03  0.47000000000E+01 0. -1.
        -11    1    4    4    0    0 -0.20260647309E+02  0.40524674737E+01 -0.13079613983E+02  0.24453887706E+02  0.00000000000E+00 0.  1.
         12    1    4    4    0    0  0.23315976099E+02  0.62431164072E+00  0.74197126462E+02  0.77776847980E+02  0.00000000000E+00 0. -1.
         -5    1    5    5    0  502 -0.12585393239E+03  0.49028146265E+01  0.17335509765E+03  0.21432995537E+03  0.47000000000E+01 0.  1.
         11    1    6    6    0    0 -0.67834376889E+01 -0.36335544942E+02  0.11137007557E+03  0.11734385619E+03  0.00000000000E+00 0. -1.
        -12    1    6    6    0    0 -0.79354656060E+01  0.34050230011E+02  0.24970761856E+03  0.25214338093E+03  0.00000000000E+00 0.  1.
</event>
<event>
12    1  0.8417180E-002  0.2351988E+03  0.7818608E-02  0.1123266E+00
         21   -1    0    0  501  502  0.00000000000E+00  0.00000000000E+00  0.49570524605E+03  0.49570524605E+03  0.00000000000E+00 0. -1.
         21   -1    0    0  502  503 -0.00000000000E+00 -0.00000000000E+00 -0.13315367642E+03  0.13315367642E+03  0.00000000000E+00 0. -1.
         -6    2    1    2    0  503  0.75373925991E+02 -0.13999333636E+03  0.53323704307E+02  0.24116778567E+03  0.17331797499E+03 0.  0.
        -24    2    3    3    0    0  0.66705313576E+02 -0.14646390427E+03  0.91263354765E+02  0.20143719082E+03  0.79665976479E+02 0.  0.
          6    2    1    2  501    0 -0.75373925991E+02  0.13999333636E+03  0.30922786532E+03  0.38769113681E+03  0.17147356042E+03 0.  0.
         24    2    5    5    0    0  0.18930915729E+02  0.53802853999E+02  0.16631184962E+03  0.19593796221E+03  0.86480790036E+02 0.  0.
          5    1    5    5  501    0 -0.94304841720E+02  0.86190482366E+02  0.14291601570E+03  0.19175317459E+03  0.47000000000E+01 0. -1.
        -13    1    6    6    0    0 -0.19773319659E+02 -0.89305859428E+01  0.11691881625E+02  0.24646290422E+02  0.00000000000E+00 0.  1.
         14    1    6    6    0    0  0.38704235388E+02  0.62733439941E+02  0.15461996799E+03  0.17129167179E+03  0.00000000000E+00 0. -1.
         -5    1    3    3    0  503  0.86686124149E+01  0.64705679040E+01 -0.37939650458E+02  0.39730594849E+02  0.47000000000E+01 0.  1.
         13    1    4    4    0    0  0.26988414713E+02 -0.10131231736E+03  0.17545280746E+02  0.10630332570E+03  0.00000000000E+00 0. -1.
        -14    1    4    4    0    0  0.39716898864E+02 -0.45151586909E+02  0.73718074020E+02  0.95133865122E+02  0.00000000000E+00 0.  1.
</event>
<event>
12    1  0.8417180E-002  0.1742095E+03  0.7818608E-02  0.1173729E+00
         21   -1    0    0  503  502  0.00000000000E+00  0.00000000000E+00  0.16190512884E+02  0.16190512884E+02  0.00000000000E+00 0.  1.
         21   -1    0    0  501  503 -0.00000000000E+00 -0.00000000000E+00 -0.29094304779E+04  0.29094304779E+04  0.00000000000E+00 0.  1.
          6    2    1    2  501    0 -0.18828780802E+02 -0.15165777342E+02 -0.23205435545E+04  0.23270141668E+04  0.17172076243E+03 0.  0.
         24    2    3    3    0    0 -0.54054926862E+02 -0.63092758718E+02 -0.16600089305E+04  0.16637902555E+04  0.75271068956E+02 0.  0.
         -6    2    1    2    0  502  0.18828780802E+02  0.15165777342E+02 -0.57269641048E+03  0.59860682397E+03  0.17252370081E+03 0.  0.
        -24    2    5    5    0    0  0.23066440086E+02  0.34215013266E+02 -0.14330710148E+03  0.16874859173E+03  0.78971096514E+02 0.  0.
          5    1    3    3  501    0  0.35226146061E+02  0.47926981376E+02 -0.66053462403E+03  0.66322391124E+03  0.47000000000E+01 0. -1.
        -13    1    4    4    0    0 -0.35608470096E+02 -0.22600026525E+02 -0.13442605317E+04  0.13449219685E+04  0.00000000000E+00 0.  1.
         14    1    4    4    0    0 -0.18446456766E+02 -0.40492732193E+02 -0.31574839882E+03  0.31886828705E+03  0.00000000000E+00 0. -1.
         -5    1    5    5    0  502 -0.42376592840E+01 -0.19049235924E+02 -0.42938930900E+03  0.42985823224E+03  0.47000000000E+01 0.  1.
         11    1    6    6    0    0 -0.28140085139E+02  0.40006564041E+01 -0.60099058062E+02  0.66481323868E+02  0.00000000000E+00 0. -1.
        -12    1    6    6    0    0  0.51206525225E+02  0.30214356862E+02 -0.83208043421E+02  0.10226726786E+03  0.00000000000E+00 0.  1.
</event>
<event>
12    1  0.8417180E-002  0.2591102E+03  0.7818608E-02  0.1107777E+00
         21   -1    0    0  503  502  0.00000000000E+00  0.00000000000E+00  0.18965116036E+03  0.18965116036E+03  0.00000000000E+00 0. -1.
         21   -1    0    0  501  503 -0.00000000000E+00 -0.00000000000E+00 -0.78578087031E+03  0.78578087031E+03  0.00000000000E+00 0. -1.
          6    2    1    2  501    0 -0.19123615186E+03  0.30384905768E+02 -0.65979662195E+03  0.70861455413E+03  0.17119724214E+03 0.  0.
         24    2    3    3    0    0 -0.19406351086E+03 -0.13576247822E+02 -0.58356809290E+03  0.62044735147E+03  0.80982937378E+02 0.  0.
         -6    2    1    2    0  502  0.19123615186E+03 -0.30384905768E+02  0.63666912006E+02  0.26681747654E+03  0.17217311586E+03 0.  0.
        -24    2    5    5    0    0  0.21653643890E+03 -0.29761985939E+02  0.62100832739E+02  0.24102920095E+03  0.80403713262E+02 0.  0.
          5    1    3    3  501    0  0.28273590018E+01  0.43961153591E+02 -0.76228529053E+02  0.88167202663E+02  0.47000000000E+01 0. -1.
        -13    1    4    4    0    0 -0.11118964793E+02 -0.24961826310E+02 -0.82201147159E+02  0.86624204153E+02  0.00000000000E+00 0.  1.
         14    1    4    4    0    0 -0.18294454607E+03  0.11385578487E+02 -0.50136694574E+03  0.53382314732E+03  0.00000000000E+00 0. -1.
         -5    1    5    5    0  502 -0.25300287040E+02 -0.62291982920E+00  0.15660792676E+01  0.25788275586E+02  0.47000000000E+01 0.  1.
         11    1    6    6    0    0  0.19683459125E+03 -0.51505918363E+02  0.52059239835E+02  0.21001638125E+03  0.00000000000E+00 0. -1.
        -12    1    6    6    0    0  0.19701847647E+02  0.21743932424E+02  0.10041592904E+02  0.31012819704E+02  0.00000000000E+00 0.  1.
</event>
<event>
12    1  0.8417180E-002  0.2049699E+03  0.7818608E-02  0.1146409E+00
         21   -1    0    0  501  502  0.00000000000E+00  0.00000000000E+00  0.79614407020E+02  0.79614407020E+02  0.00000000000E+00 0.  1.
         21   -1    0    0  502  503 -0.00000000000E+00 -0.00000000000E+00 -0.13037917015E+04  0.13037917015E+04  0.00000000000E+00 0.  1.
         -6    2    1    2    0  503  0.81764857862E+02 -0.63275191393E+02 -0.11468262011E+04  0.11643265831E+04  0.17250163685E+03 0.  0.
        -24    2    3    3    0    0  0.33988380621E+02 -0.30668917071E+01 -0.92833174412E+03  0.93265969106E+03  0.83003953792E+02 0.  0.
          6    2    1    2  501    0 -0.81764857862E+02  0.63275191393E+02 -0.77351093405E+02  0.21907952546E+03  0.17698419421E+03 0.  0.
         24    2    5    5    0    0 -0.84642142127E+02  0.10435810626E+03 -0.35055859159E+02  0.15985907715E+03  0.79190306975E+02 0.  0.
          5    1    5    5  501    0  0.28772842654E+01 -0.41082914867E+02 -0.42295234246E+02  0.59220448315E+02  0.47000000000E+01 0. -1.
        -11    1    6    6    0    0 -0.28198401439E+02  0.21624141410E+02  0.24660245973E+02  0.43253682697E+02  0.00000000000E+00 0.  1.
         12    1    6    6    0    0 -0.56443740689E+02  0.82733964850E+02 -0.59716105132E+02  0.11660539445E+03  0.00000000000E+00 0. -1.
         -5    1    3    3    0  503  0.47776477241E+02 -0.60208299686E+02 -0.21849445699E+03  0.23166689203E+03  0.47000000000E+01 0.  1.
         13    1    4    4    0    0  0.26480382486E+02  0.19995049656E+02 -0.13716903208E+03  0.14112532030E+03  0.00000000000E+00 0. -1.
        -14    1    4    4    0    0  0.75079981343E+01 -0.23061941363E+02 -0.79116271204E+03  0.79153437077E+03  0.00000000000E+00 0.  1.
</event>
<event>
12    1  0.8417180E-002  0.1855627E+03  0.7818608E-02  0.1162647E+00
         21   -1    0    0  501  502  0.00000000000E+00  0.00000000000E+00  0.77261030355E+02  0.77261030355E+02  0.00000000000E+00 0.  1.
         21   -1    0    0  502  503 -0.00000000000E+00 -0.00000000000E+00 -0.58947188260E+03  0.58947188260E+03  0.00000000000E+00 0. -1.
         -6    2    1    2    0  503 -0.12578724415E+02 -0.66349469233E+02 -0.42119795547E+03  0.46005228832E+03  0.17227859393E+03 0.  0.
        -24    2    3    3    0    0 -0.71010883992E+02 -0.15133621786E+02 -0.26472631577E+03  0.28528717643E+03  0.77699283297E+02 0.  0.
          6    2    1    2  501    0  0.12578724415E+02  0.66349469233E+02 -0.91012896779E+02  0.20668062463E+03  0.17283823895E+03 0.  0.
         24    2    5    5    0    0 -0.43780687490E+02 -0.22277393881E+01 -0.77093707201E+02  0.11670812500E+03  0.75865903606E+02 0.  0.
          5    1    5    5  501    0  0.56359411904E+02  0.68577208622E+02 -0.13919189577E+02  0.89972499637E+02  0.47000000000E+01 0. -1.
        -13    1    6    6    0    0  0.68547013699E+01 -0.17852166206E+02  0.42849201715E+01  0.19597125044E+02  0.00000000000E+00 0.  1.
         14    1    6    6    0    0 -0.50635388860E+02  0.15624426818E+02 -0.81378627373E+02  0.97110999951E+02  0.00000000000E+00 0. -1.
         -5    1    3    3    0  503  0.58432159578E+02 -0.51215847448E+02 -0.15647163970E+03  0.17476511189E+03  0.47000000000E+01 0.  1.
         11    1    4    4    0    0 -0.42384270079E+02 -0.80851713088E+00 -0.24283336655E+03  0.24650582946E+03  0.00000000000E+00 0. -1.
        -12    1    4    4    0    0 -0.28626613913E+02 -0.14325104655E+02 -0.21892949220E+02  0.38781346973E+02  0.00000000000E+00 0.  1.
</event>
<event>
12    1  0.8417180E-002  0.2111767E+03  0.7818608E-02  0.1142246E+00
         21   -1    0    0  503  502  0.00000000000E+00  0.00000000000E+00  0.66905014955E+03  0.66905014955E+03  0.00000000000E+00 0. -1.
         21   -1    0    0  501  503 -0.00000000000E+00 -0.00000000000E+00 -0.37860771841E+03  0.37860771841E+03  0.00000000000E+00 0. -1.
          6    2    1    2  501    0  0.44501096549E+02 -0.97600377838E+02 -0.33263353233E+03  0.38976786363E+03  0.17253329921E+03 0.  0.
         24    2    3    3    0    0  0.92963887246E+01  0.75185333466E+01 -0.17453980721E+03  0.19662265176E+03  0.89740580006E+02 0.  0.
         -6    2    1    2    0  502 -0.44501096549E+02  0.97600377838E+02  0.62307596348E+03  0.65789000433E+03  0.18190497571E+03 0.  0.
        -24    2    5    5    0    0 -0.80548772333E+02  0.53564364425E+02  0.55372939323E+03  0.56805881703E+03  0.81959336365E+02 0.  0.
          5    1    3    3  501    0  0.35204707825E+02 -0.10511891118E+03 -0.15809372513E+03  0.19314521186E+03  0.47000000000E+01 0. -1.
        -11    1    4    4    0    0 -0.30814816338E+02  0.18788133717E+02 -0.32394110435E+02  0.48496652105E+02  0.00000000000E+00 0.  1.
         12    1    4    4    0    0  0.40111205063E+02 -0.11269600371E+02 -0.14214569677E+03  0.14812599966E+03  0.00000000000E+00 0. -1.
         -5    1    5    5    0  502  0.36047675783E+02  0.44036013413E+02  0.69346570243E+02  0.89831187296E+02  0.47000000000E+01 0.  1.
         11    1    6    6    0    0 -0.45385729355E+02  0.63501807164E+02  0.47362996395E+03  0.48001842329E+03  0.00000000000E+00 0. -1.
        -12    1    6    6    0    0 -0.35163042977E+02 -0.99374427388E+01  0.80099429282E+02  0.88040393745E+02  0.00000000000E+00 0.  1.
</event>
<event>
12    1  0.8417180E-002  0.1832647E+03  0.7818608E-02  0.1165243E+00
         21   -1    0    0  501  502  0.00000000000E+00  0.00000000000E+00  0.94792105526E+02  0.94792105526E+02  0.00000000000E+00 0. -1.
         21   -1    0    0  502  503 -0.00000000000E+00 -0.00000000000E+00 -0.36699927301E+03  0.36699927301E+03  0.00000000000E+00 0. -1.
         -6    2    1    2    0  503 -0.39393757076E+02  0.38654928299E+02 -0.18699279705E+03  0.26182486589E+03  0.17475663842E+03 0.  0.
        -24    2    3    3    0    0 -0.86231130055E+02  0.47047943260E+02 -0.16154328419E+03  0.20765891799E+03  0.85887582328E+02 0.  0.
          6    2    1    2  501    0  0.39393757076E+02 -0.38654928299E+02 -0.85214370434E+02  0.19996651264E+03  0.17227607400E+03 0.  0.
         24    2    5    5    0    0 -0.39389625753E+02 -0.26267033840E+01 -0.13219561329E+02  0.87227003426E+02  0.76650839117E+02 0.  0.
          5    1    5    5  501    0  0.78783382829E+02 -0.36028224915E+02 -0.71994809106E+02  0.11273950922E+03  0.47000000000E+01 0. -1.
        -11    1    6    6    0    0 -0.96556613482E+01  0.20532061506E+02 -0.36464021871E+02  0.42946737208E+02  0.00000000000E+00 0.  1.
         12    1    6    6    0    0 -0.29733964404E+02 -0.23158764890E+02  0.23244460543E+02  0.44280266218E+02  0.00000000000E+00 0. -1.
         -5    1    3    3    0  503  0.46837372978E+02 -0.83930149614E+01 -0.25449512867E+02  0.54165947908E+02  0.47000000000E+01 0.  1.
         13    1    4    4    0    0 -0.54050921860E+02  0.55052488423E+02 -0.15600370987E+03  0.17403860528E+03  0.00000000000E+00 0. -1.
        -14    1    4    4    0    0 -0.32180208194E+02 -0.80045451635E+01 -0.55395743163E+01  0.33620312704E+02  0.00000000000E+00 0.  1.
</event>
<event>
12    1  0.8417180E-002  0.1935318E+03  0.7818608E-02  0.1155490E+00
         21   -1    0    0  503  502  0.00000000000E+00  0.00000000000E+00  0.59627263054E+03  0.59627263054E+03  0.00000000000E+00 0. -1.
         21   -1    0    0  501  503 -0.00000000000E+00 -0.00000000000E+00 -0.67768401986E+02  0.67768401986E+02  0.00000000000E+00 0.  1.
          6    2    1    2  501    0  0.79485287146E+02 -0.39611341138E+02  0.17167099327E+03  0.25810442708E+03  0.17105553523E+03 0.  0.
         24    2    3    3    0    0 -0.18106183785E+02 -0.28017724367E+01  0.48451412538E+02  0.96598406697E+02  0.81535446154E+02 0.  0.
         -6    2    1    2    0  502 -0.79485287146E+02  0.39611341138E+02  0.35683323529E+03  0.40593660544E+03  0.17195232075E+03 0.  0.
        -24    2    5    5    0    0 -0.67624685373E+02 -0.17145173247E+02  0.32043955849E+03  0.33731761747E+03  0.78959542639E+02 0.  0.
          5    1    3    3  501    0  0.97591470931E+02 -0.36809568701E+02  0.12321958073E+03  0.16150602039E+03  0.47000000000E+01 0. -1.
        -11    1    4    4    0    0 -0.45939665361E+01 -0.36821787349E+02  0.15988778282E+01  0.37141687663E+02  0.00000000000E+00 0.  1.
         12    1    4    4    0    0 -0.13512217249E+02  0.34020014912E+02  0.46852534710E+02  0.59456719035E+02  0.00000000000E+00 0. -1.
         -5    1    5    5    0  502 -0.11860601773E+02  0.56756514385E+02  0.36393676800E+02  0.68618987974E+02  0.47000000000E+01 0.  1.
         11    1    6    6    0    0 -0.20706191116E+01  0.18960013479E+02  0.14951806674E+03  0.15072963165E+03  0.00000000000E+00 0. -1.
        -12    1    6    6    0    0 -0.65554066262E+02 -0.36105186726E+02  0.17092149174E+03  0.18658798582E+03  0.00000000000E+00 0.  1.
</event>
<event>
12    1  0.8417180E-002  0.2091402E+03  0.7818608E-02  0.1142323E+00
         21   -1    0    0  501  502  0.00000000000E+00  0.00000000000E+00  0.37211755051E+03  0.37211755051E+03  0.00000000000E+00 0. -1.
         21   -1    0    0  502  503 -0.00000000000E+00 -0.00000000000E+00 -0.72376058825E+03  0.72376058825E+03  0.00000000000E+00 0. -1.
         -6    2    1    2    0  503  0.82006362160E+02  0.85738674030E+02 -0.67740848971E+03  0.70895831367E+03  0.17223084778E+03 0.  0.
        -24    2    3    3    0    0  0.19818532917E+02  0.34553747621E+02 -0.13796184855E+03  0.16351171549E+03  0.78204051860E+02 0.  0.
          6    2    1    2  501    0 -0.82006362160E+02 -0.85738674030E+02  0.32576545197E+03  0.38691982509E+03  0.17177793133E+03 0.  0.
         24    2    5    5    0    0 -0.58785288955E+02 -0.27833009740E+02  0.30348296732E+03  0.32050534384E+03  0.79946090266E+02 0.  0.
          5    1    5    5  501    0 -0.23221073204E+02 -0.57905664290E+02  0.22282484652E+02  0.66414481251E+02  0.47000000000E+01 0. -1.
        -13    1    6    6    0    0 -0.39924840757E+02  0.24876462329E+02  0.13418911411E+03  0.14219546277E+03  0.00000000000E+00 0.  1.
         14    1    6    6    0    0 -0.18860448198E+02 -0.52709472069E+02  0.16929385321E+03  0.17830988107E+03  0.00000000000E+00 0. -1.
         -5    1    3    3    0  503  0.62187829243E+02  0.51184926409E+02 -0.53944664116E+03  0.54544659818E+03  0.47000000000E+01 0.  1.
         11    1    4    4    0    0  0.83236355808E+01  0.57573375685E+02 -0.11564543243E+03  0.12945208588E+03  0.00000000000E+00 0. -1.
        -12    1    4    4    0    0  0.11494897336E+02 -0.23019628064E+02 -0.22316416117E+02  0.34059629612E+02  0.00000000000E+00 0.  1.
</event>
<event>
12    1  0.8417180E-002  0.2180353E+03  0.7818608E-02  0.1135897E+00
         21   -1    0    0  501  502  0.00000000000E+00  0.00000000000E+00  0.60016293666E+02  0.60016293666E+02  0.00000000000E+00 0. -1.
         21   -1    0    0  502  503 -0.00000000000E+00 -0.00000000000E+00 -0.92430338803E+03  0.92430338803E+03  0.00000000000E+00 0. -1.
         -6    2    1    2    0  503 -0.11651355931E+03 -0.56750274545E+02 -0.62298551735E+03  0.65910304890E+03  0.17178437379E+03 0.  0.
        -24    2    3    3    0    0 -0.92857899641E+02 -0.24601750004E+02 -0.60175551015E+03  0.61365064445E+03  0.72315861400E+02 0.  0.
          6    2    1    2  501    0  0.11651355931E+03  0.56750274545E+02 -0.24130157702E+03  0.32521663280E+03  0.17533797082E+03 0.  0.
         24    2    5    5    0    0  0.78165516988E+02  0.10215023883E+03 -0.20423250075E+03  0.25501737695E+03  0.82331214267E+02 0.  0.
          5    1    5    5  501    0  0.38348042322E+02 -0.45399964283E+02 -0.37069076266E+02  0.70199255851E+02  0.47000000000E+01 0. -1.
        -11    1    6    6    0    0 -0.15351660722E+02  0.14367923819E+02 -0.12890028132E+02  0.24662999555E+02  0.00000000000E+00 0.  1.
         12    1    6    6    0    0  0.93517177710E+02  0.87782315010E+02 -0.19134247262E+03  0.23035437739E+03  0.00000000000E+00 0. -1.
         -5    1    3    3    0  503 -0.23655659670E+02 -0.32148524541E+02 -0.21230007200E+02  0.45452404450E+02  0.47000000000E+01 0.  1.
         13    1    4    4    0    0 -0.41869671044E+02  0.16716424056E+02 -0.13559990903E+03  0.14289801789E+03  0.00000000000E+00 0. -1.
        -14    1    4    4    0    0 -0.50988228597E+02 -0.41318174060E+02 -0.46615560111E+03  0.47075262656E+03  0.00000000000E+00 0.  1.
</event>
<event>
12    1  0.8417180E-002  0.2227693E+03  0.7818608E-02  0.1132364E+00
         21   -1    0    0  501  502  0.00000000000E+00  0.00000000000E+00  0.18899359147E+04  0.18899359147E+04  0.00000000000E+00 0. -1.
         21   -1    0    0  502  503 -0.00000000000E+00 -0.00000000000E+00 -0.25989884154E+02  0.25989884154E+02  0.00000000000E+00 0. -1.
         -6    2    1    2    0  503  0.12904714662E+03 -0.42600114765E+02  0.98709305765E+03  0.10119184080E+04  0.17651692306E+03 0.  0.
        -24    2    3    3    0    0  0.29481686344E+00 -0.18797503784E+02  0.24843730694E+03  0.26173300773E+03  0.80185028443E+02 0.  0.
          6    2    1    2  501    0 -0.12904714662E+03  0.42600114765E+02  0.87685297291E+03  0.90400739088E+03  0.17288808763E+03 0.  0.
         24    2    5    5    0    0 -0.46085820276E+02 -0.39745486543E+02  0.34391480832E+03  0.35838063476E+03  0.80347230556E+02 0.  0.
          5    1    5    5  501    0 -0.82961326340E+02  0.82345601308E+02  0.53293816459E+03  0.54562675612E+03  0.47000000000E+01 0. -1.
        -13    1    6    6    0    0 -0.28704106140E+02 -0.53911456381E+02  0.31927805234E+03  0.32506744769E+03  0.00000000000E+00 0.  1.
         14    1    6    6    0    0 -0.17381714136E+02  0.14165969839E+02  0.24636755975E+02  0.33313187070E+02  0.00000000000E+00 0. -1.
         -5    1    3    3    0  503  0.12875232975E+03 -0.23802610982E+02  0.73865575071E+03  0.75018540026E+03  0.47000000000E+01 0.  1.
         11    1    4    4    0    0  0.30489204942E+02 -0.10295253859E+02  0.41923423954E+02  0.52850329668E+02  0.00000000000E+00 0. -1.
        -12    1    4    4    0    0 -0.30194388078E+02 -0.85022499245E+01  0.20651388299E+03  0.20888267806E+03  0.00000000000E+00 0.  1.
</event>
<event>
12    1  0.8417180E-002  0.1769030E+03  0.7818608E-02  0.1170919E+00
         21   -1    0    0  503  502  0.00000000000E+00  0.00000000000E+00  0.84893188257E+02  0.84893188257E+02  0.00000000000E+00 0. -1.
         21   -1    0    0  501  503 -0.00000000000E+00 -0.00000000000E+00 -0.37708559753E+03  0.37708559753E+03  0.00000000000E+00 0. -1.
          6    2    1    2  501    0 -0.38995964139E+02 -0.71812519707E+01 -0.18224194822E+03  0.25398189513E+03  0.17240191346E+03 0.  0.
         24    2    3    3    0    0 -0.52593501018E+02 -0.66298644562E+02 -0.13170074572E+03  0.17488535750E+03  0.77962909278E+02 0.  0.
         -6    2    1    2    0  502  0.38995964139E+02  0.71812519707E+01 -0.10995046105E+03  0.20799689065E+03  0.17205042004E+03 0.  0.
        -24    2    5    5    0    0  0.23095223666E+02 -0.87463351627E+01 -0.14390845237E+03  0.16698766298E+03  0.81026842409E+02 0.  0.
          5    1    3    3  501    0  0.13597536879E+02  0.59117392592E+02 -0.50541202500E+02  0.79096537637E+02  0.47000000000E+01 0. -1.
        -11    1    4    4    0    0  0.19677116293E+02 -0.18526684985E+02 -0.20500683294E+02  0.33922042651E+02  0.00000000000E+00 0.  1.
         12    1    4    4    0    0 -0.72270617311E+02 -0.47771959578E+02 -0.11120006243E+03  0.14096331484E+03  0.00000000000E+00 0. -1.
         -5    1    5    5    0  502  0.15900740473E+02  0.15927587133E+02  0.33957991318E+02  0.41009227667E+02  0.47000000000E+01 0.  1.
         13    1    6    6    0    0  0.16856740720E+02 -0.39099410437E+02 -0.39504012714E+02  0.58081672021E+02  0.00000000000E+00 0. -1.
        -14    1    6    6    0    0  0.62384829460E+01  0.30353075274E+02 -0.10440443965E+03  0.10890599096E+03  0.00000000000E+00 0.  1.
</event>
<event>
12    1  0.8417180E-002  0.2051270E+03  0.7818608E-02  0.1145565E+00
         21   -1    0    0  503  502  0.00000000000E+00  0.00000000000E+00  0.32604285367E+03  0.32604285367E+03  0.00000000000E+00 0.  1.
         21   -1    0    0  501  503 -0.00000000000E+00 -0.00000000000E+00 -0.13761821400E+03  0.13761821400E+03  0.00000000000E+00 0.  1.
          6    2    1    2  501    0 -0.10514534968E+03  0.35823093911E+02  0.35630958608E+02  0.20819856914E+03  0.17244779025E+03 0.  0.
         24    2    3    3    0    0 -0.24272774848E+02  0.71540627201E+02  0.44700129730E+02  0.11920162869E+03  0.80645506668E+02 0.  0.
         -6    2    1    2    0  502  0.10514534968E+03 -0.35823093911E+02  0.15279368106E+03  0.25546249853E+03  0.17197773276E+03 0.  0.
        -24    2    5    5    0    0  0.14268475102E+03 -0.34159675443E+02  0.12212147679E+03  0.20673008909E+03  0.79359013630E+02 0.  0.
          5    1    3    3  501    0 -0.80872574832E+02 -0.35717533290E+02 -0.90691711219E+01  0.88996940448E+02  0.47000000000E+01 0. -1.
        -13    1    4    4    0    0 -0.52492903089E+02  0.53071254580E+02  0.41284822325E+02  0.85302400269E+02  0.00000000000E+00 0.  1.
         14    1    4    4    0    0  0.28220128241E+02  0.18469372622E+02  0.34153074055E+01  0.33899228422E+02  0.00000000000E+00 0. -1.
         -5    1    5    5    0  502 -0.37539401341E+02 -0.16634184678E+01  0.30672204278E+02  0.48732409435E+02  0.47000000000E+01 0.  1.
         11    1    6    6    0    0  0.31392023705E+02 -0.16952864063E+01 -0.80159935451E+01  0.32443632670E+02  0.00000000000E+00 0. -1.
        -12    1    6    6    0    0  0.11129272732E+03 -0.32464389037E+02  0.13013747033E+03  0.17428645642E+03  0.00000000000E+00 0.  1.
</event>
<event>
12    1  0.8417180E-002  0.2296588E+03  0.7818608E-02  0.1126951E+00
         21   -1    0    0  503  502  0.00000000000E+00  0.00000000000E+00  0.23491615887E+03  0.23491615887E+03  0.00000000000E+00 0. -1.
         21   -1    0    0  501  503 -0.00000000000E+00 -0.00000000000E+00 -0.25001242062E+03  0.25001242062E+03  0.00000000000E+00 0.  1.
          6    2    1    2  501    0 -0.15012525322E+03 -0.26298010495E+02 -0.85561992844E+02  0.24470251680E+03  0.17125796360E+03 0.  0.
         24    2    3    3    0    0 -0.16257252763E+02  0.29999829967E+02 -0.27711115534E+02  0.88309094968E+02  0.76591789798E+02 0.  0.
         -6    2    1    2    0  502  0.15012525322E+03  0.26298010495E+02  0.70465731091E+02  0.24022606269E+03  0.17179628904E+03 0.  0.
        -24    2    5    5    0    0  0.11682017319E+03  0.49660066701E+02  0.10789795992E+03  0.18474385130E+03  0.79845136032E+02 0.  0.
          5    1    3    3  501    0 -0.13386800045E+03 -0.56297840462E+02 -0.57850877310E+02  0.15639342183E+03  0.47000000000E+01 0. -1.
        -13    1    4    4    0    0 -0.14692389164E+01  0.23834078449E+02 -0.53137098946E+02  0.58256100478E+02  0.00000000000E+00 0.  1.
         14    1    4    4    0    0 -0.14788013847E+02  0.61657515175E+01  0.25425983412E+02  0.30052994489E+02  0.00000000000E+00 0. -1.
         -5    1    5    5    0  502  0.33305080025E+02 -0.23362056205E+02 -0.37432228831E+02  0.55482211391E+02  0.47000000000E+01 0.  1.
         11    1    6    6    0    0  0.34496921503E+02  0.38648370028E+02  0.43294281330E+01  0.51985363777E+02  0.00000000000E+00 0. -1.
        -12    1    6    6    0    0  0.82323251687E+02  0.11011696673E+02  0.10356853179E+03  0.13275848752E+03  0.00000000000E+00 0.  1.
</event>
<event>
12    1  0.8417180E-002  0.1830397E+03  0.7818608E-02  0.1165865E+00
         21   -1    0    0  501  502  0.00000000000E+00  0.00000000000E+00  0.11545442930E+03  0.11545442930E+03  0.00000000000E+00 0. -1.
         21   -1    0    0  502  503 -0.00000000000E+00 -0.00000000000E+00 -0.76294781152E+03  0.76294781152E+03  0.00000000000E+00 0. -1.
         -6    2    1    2    0  503 -0.32414288829E+01  0.58567674777E+02 -0.67044897371E+03  0.69392868118E+03  0.16909910947E+03 0.  0.
        -24    2    3    3    0    0  0.14260578545E+02  0.60060985740E+02 -0.66782164964E+03  0.67555633584E+03  0.81116712531E+02 0.  0.
          6    2    1    2  501    0  0.32414288829E+01 -0.58567674777E+02  0.22955591488E+02  0.18447355965E+03  0.17338643441E+03 0.  0.
         24    2    5    5    0    0 -0.61829693998E+02 -0.62300954154E+02  0.11707612900E+02  0.11816522359E+03  0.78240858368E+02 0.  0.
          5    1    5    5  501    0  0.65071122881E+02  0.37332793776E+01  0.11247978588E+02  0.66308336054E+02  0.47000000000E+01 0. -1.
        -13    1    6    6    0    0  0.88045497863E+00  0.37418136712E+01 -0.21036729878E+02  0.21385050257E+02  0.00000000000E+00 0.  1.
         14    1    6    6    0    0 -0.62710148977E+02 -0.66042767825E+02  0.32744342778E+02  0.96780173335E+02  0.00000000000E+00 0. -1.
         -5    1    3    3    0  503 -0.17502007428E+02 -0.14933109632E+01 -0.26273240709E+01  0.18372345344E+02  0.47000000000E+01 0.  1.
         13    1    4    4    0    0  0.17589777805E+02  0.50185802297E+02 -0.18168075974E+03  0.18930375986E+03  0.00000000000E+00 0. -1.
        -14    1    4    4    0    0 -0.33291992596E+01  0.98751834429E+01 -0.48614088990E+03  0.48625257598E+03  0.00000000000E+00 0.  1.
</event>
<event>
12    1  0.8417180E-002  0.2211662E+03  0.7818608E-02  0.1134352E+00
         21   -1    0    0  501  502  0.00000000000E+00  0.00000000000E+00  0.11919237023E+03  0.11919237023E+03  0.00000000000E+00 0.  1.
         21   -1    0    0  502  503 -0.00000000000E+00 -0.00000000000E+00 -0.41407790209E+03  0.41407790209E+03  0.00000000000E+00 0.  1.
         -6    2    1    2    0  503  0.86744969002E+02  0.96662576786E+02 -0.19874417112E+03  0.29211127351E+03  0.17018051345E+03 0.  0.
        -24    2    3    3    0    0  0.91888298974E+02  0.96350293368E+02 -0.21976972092E+03  0.26995918312E+03  0.82779174910E+02 0.  0.
          6    2    1    2  501    0 -0.86744969002E+02 -0.96662576786E+02 -0.96141360739E+02  0.24115899882E+03  0.17901440743E+03 0.  0.
         24    2    5    5    0    0 -0.92353981092E+02 -0.12944038602E+03 -0.10543915512E+03  0.20631097484E+03  0.78503067140E+02 0.  0.
          5    1    5    5  501    0  0.56090120894E+01  0.32777809234E+02  0.92977943841E+01  0.34848023978E+02  0.47000000000E+01 0. -1.
        -13    1    6    6    0    0 -0.59450990929E+02 -0.47065512676E+02 -0.10784251725E+02  0.76589052032E+02  0.00000000000E+00 0.  1.
         14    1    6    6    0    0 -0.32902990163E+02 -0.82374873344E+02 -0.94654903398E+02  0.12972192281E+03  0.00000000000E+00 0. -1.
         -5    1    3    3    0  503 -0.51433299722E+01  0.31228341772E+00  0.21025549797E+02  0.22152090385E+02  0.47000000000E+01 0.  1.
         11    1    4    4    0    0  0.18921026819E+01  0.36846438307E+01  0.74865227223E+01  0.85559730708E+01  0.00000000000E+00 0. -1.
        -12    1    4    4    0    0  0.89996196292E+02  0.92665649538E+02 -0.22725624364E+03  0.26140321005E+03  0.00000000000E+00 0.  1.
</event>
<event>
12    1  0.8417180E-002  0.2135127E+03  0.7818608E-02  0.1140123E+00
         21   -1    0    0  503  502  0.00000000000E+00  0.00000000000E+00  0.13941979241E+03  0.13941979241E+03  0.00000000000E+00 0.  1.
         21   -1    0    0  501  503 -0.00000000000E+00 -0.00000000000E+00 -0.33878240157E+03  0.33878240157E+03  0.00000000000E+00 0.  1.
          6    2    1    2  501    0  0.10893895478E+03 -0.37840058114E+02 -0.37430300292E+02  0.21022882226E+03  0.17174272754E+03 0.  0.
         24    2    3    3    0    0  0.37039702570E+02 -0.82525304900E+02 -0.11121025098E+02  0.12145640701E+03  0.80284594345E+02 0.  0.
         -6    2    1    2    0  502 -0.10893895478E+03  0.37840058114E+02 -0.16193230887E+03  0.26797337171E+03  0.17968886840E+03 0.  0.
        -24    2    5    5    0    0  0.16921505859E+02 -0.73004415352E+01 -0.60563611977E+02  0.10011562548E+03  0.77559999759E+02 0.  0.
          5    1    3    3  501    0  0.71899252208E+02  0.44685246786E+02 -0.26309275195E+02  0.88772415251E+02  0.47000000000E+01 0. -1.
        -13    1    4    4    0    0  0.38736765101E+02 -0.91779484422E+02  0.82103156429E+01  0.99957090865E+02  0.00000000000E+00 0.  1.
         14    1    4    4    0    0 -0.16970625305E+01  0.92541795220E+01 -0.19331340740E+02  0.21499316145E+02  0.00000000000E+00 0. -1.
         -5    1    5    5    0  502 -0.12586046064E+03  0.45140499649E+02 -0.10136869689E+03  0.16785774623E+03  0.47000000000E+01 0.  1.
         11    1    6    6    0    0 -0.11966009721E+02 -0.33170329653E+02 -0.47578195858E+02  0.59221118522E+02  0.00000000000E+00 0. -1.
        -12    1    6    6    0    0  0.28887515580E+02  0.25869888118E+02 -0.12985416119E+02  0.40894506959E+02  0.00000000000E+00 0.  1.
</event>
<event>
12    1  0.8417180E-002  0.2005551E+03  0.7818608E-02  0.1149985E+00
         21   -1    0    0  503  502  0.00000000000E+00  0.00000000000E+00  0.40156223888E+03  0.40156223888E+03  0.00000000000E+00 0.  1.
         21   -1    0    0  501  503 -0.00000000000E+00 -0.00000000000E+00 -0.10193736786E+03  0.10193736786E+03  0.00000000000E+00 0.  1.
          6    2    1    2  501    0 -0.93472350814E+01 -0.96529227281E+02  0.10230656934E+03  0.22215129317E+03  0.17169537095E+03 0.  0.
         24    2    3    3    0    0 -0.44257506826E+02 -0.79360808376E+02  0.80861161647E+01  0.12010686423E+03  0.78124315963E+02 0.  0.
         -6    2    1    2    0  502  0.93472350814E+01  0.96529227281E+02  0.19731830168E+03  0.28134831356E+03  0.17554799584E+03 0.  0.
        -24    2    5    5    0    0 -0.84076552125E-01  0.13623737190E+03  0.13997055620E+03  0.21080371562E+03  0.79283171896E+02 0.  0.
          5    1    3    3  501    0  0.34910271745E+02 -0.17168418905E+02  0.94220453176E+02  0.10204442894E+03  0.47000000000E+01 0. -1.
        -11    1    4    4    0    0  0.12188897116E+01 -0.47169230107E+02  0.34493559357E+02  0.58448503815E+02  0.00000000000E+00 0.  1.
         12    1    4    4    0    0 -0.45476396538E+02 -0.32191578268E+02 -0.26407443192E+02  0.61658360418E+02  0.00000000000E+00 0. -1.
         -5    1    5    5    0  502  0.94313116335E+01 -0.39708144614E+02  0.57347745473E+02  0.70544597941E+02  0.47000000000E+01 0.  1.
         11    1    6    6    0    0 -0.34836072803E+02  0.53843263880E+02  0.35544048904E+02  0.73321405101E+02  0.00000000000E+00 0. -1.
        -12    1    6    6    0    0  0.34751996251E+02  0.82394108016E+02  0.10442650730E+03  0.13748231052E+03  0.00000000000E+00 0.  1.
</event>
<event>
12    1  0.8417180E-002  0.2169291E+03  0.7818608E-02  0.1137322E+00
         21   -1    0    0  501  502  0.00000000000E+00  0.00000000000E+00  0.15869013705E+04  0.15869013705E+04  0.00000000000E+00 0. -1.
         21   -1    0    0  502  503 -0.00000000000E+00 -0.00000000000E+00 -0.30967744209E+02  0.30967744209E+02  0.00000000000E+00 0. -1.
         -6    2    1    2    0  503  0.81950565489E+02 -0.93018978947E+02  0.57679847855E+03  0.61624242105E+03  0.17801632233E+03 0.  0.
        -24    2    3    3    0    0  0.69863040700E+02 -0.75863244358E+02  0.20087326042E+03  0.23970253325E+03  0.80443529205E+02 0.  0.
          6    2    1    2  501    0 -0.81950565489E+02  0.93018978947E+02  0.97913514771E+03  0.10016266936E+04  0.17082731127E+03 0.  0.
         24    2    5    5    0    0 -0.59580946849E+02  0.94415492396E+02  0.96515676589E+03  0.97479694808E+03  0.78976786528E+02 0.  0.
          5    1    5    5  501    0 -0.22369618640E+02 -0.13965134483E+01  0.13978381824E+02  0.26829745551E+02  0.47000000000E+01 0. -1.
        -11    1    6    6    0    0  0.63220065750E+01  0.63454748757E+02  0.47503828505E+03  0.47929932732E+03  0.00000000000E+00 0.  1.
         12    1    6    6    0    0 -0.65902953424E+02  0.30960743638E+02  0.49011848084E+03  0.49549762076E+03  0.00000000000E+00 0. -1.
         -5    1    3    3    0  503  0.12087524789E+02 -0.17155734590E+02  0.37592521813E+03  0.37653988781E+03  0.47000000000E+01 0.  1.
         13    1    4    4    0    0  0.66252311007E+02 -0.60875026854E+02  0.20488683839E+03  0.22377165628E+03  0.00000000000E+00 0. -1.
        -14    1    4    4    0    0  0.36107296933E+01 -0.14988217503E+02 -0.40135779667E+01  0.15930876967E+02  0.00000000000E+00 0.  1.
</event>
<event>
12    1  0.8417180E-002  0.2479975E+03  0.7818608E-02  0.1114910E+00
         21   -1    0    0  503  502  0.00000000000E+00  0.00000000000E+00  0.66201551252E+02  0.66201551252E+02  0.00000000000E+00 0. -1.
         21   -1    0    0  501  503 -0.00000000000E+00 -0.00000000000E+00 -0.98026507361E+03  0.98026507361E+03  0.00000000000E+00 0.  1.
          6    2    1    2  501    0 -0.92743035989E+02  0.15296455084E+03 -0.58359111223E+03  0.63329015131E+03  0.16875545900E+03 0.  0.
         24    2    3    3    0    0 -0.30002760568E+02  0.25709742725E+02 -0.33805166265E+03  0.34966744481E+03  0.80170061886E+02 0.  0.
         -6    2    1    2    0  502  0.92743035989E+02 -0.15296455084E+03 -0.33047241013E+03  0.41317647355E+03  0.17176542114E+03 0.  0.
        -24    2    5    5    0    0  0.12684651481E+03 -0.94469180823E+02 -0.25254898122E+03  0.30983767950E+03  0.84875999432E+02 0.  0.
          5    1    3    3  501    0 -0.62740275421E+02  0.12725480812E+03 -0.24553944958E+03  0.28362270651E+03  0.47000000000E+01 0. -1.
        -13    1    4    4    0    0 -0.32844870726E+02  0.52680495008E+02 -0.22488952842E+03  0.23330092173E+03  0.00000000000E+00 0.  1.
         14    1    4    4    0    0  0.28421101579E+01 -0.26970752282E+02 -0.11316213424E+03  0.11636652308E+03  0.00000000000E+00 0. -1.
         -5    1    5    5    0  502 -0.34103478825E+02 -0.58495370018E+02 -0.77923428917E+02  0.10333879405E+03  0.47000000000E+01 0.  1.
         13    1    6    6    0    0  0.14871215964E+02 -0.13167045136E+02  0.21468139664E+01  0.19978312043E+02  0.00000000000E+00 0. -1.
        -14    1    6    6    0    0  0.11197529885E+03 -0.81302135687E+02 -0.25469579518E+03  0.28985936746E+03  0.00000000000E+00 0.  1.
</event>
<event>
12    1  0.8417180E-002  0.1905066E+03  0.7818608E-02  0.1158144E+00
         21   -1    0    0  503  502  0.00000000000E+00  0.00000000000E+00  0.35724453149E+03  0.35724453149E+03  0.00000000000E+00 0.  1.
         21   -1    0    0  501  503 -0.00000000000E+00 -0.00000000000E+00 -0.10158976694E+03  0.10158976694E+03  0.00000000000E+00 0.  1.
          6    2    1    2  501    0  0.79751453446E+02 -0.12488949651E+02  0.11460095715E+03  0.22179225103E+03  0.17187831465E+03 0.  0.
         24    2    3    3    0    0 -0.26040231139E+02 -0.19261329710E+01  0.61335425443E+02  0.10278485424E+03  0.78236105603E+02 0.  0.
         -6    2    1    2    0  502 -0.79751453446E+02  0.12488949651E+02  0.14105380739E+03  0.23704204740E+03  0.17255864935E+03 0.  0.
        -24    2    5    5    0    0  0.72247388745E+01  0.93862274532E+01  0.13377391453E+02  0.82452778358E+02  0.80493527313E+02 0.  0.
          5    1    3    3  501    0  0.10579168459E+03 -0.10562816680E+02  0.53265531709E+02  0.11900739680E+03  0.47000000000E+01 0. -1.
        -13    1    4    4    0    0  0.21045056062E+02 -0.12515849766E+02  0.46059724013E+02  0.52163579787E+02  0.00000000000E+00 0.  1.
         14    1    4    4    0    0 -0.47085287201E+02  0.10589716795E+02  0.15275701430E+02  0.50621274448E+02  0.00000000000E+00 0. -1.
         -5    1    5    5    0  502 -0.86976192321E+02  0.31027221978E+01  0.12767641594E+03  0.15458926904E+03  0.47000000000E+01 0.  1.
         11    1    6    6    0    0  0.43720540561E+02  0.55592604412E+00  0.91007068041E+01  0.44661141779E+02  0.00000000000E+00 0. -1.
        -12    1    6    6    0    0 -0.36495801686E+02  0.88303014091E+01  0.42766846492E+01  0.37791636579E+02  0.00000000000E+00 0.  1.
</event>
<event>
12    1  0.8417180E-002  0.1727754E+03  0.7818608E-02  0.1175162E+00
         21   -1    0    0  501  502  0.00000000000E+00  0.00000000000E+00  0.13658796844E+03  0.13658796844E+03  0.00000000000E+00 0. -1.
         21   -1    0    0  502  503 -0.00000000000E+00 -0.00000000000E+00 -0.21943621492E+03  0.21943621492E+03  0.00000000000E+00 0. -1.
         -6    2    1    2    0  503  0.55293941098E+01  0.14393703990E+02 -0.57308142373E+02  0.18137127629E+03  0.17138717503E+03 0.  0.
        -24    2    3    3    0    0  0.66170292821E+02  0.12636086486E+02 -0.13411180847E+02  0.10634167515E+03  0.81181979329E+02 0.  0.
          6    2    1    2  501    0 -0.55293941098E+01 -0.14393703990E+02 -0.25540104107E+02  0.17465290708E+03  0.17208599048E+03 0.  0.
         24    2    5    5    0    0  0.51481100616E+02 -0.11025306579E+02  0.24815531495E+02  0.98368422114E+02  0.79301164935E+02 0.  0.
          5    1    5    5  501    0 -0.57010494726E+02 -0.33683974107E+01 -0.50355635602E+02  0.76284484969E+02  0.47000000000E+01 0. -1.
        -13    1    6    6    0    0 -0.16807002715E+02 -0.17229038509E+02 -0.32311947841E+01  0.24284886822E+02  0.00000000000E+00 0.  1.
         14    1    6    6    0    0  0.68288103331E+02  0.62037319303E+01  0.28046726279E+02  0.74083535293E+02  0.00000000000E+00 0. -1.
         -5    1    3    3    0  503 -0.60640898711E+02  0.17576175035E+01 -0.43896961526E+02  0.75029601138E+02  0.47000000000E+01 0.  1.
         11    1    4    4    0    0  0.39276169093E+01 -0.29180949081E+02 -0.10631707173E+02  0.31304746625E+02  0.00000000000E+00 0. -1.
        -12    1    4    4    0    0  0.62242675912E+02  0.41817035567E+02 -0.27794736747E+01  0.75036928523E+02  0.00000000000E+00 0.  1.
</event>
<event>
12    1  0.8417180E-002  0.1764896E+03  0.7818608E-02  0.1174540E+00
         21   -1    0    0  501  502  0.00000000000E+00  0.00000000000E+00  0.10227871997E+03  0.10227871997E+03  0.00000000000E+00 0. -1.
         21   -1    0    0  502  503 -0.00000000000E+00 -0.00000000000E+00 -0.10917378926E+04  0.10917378926E+04  0.00000000000E+00 0.  1.
         -6    2    1    2    0  503 -0.69137940592E+01 -0.40585446012E+02 -0.10132975106E+04  0.10285525801E+04  0.17162047082E+03 0.  0.
        -24    2    3    3    0    0  0.38988556762E+01 -0.96816232168E+01 -0.21768863073E+03  0.23225644207E+03  0.80285615352E+02 0.  0.
          6    2    1    2  501    0  0.69137940592E+01  0.40585446012E+02  0.23838338060E+02  0.16546403241E+03  0.15847744535E+03 0.  0.
         24    2    5    5    0    0  0.27168081051E+02 -0.20181836091E+02 -0.16982135274E+02  0.89363442671E+02  0.80944554057E+02 0.  0.
          5    1    5    5  501    0 -0.20254286992E+02  0.60767282103E+02  0.40820473333E+02  0.76100589741E+02  0.47000000000E+01 0. -1.
        -13    1    6    6    0    0  0.37742535940E+02 -0.34964421056E+02  0.14109811688E+02  0.53348819526E+02  0.00000000000E+00 0.  1.
         14    1    6    6    0    0 -0.10574454888E+02  0.14782584964E+02 -0.31091946962E+02  0.36014623145E+02  0.00000000000E+00 0. -1.
         -5    1    3    3    0  503 -0.10812649735E+02 -0.30903822795E+02 -0.79560887992E+03  0.79629613804E+03  0.47000000000E+01 0.  1.
         11    1    4    4    0    0  0.13787551322E+02 -0.39258693804E+02 -0.17184472220E+03  0.17681049222E+03  0.00000000000E+00 0. -1.
        -12    1    4    4    0    0 -0.98886956459E+01  0.29577070587E+02 -0.45843908526E+02  0.55445949852E+02  0.00000000000E+00 0.  1.
</event>
<event>
12    1  0.8417180E-002  0.2319250E+03  0.7818608E-02  0.1126325E+00
         21   -1    0    0  503  502  0.00000000000E+00  0.00000000000E+00  0.74588260846E+03  0.74588260846E+03  0.00000000000E+00 0.  1.
         21   -1    0    0  501  503 -0.00000000000E+00 -0.00000000000E+00 -0.22582042298E+03  0.22582042298E+03  0.00000000000E+00 0.  1.
          6    2    1    2  501    0 -0.55935232059E+01 -0.14456836617E+03 -0.14211177603E+03  0.27200178981E+03  0.18126752817E+03 0.  0.
         24    2    3    3    0    0 -0.73496659326E+02 -0.85530949705E+02 -0.10962817609E+03  0.17622326036E+03  0.79492126711E+02 0.  0.
         -6    2    1    2    0  502  0.55935232059E+01  0.14456836617E+03  0.66217396152E+03  0.69970124164E+03  0.17371290176E+03 0.  0.
        -24    2    5    5    0    0 -0.35860752360E+02  0.15905417222E+03  0.53998275643E+03  0.56977404610E+03  0.80478960636E+02 0.  0.
          5    1    3    3  501    0  0.67903136120E+02 -0.59037416469E+02 -0.32483599947E+02  0.95778529450E+02  0.47000000000E+01 0. -1.
        -13    1    4    4    0    0 -0.14585154984E+02 -0.57892832803E+02 -0.90462314377E+02  0.10838697873E+03  0.00000000000E+00 0.  1.
         14    1    4    4    0    0 -0.58911504342E+02 -0.27638116902E+02 -0.19165861708E+02  0.67836281625E+02  0.00000000000E+00 0. -1.
         -5    1    5    5    0  502  0.41454275566E+02 -0.14485806049E+02  0.12219120509E+03  0.12992719554E+03  0.47000000000E+01 0.  1.
         11    1    6    6    0    0  0.13964291860E+02  0.73273181683E+02  0.15208805753E+03  0.16939521198E+03  0.00000000000E+00 0. -1.
        -12    1    6    6    0    0 -0.49825044220E+02  0.85780990540E+02  0.38789469890E+03  0.40037883411E+03  0.00000000000E+00 0.  1.
</event>
<event>
12    1  0.8417180E-002  0.1983577E+03  0.7818608E-02  0.1151196E+00
         21   -1    0    0  503  502  0.00000000000E+00  0.00000000000E+00  0.21787305116E+03  0.21787305116E+03  0.00000000000E+00 0. -1.
         21   -1    0    0  501  503 -0.00000000000E+00 -0.00000000000E+00 -0.18087526764E+03  0.18087526764E+03  0.00000000000E+00 0.  1.
          6    2    1    2  501    0  0.20916118071E+02 -0.10113326197E+03  0.74162618305E+01  0.19819697836E+03  0.16900183615E+03 0.  0.
         24    2    3    3    0    0 -0.12017257186E+00  0.13474757527E+02 -0.50463724737E+01  0.80915560775E+02  0.79625866203E+02 0.  0.
         -6    2    1    2    0  502 -0.20916118071E+02  0.10113326197E+03  0.29581521684E+02  0.20055134044E+03  0.16935274740E+03 0.  0.
        -24    2    5    5    0    0 -0.66201295632E+02  0.21253814916E+02  0.11081010746E+02  0.10676524192E+03  0.80260151333E+02 0.  0.
          5    1    3    3  501    0  0.21036290643E+02 -0.11460801950E+03  0.12462634304E+02  0.11728141759E+03  0.47000000000E+01 0. -1.
        -13    1    4    4    0    0 -0.19888226944E+02  0.21896137046E+02  0.28501153107E+02  0.41076734497E+02  0.00000000000E+00 0.  1.
         14    1    4    4    0    0  0.19768054372E+02 -0.84213795192E+01 -0.33547525580E+02  0.39838826278E+02  0.00000000000E+00 0. -1.
         -5    1    5    5    0  502  0.45285177561E+02  0.79879447059E+02  0.18500510939E+02  0.93786098512E+02  0.47000000000E+01 0.  1.
         11    1    6    6    0    0  0.15656518174E+02 -0.37003860115E+01 -0.95870993765E+01  0.18727837366E+02  0.00000000000E+00 0. -1.
        -12    1    6    6    0    0 -0.81857813806E+02  0.24954200927E+02  0.20668110122E+02  0.88037404557E+02  0.00000000000E+00 0.  1.
</event>
<event>
12    1  0.8417180E-002  0.2014637E+03  0.7818608E-02  0.1148588E+00
         21   -1    0    0  501  502  0.00000000000E+00  0.00000000000E+00  0.97620730854E+03  0.97620730854E+03  0.00000000000E+00 0. -1.
         21   -1    0    0  502  503 -0.00000000000E+00 -0.00000000000E+00 -0.41653079048E+02  0.41653079048E+02  0.00000000000E+00 0. -1.
         -6    2    1    2    0  503 -0.10314289605E+03  0.15324684196E+02  0.43683061323E+03  0.48104946515E+03  0.17237836382E+03 0.  0.
        -24    2    3    3    0    0 -0.60600470403E+02  0.61222657567E+02  0.37414677029E+03  0.39234864156E+03  0.80814726400E+02 0.  0.
          6    2    1    2  501    0  0.10314289605E+03 -0.15324684196E+02  0.49772361626E+03  0.53681092244E+03  0.17194145897E+03 0.  0.
         24    2    5    5    0    0  0.28281855528E+02 -0.16416136552E+02  0.97161423504E+02  0.12928481662E+03  0.78770988949E+02 0.  0.
          5    1    5    5  501    0  0.74861040521E+02  0.10914523551E+01  0.40056219276E+03  0.40752610582E+03  0.47000000000E+01 0. -1.
        -13    1    6    6    0    0  0.54852760731E+02 -0.16947134491E+01  0.60794294599E+02  0.81900205551E+02  0.00000000000E+00 0.  1.
         14    1    6    6    0    0 -0.26570905203E+02 -0.14721423103E+02  0.36367128906E+02  0.47384611071E+02  0.00000000000E+00 0. -1.
         -5    1    3    3    0  503 -0.42542425647E+02 -0.45897973371E+02  0.62683842934E+02  0.88700823583E+02  0.47000000000E+01 0.  1.
         13    1    4    4    0    0 -0.55884657773E+02  0.32054652377E+02  0.11746989520E+03  0.13397675915E+03  0.00000000000E+00 0. -1.
        -14    1    4    4    0    0 -0.47158126296E+01  0.29168005190E+02  0.25667687509E+03  0.25837188241E+03  0.00000000000E+00 0.  1.
</event>
<event>
12    1  0.8417180E-002  0.2187427E+03  0.7818608E-02  0.1136231E+00
         21   -1    0    0  501  502  0.00000000000E+00  0.00000000000E+00  0.13890030164E+03  0.13890030164E+03  0.00000000000E+00 0. -1.
         21   -1    0    0  502  503 -0.00000000000E+00 -0.00000000000E+00 -0.33303271115E+03  0.33303271115E+03  0.00000000000E+00 0. -1.
         -6    2    1    2    0  503  0.69774203174E+02  0.99204569145E+02 -0.98126432912E+02  0.23304912123E+03  0.17312743891E+03 0.  0.
        -24    2    3    3    0    0  0.11102183665E+03  0.93544581903E+02 -0.62078439533E+02  0.17777751415E+03  0.81698683371E+02 0.  0.
          6    2    1    2  501    0 -0.69774203174E+02 -0.99204569145E+02 -0.96005976595E+02  0.23888389156E+03  0.18203950159E+03 0.  0.
         24    2    5    5    0    0 -0.51968397676E+02 -0.69285523742E+02  0.17694766855E+02  0.11987908053E+03  0.80973396980E+02 0.  0.
          5    1    5    5  501    0 -0.17805805498E+02 -0.29919045404E+02 -0.11370074345E+03  0.11900481103E+03  0.47000000000E+01 0. -1.
        -13    1    6    6    0    0  0.21346847319E+01 -0.30569825544E+01 -0.24315255468E+02  0.24599464826E+02  0.00000000000E+00 0.  1.
         14    1    6    6    0    0 -0.54103082408E+02 -0.66228541187E+02  0.42010022323E+02  0.95279615708E+02  0.00000000000E+00 0. -1.
         -5    1    3    3    0  503 -0.41247633476E+02  0.56599872420E+01 -0.36047993380E+02  0.55271607084E+02  0.47000000000E+01 0.  1.
         13    1    4    4    0    0  0.68515355842E+02  0.10198278506E+03 -0.51161008755E+02  0.13308753229E+03  0.00000000000E+00 0. -1.
        -14    1    4    4    0    0  0.42506480808E+02 -0.84382031584E+01 -0.10917430778E+02  0.44689981852E+02  0.00000000000E+00 0.  1.
</event>
<event>
12    1  0.8417180E-002  0.1952495E+03  0.7818608E-02  0.1153893E+00
         21   -1    0    0  501  502  0.00000000000E+00  0.00000000000E+00  0.33006503933E+03  0.33006503933E+03  0.00000000000E+00 0. -1.
         21   -1    0    0  502  503 -0.00000000000E+00 -0.00000000000E+00 -0.45555054978E+03  0.45555054978E+03  0.00000000000E+00 0. -1.
         -6    2    1    2    0  503  0.67137996207E+02 -0.64948626539E+02 -0.40221740239E+03  0.44693739687E+03  0.17102152878E+03 0.  0.
        -24    2    3    3    0    0  0.64186611882E+01 -0.72858267183E+02 -0.34984046273E+03  0.36622287606E+03  0.79883160164E+02 0.  0.
          6    2    1    2  501    0 -0.67137996207E+02  0.64948626539E+02  0.27673189194E+03  0.33867819225E+03  0.17145420165E+03 0.  0.
         24    2    5    5    0    0 -0.63992573098E+02  0.37057315679E+02  0.28813060946E+03  0.30802138763E+03  0.79935180456E+02 0.  0.
          5    1    5    5  501    0 -0.31454231097E+01  0.27891310860E+02 -0.11398717521E+02  0.30656804614E+02  0.47000000000E+01 0. -1.
        -13    1    6    6    0    0 -0.27655712847E+02 -0.41204830674E+01  0.21370981660E+03  0.21553121014E+03  0.00000000000E+00 0.  1.
         14    1    6    6    0    0 -0.36336860251E+02  0.41177798746E+02  0.74420792859E+02  0.92490177490E+02  0.00000000000E+00 0. -1.
         -5    1    3    3    0  503  0.60719335019E+02  0.79096406444E+01 -0.52376939660E+02  0.80714520803E+02  0.47000000000E+01 0.  1.
         13    1    4    4    0    0  0.34605992484E+02 -0.72067036042E+02 -0.26725100245E+03  0.27895220148E+03  0.00000000000E+00 0. -1.
        -14    1    4    4    0    0 -0.28187331296E+02 -0.79123114057E+00 -0.82589460284E+02  0.87270674584E+02  0.00000000000E+00 0.  1.
</event>
<event>
12    1  0.8417180E-002  0.2649696E+03  0.7818608E-02  0.1105877E+00
         21   -1    0    0  501  502  0.00000000000E+00  0.00000000000E+00  0.84906990236E+02  0.84906990236E+02  0.00000000000E+00 0.  1.
         21   -1    0    0  502  503 -0.00000000000E+00 -0.00000000000E+00 -0.11603763956E+04  0.11603763956E+04  0.00000000000E+00 0.  1.
         -6    2    1    2    0  503 -0.14633374636E+03 -0.11586592392E+03 -0.88043954890E+03  0.91627651944E+03  0.17190224884E+03 0.  0.
        -24    2    3    3    0    0 -0.11484838487E+03 -0.44506721213E+02 -0.33892397723E+03  0.36915252238E+03  0.78950127902E+02 0.  0.
          6    2    1    2  501    0  0.14633374636E+03  0.11586592392E+03 -0.19502985646E+03  0.32900686640E+03  0.18807018789E+03 0.  0.
         24    2    5    5    0    0  0.17067453358E+03  0.13282169824E+03 -0.15045422392E+03  0.27525698991E+03  0.79740435558E+02 0.  0.
          5    1    5    5  501    0 -0.24340787223E+02 -0.16955774318E+02 -0.44575632547E+02  0.53749876487E+02  0.47000000000E+01 0. -1.
        -11    1    6    6    0    0  0.13293766900E+03  0.85366015483E+02 -0.65827122967E+02  0.17115195166E+03  0.00000000000E+00 0.  1.
         12    1    6    6    0    0  0.37736864587E+02  0.47455682756E+02 -0.84627100949E+02  0.10410503825E+03  0.00000000000E+00 0. -1.
         -5    1    3    3    0  503 -0.31485361496E+02 -0.71359202708E+02 -0.54151557167E+03  0.54712399706E+03  0.47000000000E+01 0.  1.
         11    1    4    4    0    0  0.67118427987E+01 -0.16930960245E+02 -0.76374948676E+02  0.78516488929E+02  0.00000000000E+00 0. -1.
        -12    1    4    4    0    0 -0.12156022766E+03 -0.27575760968E+02 -0.26254902856E+03  0.29063603345E+03  0.00000000000E+00 0.  1.
</event>
<event>
12    1  0.8417180E-002  0.2347479E+03  0.7818608E-02  0.1123504E+00
         21   -1    0    0  501  502  0.00000000000E+00  0.00000000000E+00  0.52870932493E+02  0.52870932493E+02  0.00000000000E+00 0. -1.
         21   -1    0    0  502  503 -0.00000000000E+00 -0.00000000000E+00 -0.10438584123E+04  0.10438584123E+04  0.00000000000E+00 0. -1.
         -6    2    1    2    0  503  0.14729910651E+03  0.61316692544E+02 -0.53722079521E+03  0.58627021741E+03  0.17219123513E+03 0.  0.
        -24    2    3    3    0    0  0.27098080139E+02 -0.15943362787E+02 -0.14802470269E+03  0.17164618130E+03  0.81009889420E+02 0.  0.
          6    2    1    2  501    0 -0.14729910651E+03 -0.61316692544E+02 -0.45376668460E+03  0.51045912738E+03  0.17090217411E+03 0.  0.
         24    2    5    5    0    0 -0.10626833713E+03 -0.10810789102E+03 -0.32070109298E+03  0.36348470116E+03  0.79319993470E+02 0.  0.
          5    1    5    5  501    0 -0.41030769378E+02  0.46791198471E+02 -0.13306559161E+03  0.14697442622E+03  0.47000000000E+01 0. -1.
        -13    1    6    6    0    0 -0.23663315646E+02  0.24762350106E+01 -0.15159718930E+02  0.28211723188E+02  0.00000000000E+00 0.  1.
         14    1    6    6    0    0 -0.82605021483E+02 -0.11058412603E+03 -0.30554137405E+03  0.33527297798E+03  0.00000000000E+00 0. -1.
         -5    1    3    3    0  503  0.12020102637E+03  0.77260055331E+02 -0.38919609252E+03  0.41462403611E+03  0.47000000000E+01 0.  1.
         13    1    4    4    0    0  0.10552495502E+02  0.21808551343E+02 -0.11848260045E+03  0.12093425769E+03  0.00000000000E+00 0. -1.
        -14    1    4    4    0    0  0.16545584637E+02 -0.37751914130E+02 -0.29542102237E+02  0.50711923608E+02  0.00000000000E+00 0.  1.
</event>
<event>
12    1  0.8417180E-002  0.1946070E+03  0.7818608E-02  0.1154571E+00
         21   -1    0    0  501  502  0.00000000000E+00  0.00000000000E+00  0.30516410828E+03  0.30516410828E+03  0.00000000000E+00 0. -1.
         21   -1    0    0  502  503 -0.00000000000E+00 -0.00000000000E+00 -0.12369416033E+03  0.12369416033E+03  0.00000000000E+00 0. -1.
         -6    2    1    2    0  503  0.25189596512E+02  0.87605774418E+02  0.82893281903E+02  0.21152586325E+03  0.17193780025E+03 0.  0.
        -24    2    3    3    0    0  0.79165413430E+02  0.83090516207E+02  0.66107744554E+02  0.15462576982E+03  0.79797858581E+02 0.  0.
          6    2    1    2  501    0 -0.25189596512E+02 -0.87605774418E+02  0.98576666052E+02  0.21733240536E+03  0.17089975964E+03 0.  0.
         24    2    5    5    0    0 -0.50588667673E+02 -0.26952082698E+02  0.11309929520E+03  0.14982699897E+03  0.79818863593E+02 0.  0.
          5    1    5    5  501    0  0.25399071161E+02 -0.60653691720E+02 -0.14522629150E+02  0.67505406395E+02  0.47000000000E+01 0. -1.
        -13    1    6    6    0    0 -0.28156386623E+02 -0.54368948772E+01 -0.37442460423E+01  0.28919912033E+02  0.00000000000E+00 0.  1.
         14    1    6    6    0    0 -0.22432281050E+02 -0.21515187821E+02  0.11684354125E+03  0.12090708693E+03  0.00000000000E+00 0. -1.
         -5    1    3    3    0  503 -0.53975816918E+02  0.45152582117E+01  0.16785537349E+02  0.56900093434E+02  0.47000000000E+01 0.  1.
         11    1    4    4    0    0  0.15013293389E+02  0.43567652790E+02 -0.10402653539E+02  0.47241449476E+02  0.00000000000E+00 0. -1.
        -12    1    4    4    0    0  0.64152120041E+02  0.39522863417E+02  0.76510398093E+02  0.10738432034E+03  0.00000000000E+00 0.  1.
</event>
<event>
12    1  0.8417180E-002  0.1876317E+03  0.7818608E-02  0.1160669E+00
         21   -1    0    0  503  502  0.00000000000E+00  0.00000000000E+00  0.22276608425E+03  0.22276608425E+03  0.00000000000E+00 0. -1.
         21   -1    0    0  501  503 -0.00000000000E+00 -0.00000000000E+00 -0.18125650774E+03  0.18125650774E+03  0.00000000000E+00 0. -1.
          6    2    1    2  501    0 -0.12488206631E+02  0.73342377530E+02 -0.51844606864E+02  0.19466257439E+03  0.17225154560E+03 0.  0.
         24    2    3    3    0    0  0.39966553316E+02  0.21716254686E+02  0.17575020190E+02  0.93381119912E+02  0.79638126043E+02 0.  0.
         -6    2    1    2    0  502  0.12488206631E+02 -0.73342377530E+02  0.93354183373E+02  0.20936001761E+03  0.17199288873E+03 0.  0.
        -24    2    5    5    0    0  0.49700735304E+02  0.12242540224E+02  0.52271420911E+02  0.10728438972E+03  0.78470350785E+02 0.  0.
          5    1    3    3  501    0 -0.52454759947E+02  0.51626122844E+02 -0.69419627054E+02  0.10128145448E+03  0.47000000000E+01 0. -1.
        -13    1    4    4    0    0  0.14221479837E+02  0.18769514899E+02  0.47970538779E+02  0.53438916241E+02  0.00000000000E+00 0.  1.
         14    1    4    4    0    0  0.25745073479E+02  0.29467397867E+01 -0.30395518588E+02  0.39942203671E+02  0.00000000000E+00 0. -1.
         -5    1    5    5    0  502 -0.37212528673E+02 -0.85584917753E+02  0.41082762462E+02  0.10207562789E+03  0.47000000000E+01 0.  1.
         13    1    6    6    0    0  0.16251460700E+02  0.33782662426E+02 -0.47154577938E+01  0.37783776911E+02  0.00000000000E+00 0. -1.
        -14    1    6    6    0    0  0.33449274604E+02 -0.21540122202E+02  0.56986878705E+02  0.69500612807E+02  0.00000000000E+00 0.  1.
</event>
<event>
12    1  0.8417180E-002  0.1840261E+03  0.7818608E-02  0.1164243E+00
         21   -1    0    0  503  502  0.00000000000E+00  0.00000000000E+00  0.25835468311E+02  0.25835468311E+02  0.00000000000E+00 0. -1.
         21   -1    0    0  501  503 -0.00000000000E+00 -0.00000000000E+00 -0.14735839735E+04  0.14735839735E+04  0.00000000000E+00 0.  1.
          6    2    1    2  501    0 -0.27607401337E+02  0.54887091547E+02 -0.46623815192E+03  0.50080631788E+03  0.17220392648E+03 0.  0.
         24    2    3    3    0    0  0.20865533511E+02  0.87149789210E+02 -0.36259001787E+03  0.38182929167E+03  0.79319800003E+02 0.  0.
         -6    2    1    2    0  502  0.27607401337E+02 -0.54887091547E+02 -0.98151035332E+03  0.99861312398E+03  0.17346710433E+03 0.  0.
        -24    2    5    5    0    0  0.11261555071E+02 -0.79371852594E+02 -0.39129168798E+03  0.40764201375E+03  0.81462339052E+02 0.  0.
          5    1    3    3  501    0 -0.48472934848E+02 -0.32262697663E+02 -0.10364813405E+03  0.11897702621E+03  0.47000000000E+01 0. -1.
        -11    1    4    4    0    0  0.89939234523E+01 -0.14196558686E+02 -0.68825704140E+02  0.70847798046E+02  0.00000000000E+00 0.  1.
         12    1    4    4    0    0  0.11871610059E+02  0.10134634790E+03 -0.29376431373E+03  0.31098149362E+03  0.00000000000E+00 0. -1.
         -5    1    5    5    0  502  0.16345846266E+02  0.24484761046E+02 -0.59021866534E+03  0.59097111024E+03  0.47000000000E+01 0.  1.
         11    1    6    6    0    0  0.60933368291E+01  0.29676113065E+01  0.92668443963E+00  0.68406296955E+01  0.00000000000E+00 0. -1.
        -12    1    6    6    0    0  0.51682182415E+01 -0.82339463900E+02 -0.39221837242E+03  0.40080138405E+03  0.00000000000E+00 0.  1.
</event>
<event>
12    1  0.8417180E-002  0.1895874E+03  0.7818608E-02  0.1159182E+00
         21   -1    0    0  503  502  0.00000000000E+00  0.00000000000E+00  0.15683334705E+03  0.15683334705E+03  0.00000000000E+00 0. -1.
         21   -1    0    0  501  503 -0.00000000000E+00 -0.00000000000E+00 -0.64097111912E+03  0.64097111912E+03  0.00000000000E+00 0.  1.
          6    2    1    2  501    0 -0.47890002216E+02  0.58520097249E+02 -0.56216775074E+03  0.59278727447E+03  0.17218048294E+03 0.  0.
         24    2    3    3    0    0 -0.64628280437E+02 -0.68400669395E+01 -0.44919617759E+03  0.46111803979E+03  0.81418913719E+02 0.  0.
         -6    2    1    2    0  502  0.47890002216E+02 -0.58520097249E+02  0.78029978667E+02  0.20501719171E+03  0.17385429886E+03 0.  0.
        -24    2    5    5    0    0  0.70784584293E+02 -0.49225120720E+02  0.11213996491E+03  0.16263630405E+03  0.80259739492E+02 0.  0.
          5    1    3    3  501    0  0.16738278221E+02  0.65360164188E+02 -0.11297157314E+03  0.13166923467E+03  0.47000000000E+01 0. -1.
        -13    1    4    4    0    0 -0.54328823540E+02  0.25345133062E+02 -0.17799618300E+03  0.18782076030E+03  0.00000000000E+00 0.  1.
         14    1    4    4    0    0 -0.10299456898E+02 -0.32185200001E+02 -0.27119999459E+03  0.27329727949E+03  0.00000000000E+00 0. -1.
         -5    1    5    5    0  502 -0.22894582077E+02 -0.92949765283E+01 -0.34109986240E+02  0.42380887655E+02  0.47000000000E+01 0.  1.
         13    1    6    6    0    0  0.38700733400E+02 -0.66601485138E+02  0.95053760117E+02  0.12234672820E+03  0.00000000000E+00 0. -1.
        -14    1    6    6    0    0  0.32083850893E+02  0.17376364418E+02  0.17086204790E+02  0.40289575855E+02  0.00000000000E+00 0.  1.
</event>
<event>
12    1  0.8417180E-002  0.2472035E+03  0.7818608E-02  0.1115098E+00
         21   -1    0    0  501  502  0.00000000000E+00  0.00000000000E+00  0.16649869023E+04  0.16649869023E+04  0.00000000000E+00 0.  1.
         21   -1    0    0  502  503 -0.00000000000E+00 -0.00000000000E+00 -0.10925801295E+03  0.10925801295E+03  0.00000000000E+00 0.  1.
         -6    2    1    2    0  503 -0.14404912092E+03  0.10272551383E+03  0.54925911000E+02  0.25323192788E+03  0.17264667147E+03 0.  0.
        -24    2    3    3    0    0 -0.14172894382E+02  0.91059677798E-01  0.30563055196E+01  0.79697460497E+02  0.78367499508E+02 0.  0.
          6    2    1    2  501    0  0.14404912092E+03 -0.10272551383E+03  0.15008029783E+04  0.15210129874E+04  0.17253477191E+03 0.  0.
         24    2    5    5    0    0  0.22665888390E+02  0.56996887375E+01  0.42973618660E+03  0.43764044016E+03  0.79433845657E+02 0.  0.
          5    1    5    5  501    0  0.12138323253E+03 -0.10842520256E+03  0.10710667917E+04  0.10833725472E+04  0.47000000000E+01 0. -1.
        -11    1    6    6    0    0  0.73866179555E+01 -0.32697622808E+02  0.28972392297E+03  0.29165673008E+03  0.00000000000E+00 0.  1.
         12    1    6    6    0    0  0.15279270435E+02  0.38397311545E+02  0.14001226364E+03  0.14598371008E+03  0.00000000000E+00 0. -1.
         -5    1    3    3    0  503 -0.12987622654E+03  0.10263445415E+03  0.51869605480E+02  0.17353446738E+03  0.47000000000E+01 0.  1.
         13    1    4    4    0    0 -0.41857122416E+02 -0.18948122201E+02  0.36714505789E+01  0.46092619596E+02  0.00000000000E+00 0. -1.
        -14    1    4    4    0    0  0.27684228034E+02  0.19039181879E+02 -0.61514505931E+00  0.33604840900E+02  0.00000000000E+00 0.  1.
</event>
<event>
12    1  0.8417180E-002  0.1941800E+03  0.7818608E-02  0.1155096E+00
         21   -1    0    0  503  502  0.00000000000E+00  0.00000000000E+00  0.12636829889E+03  0.12636829889E+03  0.00000000000E+00 0.  1.
         21   -1    0    0  501  503 -0.00000000000E+00 -0.00000000000E+00 -0.38307024438E+03  0.38307024438E+03  0.00000000000E+00 0.  1.
          6    2    1    2  501    0 -0.89728373067E+02 -0.67480973836E+01 -0.24942616048E+03  0.31512231681E+03  0.17027021838E+03 0.  0.
         24    2    3    3    0    0 -0.41341367954E+02  0.60189604959E+02 -0.16090976360E+03  0.19396456519E+03  0.79990019885E+02 0.  0.
         -6    2    1    2    0  502  0.89728373067E+02  0.67480973836E+01 -0.72757849997E+01  0.19431622646E+03  0.17207306898E+03 0.  0.
        -24    2    5    5    0    0  0.18994678383E+02  0.26750854424E+02 -0.60441469940E+02  0.10347545418E+03  0.77314890613E+02 0.  0.
          5    1    3    3  501    0 -0.48387005113E+02 -0.66937702342E+02 -0.88516396886E+02  0.12115775162E+03  0.47000000000E+01 0. -1.
        -13    1    4    4    0    0  0.12679953079E+02 -0.35000437445E+01 -0.67053108089E+02  0.68331184833E+02  0.00000000000E+00 0.  1.
         14    1    4    4    0    0 -0.54021321033E+02  0.63689648703E+02 -0.93856655506E+02  0.12563338036E+03  0.00000000000E+00 0. -1.
         -5    1    5    5    0  502  0.70733694684E+02 -0.20002757040E+02  0.53165684940E+02  0.90840772278E+02  0.47000000000E+01 0.  1.
         13    1    6    6    0    0  0.57473370504E+01 -0.19702805921E+02 -0.50008107337E+02  0.54055926999E+02  0.00000000000E+00 0. -1.
        -14    1    6    6    0    0  0.13247341332E+02  0.46453660345E+02 -0.10433362603E+02  0.49419527183E+02  0.00000000000E+00 0.  1.
</event>
<event>
12    1  0.8417180E-002  0.1890128E+03  0.7818608E-02  0.1159637E+00
         21   -1    0    0  501  502  0.00000000000E+00  0.00000000000E+00  0.10229621281E+03  0.10229621281E+03  0.00000000000E+00 0. -1.
         21   -1    0    0  502  503 -0.00000000000E+00 -0.00000000000E+00 -0.43313393974E+03  0.43313393974E+03  0.00000000000E+00 0. -1.
         -6    2    1    2    0  503  0.63277590494E+02  0.48203642998E+02 -0.28526786730E+03  0.34220402817E+03  0.17145902171E+03 0.  0.
        -24    2    3    3    0    0  0.38773106022E+02  0.89185569597E+02 -0.13682481903E+03  0.18619948770E+03  0.80571698149E+02 0.  0.
          6    2    1    2  501    0 -0.63277590494E+02 -0.48203642998E+02 -0.45569859619E+02  0.19322612438E+03  0.17009432201E+03 0.  0.
         24    2    5    5    0    0 -0.96518938010E+02 -0.56792185216E+02 -0.25170430204E+01  0.13795963128E+03  0.80531153359E+02 0.  0.
          5    1    5    5  501    0  0.33241347516E+02  0.85885422176E+01 -0.43052816599E+02  0.55266493096E+02  0.47000000000E+01 0. -1.
        -11    1    6    6    0    0  0.63558924050E+01 -0.16695000393E+02  0.18330853798E+02  0.25595714628E+02  0.00000000000E+00 0.  1.
         12    1    6    6    0    0 -0.10287483042E+03 -0.40097184823E+02 -0.20847896819E+02  0.11236391665E+03  0.00000000000E+00 0. -1.
         -5    1    3    3    0  503  0.24504484472E+02 -0.40981926599E+02 -0.14844304828E+03  0.15600454047E+03  0.47000000000E+01 0.  1.
         11    1    4    4    0    0 -0.15459350497E+02  0.55296212135E+02 -0.39304078806E+02  0.69580695635E+02  0.00000000000E+00 0. -1.
        -12    1    4    4    0    0  0.54232456519E+02  0.33889357462E+02 -0.97520740222E+02  0.11661879206E+03  0.00000000000E+00 0.  1.
</event>
<event>
12    1  0.8417180E-002  0.1841361E+03  0.7818608E-02  0.1164100E+00
         21   -1    0    0  501  502  0.00000000000E+00  0.00000000000E+00  0.15584086682E+03  0.15584086682E+03  0.00000000000E+00 0. -1.
         21   -1    0    0  502  503 -0.00000000000E+00 -0.00000000000E+00 -0.26796442579E+03  0.26796442579E+03  0.00000000000E+00 0.  1.
         -6    2    1    2    0  503  0.56871817039E+02 -0.25866936222E+02 -0.14917905724E+03  0.23698204310E+03  0.17321257365E+03 0.  0.
        -24    2    3    3    0    0  0.59077898950E+02  0.40202178684E+02 -0.48016104034E+02  0.11604392734E+03  0.77808955208E+02 0.  0.
          6    2    1    2  501    0 -0.56871817039E+02  0.25866936222E+02  0.37055498275E+02  0.18682324951E+03  0.17212296373E+03 0.  0.
         24    2    5    5    0    0 -0.37701492346E+02 -0.48614828827E+02  0.44582734226E+02  0.10940371738E+03  0.78719432665E+02 0.  0.
          5    1    5    5  501    0 -0.19170324693E+02  0.74481765049E+02 -0.75272359511E+01  0.77419532126E+02  0.47000000000E+01 0. -1.
        -13    1    6    6    0    0 -0.27203542963E+01  0.18035375137E+02 -0.54307577277E+01  0.19030717625E+02  0.00000000000E+00 0.  1.
         14    1    6    6    0    0 -0.34981138050E+02 -0.66650203964E+02  0.50013491954E+02  0.90372999757E+02  0.00000000000E+00 0. -1.
         -5    1    3    3    0  503 -0.22060819114E+01 -0.66069114906E+02 -0.10116295321E+03  0.12093811576E+03  0.47000000000E+01 0.  1.
         13    1    4    4    0    0  0.31557984407E+02 -0.21124524515E+02 -0.12250679201E+02  0.39902770038E+02  0.00000000000E+00 0. -1.
        -14    1    4    4    0    0  0.27519914543E+02  0.61326703200E+02 -0.35765424832E+02  0.76141157302E+02  0.00000000000E+00 0.  1.
</event>
<event>
12    1  0.8417180E-002  0.2043571E+03  0.7818608E-02  0.1146320E+00
         21   -1    0    0  503  502  0.00000000000E+00  0.00000000000E+00  0.29182128931E+03  0.29182128931E+03  0.00000000000E+00 0.  1.
         21   -1    0    0  501  503 -0.00000000000E+00 -0.00000000000E+00 -0.14256436167E+03  0.14256436167E+03  0.00000000000E+00 0. -1.
          6    2    1    2  501    0  0.43094775243E+02 -0.10062575243E+03  0.82056088948E+02  0.22021583752E+03  0.17256625295E+03 0.  0.
         24    2    3    3    0    0  0.41016730000E+02  0.11607877018E+02  0.50568789384E+02  0.10353573688E+03  0.79657588488E+02 0.  0.
         -6    2    1    2    0  502 -0.43094775243E+02  0.10062575243E+03  0.67200838696E+02  0.21416981345E+03  0.17137693709E+03 0.  0.
        -24    2    5    5    0    0 -0.18611733796E+02 -0.14176738697E+02  0.41842179507E+02  0.93985859097E+02  0.80840566359E+02 0.  0.
          5    1    3    3  501    0  0.20780452428E+01 -0.11223362945E+03  0.31487299564E+02  0.11668010064E+03  0.47000000000E+01 0. -1.
        -13    1    4    4    0    0  0.25714883478E+02 -0.28324428239E+01  0.70165798702E+02  0.74783134944E+02  0.00000000000E+00 0.  1.
         14    1    4    4    0    0  0.15301846523E+02  0.14440319842E+02 -0.19597009318E+02  0.28752601940E+02  0.00000000000E+00 0. -1.
         -5    1    5    5    0  502 -0.24483041447E+02  0.11480249113E+03  0.25358659188E+02  0.12018395435E+03  0.47000000000E+01 0.  1.
         13    1    6    6    0    0 -0.36738191794E+01 -0.13664131802E+02 -0.23240491866E+02  0.27208930656E+02  0.00000000000E+00 0. -1.
        -14    1    6    6    0    0 -0.14937914617E+02 -0.51260689481E+00  0.65082671373E+02  0.66776928441E+02  0.00000000000E+00 0.  1.
</event>
<event>
12    1  0.8417180E-002  0.2017780E+03  0.7818608E-02  0.1151627E+00
         21   -1    0    0  501  502  0.00000000000E+00  0.00000000000E+00  0.44284010147E+03  0.44284010147E+03  0.00000000000E+00 0.  1.
         21   -1    0    0  502  503 -0.00000000000E+00 -0.00000000000E+00 -0.21165776595E+03  0.21165776595E+03  0.00000000000E+00 0.  1.
         -6    2    1    2    0  503 -0.14816246023E+02 -0.73123437323E+02 -0.13933525620E+03  0.23260017774E+03  0.17065160659E+03 0.  0.
        -24    2    3    3    0    0  0.53896219747E+02 -0.29875181042E+02 -0.53791429578E+02  0.11456776314E+03  0.80217987442E+02 0.  0.
          6    2    1    2  501    0  0.14816246023E+02  0.73123437323E+02  0.37051759171E+03  0.42189768968E+03  0.18747750947E+03 0.  0.
         24    2    5    5    0    0  0.72158669324E+02 -0.13261997262E+01  0.19683392342E+03  0.22436539207E+03  0.79922483608E+02 0.  0.
          5    1    5    5  501    0 -0.57342423301E+02  0.74449637049E+02  0.17368366829E+03  0.19753229761E+03  0.47000000000E+01 0. -1.
        -13    1    6    6    0    0  0.59336171329E+01  0.30352994240E+02  0.86293494415E+02  0.91668311046E+02  0.00000000000E+00 0.  1.
         14    1    6    6    0    0  0.66225052191E+02 -0.31679193967E+02  0.11054042901E+03  0.13269708103E+03  0.00000000000E+00 0. -1.
         -5    1    3    3    0  503 -0.68712465770E+02 -0.43248256280E+02 -0.85543826623E+02  0.11803241460E+03  0.47000000000E+01 0.  1.
         11    1    4    4    0    0 -0.66979428601E+01  0.19188290518E+02 -0.88145794097E+00  0.20342809532E+02  0.00000000000E+00 0. -1.
        -12    1    4    4    0    0  0.60594162607E+02 -0.49063471560E+02 -0.52909971637E+02  0.94224953607E+02  0.00000000000E+00 0.  1.
</event>
<event>
12    1  0.8417180E-002  0.1946792E+03  0.7818608E-02  0.1155961E+00
         21   -1    0    0  501  502  0.00000000000E+00  0.00000000000E+00  0.38058798776E+03  0.38058798776E+03  0.00000000000E+00 0.  1.
         21   -1    0    0  502  503 -0.00000000000E+00 -0.00000000000E+00 -0.15294876382E+03  0.15294876382E+03  0.00000000000E+00 0.  1.
         -6    2    1    2    0  503  0.58340064110E+02 -0.43031917487E+02 -0.50574636038E+02  0.19397388839E+03  0.17266373841E+03 0.  0.
        -24    2    3    3    0    0  0.10084527562E+03 -0.33052578435E+02 -0.64567779875E+02  0.14788507968E+03  0.80241859648E+02 0.  0.
          6    2    1    2  501    0 -0.58340064110E+02  0.43031917487E+02  0.27821385997E+03  0.33956286319E+03  0.18067838048E+03 0.  0.
         24    2    5    5    0    0 -0.30798372979E+02  0.49543427643E+02  0.29120938671E+03  0.30806812982E+03  0.81853373172E+02 0.  0.
          5    1    5    5  501    0 -0.27541691131E+02 -0.65115101558E+01 -0.12995526738E+02  0.31494733370E+02  0.47000000000E+01 0. -1.
        -13    1    6    6    0    0 -0.43366198805E+02  0.43859647735E+01  0.20843084697E+03  0.21293962021E+03  0.00000000000E+00 0.  1.
         14    1    6    6    0    0  0.12567825825E+02  0.45157462869E+02  0.82778539740E+02  0.95128509608E+02  0.00000000000E+00 0. -1.
         -5    1    3    3    0  503 -0.42505211508E+02 -0.99793390518E+01  0.13993143837E+02  0.46088808703E+02  0.47000000000E+01 0.  1.
         13    1    4    4    0    0 -0.54788450429E+01 -0.25625075521E+02 -0.91523478943E+01  0.27756579588E+02  0.00000000000E+00 0. -1.
        -14    1    4    4    0    0  0.10632412066E+03 -0.74275029141E+01 -0.55415431980E+02  0.12012850010E+03  0.00000000000E+00 0.  1.
</event>
<event>
12    1  0.8417180E-002  0.3895789E+03  0.7818608E-02  0.1047544E+00
         21   -1    0    0  503  502  0.00000000000E+00  0.00000000000E+00  0.12381727696E+03  0.12381727696E+03  0.00000000000E+00 0. -1.
         21   -1    0    0  501  503 -0.00000000000E+00 -0.00000000000E+00 -0.12224986563E+04  0.12224986563E+04  0.00000000000E+00 0.  1.
          6    2    1    2  501    0  0.34880523196E+03 -0.23559618506E+02 -0.55399639690E+03  0.67726194593E+03  0.17190575950E+03 0.  0.
         24    2    3    3    0    0  0.16643963444E+03  0.26330652063E+02 -0.18606138504E+03  0.26356578542E+03  0.80328258374E+02 0.  0.
         -6    2    1    2    0  502 -0.34880523196E+03  0.23559618506E+02 -0.54468498239E+03  0.66905398729E+03  0.16950328139E+03 0.  0.
        -24    2    5    5    0    0 -0.33802392621E+03 -0.15787935767E+02 -0.49078474425E+03  0.60129122280E+03  0.78562305279E+02 0.  0.
          5    1    3    3  501    0  0.18236559752E+03 -0.49890270570E+02 -0.36793501187E+03  0.41369616050E+03  0.47000000000E+01 0. -1.
        -11    1    4    4    0    0 -0.27009106282E+00 -0.11629074603E+02 -0.10981607849E+01  0.11683932660E+02  0.00000000000E+00 0.  1.
         12    1    4    4    0    0  0.16670972550E+03  0.37959726666E+02 -0.18496322425E+03  0.25188185276E+03  0.00000000000E+00 0. -1.
         -5    1    5    5    0  502 -0.10781305749E+02  0.39347554274E+02 -0.53900238132E+02  0.67762764493E+02  0.47000000000E+01 0.  1.
         11    1    6    6    0    0 -0.15566610506E+03 -0.36470969887E+02 -0.18358504194E+03  0.24344513865E+03  0.00000000000E+00 0. -1.
        -12    1    6    6    0    0 -0.18235782116E+03  0.20683034119E+02 -0.30719970231E+03  0.35784608414E+03  0.00000000000E+00 0.  1.
</event>
<event>
12    1  0.8417180E-002  0.1815521E+03  0.7818608E-02  0.1166832E+00
         21   -1    0    0  503  502  0.00000000000E+00  0.00000000000E+00  0.20458615544E+04  0.20458615544E+04  0.00000000000E+00 0. -1.
         21   -1    0    0  501  503 -0.00000000000E+00 -0.00000000000E+00 -0.16916347833E+02  0.16916347833E+02  0.00000000000E+00 0. -1.
          6    2    1    2  501    0 -0.48406524397E+02 -0.29636479706E+02  0.76979541242E+03  0.79091476125E+03  0.17245193544E+03 0.  0.
         24    2    3    3    0    0 -0.96293675966E+02 -0.21086302188E+01  0.56231192067E+03  0.57615337940E+03  0.80505292456E+02 0.  0.
         -6    2    1    2    0  502  0.48406524397E+02  0.29636479706E+02  0.12591497942E+04  0.12718631410E+04  0.17016501630E+03 0.  0.
        -24    2    5    5    0    0  0.64335568853E+02  0.62500221483E+02  0.59511992172E+03  0.60681312674E+03  0.77518426507E+02 0.  0.
          5    1    3    3  501    0  0.47887151568E+02 -0.27527849487E+02  0.20748349175E+03  0.21476138185E+03  0.47000000000E+01 0. -1.
        -11    1    4    4    0    0 -0.19802785245E+02 -0.36400756912E+02  0.16877093850E+03  0.17378375957E+03  0.00000000000E+00 0.  1.
         12    1    4    4    0    0 -0.76490890720E+02  0.34292126693E+02  0.39354098217E+03  0.40236961983E+03  0.00000000000E+00 0. -1.
         -5    1    5    5    0  502 -0.15929044456E+02 -0.32863741777E+02  0.66402987244E+03  0.66505001427E+03  0.47000000000E+01 0.  1.
         11    1    6    6    0    0  0.40048085501E+01  0.44064755070E+01  0.12849730341E+00  0.59558399470E+01  0.00000000000E+00 0. -1.
        -12    1    6    6    0    0  0.60330760303E+02  0.58093745976E+02  0.59499142442E+03  0.60085728679E+03  0.00000000000E+00 0.  1.
</event>
<event>
12    1  0.8417180E-002  0.1870976E+03  0.7818608E-02  0.1161239E+00
         21   -1    0    0  501  502  0.00000000000E+00  0.00000000000E+00  0.82299951851E+02  0.82299951851E+02  0.00000000000E+00 0.  1.
         21   -1    0    0  502  503 -0.00000000000E+00 -0.00000000000E+00 -0.46051067178E+03  0.46051067178E+03  0.00000000000E+00 0.  1.
         -6    2    1    2    0  503 -0.71423039779E+02  0.13245982928E+02 -0.26522730874E+03  0.32424537775E+03  0.17179299466E+03 0.  0.
        -24    2    3    3    0    0 -0.19901609333E+02  0.55704526670E+02 -0.22496567072E+03  0.24614111904E+03  0.80478749599E+02 0.  0.
          6    2    1    2  501    0  0.71423039779E+02 -0.13245982928E+02 -0.11298341119E+03  0.21856524588E+03  0.17242044202E+03 0.  0.
         24    2    5    5    0    0  0.65199929412E+02  0.54777335897E+02 -0.47242986766E+02  0.12364531957E+03  0.76188436990E+02 0.  0.
          5    1    5    5  501    0  0.62231103663E+01 -0.68023318825E+02 -0.65740424421E+02  0.94919926304E+02  0.47000000000E+01 0. -1.
        -13    1    6    6    0    0 -0.10723420095E+02  0.33229291745E+02 -0.96399768070E+01  0.36223013697E+02  0.00000000000E+00 0.  1.
         14    1    6    6    0    0  0.75923349507E+02  0.21548044151E+02 -0.37603009959E+02  0.87422305878E+02  0.00000000000E+00 0. -1.
         -5    1    3    3    0  503 -0.51521430446E+02 -0.42458543742E+02 -0.40261638024E+02  0.78104258708E+02  0.47000000000E+01 0.  1.
         13    1    4    4    0    0  0.18213779445E+02  0.56009189911E+02 -0.16384570855E+03  0.17410969912E+03  0.00000000000E+00 0. -1.
        -14    1    4    4    0    0 -0.38115388777E+02 -0.30466324072E+00 -0.61119962165E+02  0.72031419925E+02  0.00000000000E+00 0.  1.
</event>
<event>
12    1  0.8417180E-002  0.1808977E+03  0.7818608E-02  0.1167055E+00
         21   -1    0    0  501  502  0.00000000000E+00  0.00000000000E+00  0.76552779362E+03  0.76552779362E+03  0.00000000000E+00 0. -1.
         21   -1    0    0  502  503 -0.00000000000E+00 -0.00000000000E+00 -0.42816113815E+02  0.42816113815E+02  0.00000000000E+00 0. -1.
         -6    2    1    2    0  503  0.52149010676E+02 -0.18188970752E+02  0.33529761714E+03  0.38098353708E+03  0.17226028415E+03 0.  0.
        -24    2    3    3    0    0  0.97232845452E+02  0.35960257835E+01  0.20452473176E+03  0.24087366669E+03  0.81991461531E+02 0.  0.
          6    2    1    2  501    0 -0.52149010676E+02  0.18188970752E+02  0.38741406266E+03  0.42736037035E+03  0.17174653483E+03 0.  0.
         24    2    5    5    0    0  0.23689666189E+02  0.59608857670E+01  0.11358676101E+03  0.14292318554E+03  0.83236724141E+02 0.  0.
          5    1    5    5  501    0 -0.75838676866E+02  0.12228084985E+02  0.27382730165E+03  0.28443718481E+03  0.47000000000E+01 0. -1.
        -13    1    6    6    0    0  0.38091278851E+02 -0.14475052553E+02  0.11044922797E+03  0.11772639734E+03  0.00000000000E+00 0.  1.
         14    1    6    6    0    0 -0.14401612662E+02  0.20435938320E+02  0.31375330399E+01  0.25196788205E+02  0.00000000000E+00 0. -1.
         -5    1    3    3    0  503 -0.45083834776E+02 -0.21784996536E+02  0.13077288538E+03  0.14010987040E+03  0.47000000000E+01 0.  1.
         13    1    4    4    0    0  0.72628744689E+02 -0.28696708453E+02  0.17184559843E+03  0.18875737159E+03  0.00000000000E+00 0. -1.
        -14    1    4    4    0    0  0.24604100764E+02  0.32292734236E+02  0.32679133334E+02  0.52116295093E+02  0.00000000000E+00 0.  1.
</event>
<event>
12    1  0.8417180E-002  0.1976546E+03  0.7818608E-02  0.1151946E+00
         21   -1    0    0  503  502  0.00000000000E+00  0.00000000000E+00  0.91726990071E+02  0.91726990071E+02  0.00000000000E+00 0.  1.
         21   -1    0    0  501  503 -0.00000000000E+00 -0.00000000000E+00 -0.95280589111E+03  0.95280589111E+03  0.00000000000E+00 0. -1.
          6    2    1    2  501    0  0.91482878518E+02 -0.34424360346E+02 -0.81921938882E+03  0.84249441965E+03  0.17065253137E+03 0.  0.
         24    2    3    3    0    0  0.58647806256E+02  0.30610986297E+02 -0.28234437040E+03  0.30067838657E+03  0.79451563847E+02 0.  0.
         -6    2    1    2    0  502 -0.91482878518E+02  0.34424360346E+02 -0.41859512216E+02  0.20203846154E+03  0.17179396826E+03 0.  0.
        -24    2    5    5    0    0 -0.11892976409E+03  0.44380946216E+02 -0.67962479701E+02  0.16259330922E+03  0.75523032119E+02 0.  0.
          5    1    3    3  501    0  0.32835072263E+02 -0.65035346643E+02 -0.53687501843E+03  0.54181603307E+03  0.47000000000E+01 0. -1.
        -13    1    4    4    0    0  0.20806193797E+02 -0.26490211725E+02 -0.72659867288E+02  0.80087984941E+02  0.00000000000E+00 0.  1.
         14    1    4    4    0    0  0.37841612459E+02  0.57101198022E+02 -0.20968450311E+03  0.22059040163E+03  0.00000000000E+00 0. -1.
         -5    1    5    5    0  502  0.27446885575E+02 -0.99565858696E+01  0.26102967484E+02  0.39445152319E+02  0.47000000000E+01 0.  1.
         13    1    6    6    0    0 -0.32786641525E+02 -0.19261017932E+02 -0.49951931590E+01  0.38352348415E+02  0.00000000000E+00 0. -1.
        -14    1    6    6    0    0 -0.86143122569E+02  0.63641964148E+02 -0.62967286542E+02  0.12424096080E+03  0.00000000000E+00 0.  1.
</event>
<event>
12    1  0.8417180E-002  0.1874937E+03  0.7818608E-02  0.1161167E+00
         21   -1    0    0  501  502  0.00000000000E+00  0.00000000000E+00  0.53346987278E+02  0.53346987278E+02  0.00000000000E+00 0. -1.
         21   -1    0    0  502  503 -0.00000000000E+00 -0.00000000000E+00 -0.82599534874E+03  0.82599534874E+03  0.00000000000E+00 0. -1.
         -6    2    1    2    0  503 -0.37797890735E+02  0.59510662759E+02 -0.58631620526E+03  0.61500623515E+03  0.17174334686E+03 0.  0.
        -24    2    3    3    0    0  0.41468307112E+02  0.18032922105E+02 -0.23306344177E+03  0.25057086638E+03  0.80139780486E+02 0.  0.
          6    2    1    2  501    0  0.37797890735E+02 -0.59510662759E+02 -0.18633215620E+03  0.26433610087E+03  0.17373457417E+03 0.  0.
         24    2    5    5    0    0  0.75482195506E+02  0.69815959048E+01 -0.10490601877E+03  0.15256117907E+03  0.80767171941E+02 0.  0.
          5    1    5    5  501    0 -0.37684304771E+02 -0.66492258664E+02 -0.81426137429E+02  0.11177492181E+03  0.47000000000E+01 0. -1.
        -11    1    6    6    0    0 -0.14582234247E+02 -0.52037606640E+00 -0.36212258401E+02  0.39041516433E+02  0.00000000000E+00 0.  1.
         12    1    6    6    0    0  0.90064429753E+02  0.75019719712E+01 -0.68693760371E+02  0.11351966263E+03  0.00000000000E+00 0. -1.
         -5    1    3    3    0  503 -0.79266197848E+02  0.41477740653E+02 -0.35325276349E+03  0.36443536876E+03  0.47000000000E+01 0.  1.
         11    1    4    4    0    0  0.70025075942E+01 -0.15865799119E+02 -0.17111749339E+03  0.17199405583E+03  0.00000000000E+00 0. -1.
        -12    1    4    4    0    0  0.34465799518E+02  0.33898721224E+02 -0.61945948372E+02  0.78576810553E+02  0.00000000000E+00 0.  1.
</event>
<event>
12    1  0.8417180E-002  0.2038292E+03  0.7818608E-02  0.1146801E+00
         21   -1    0    0  501  502  0.00000000000E+00  0.00000000000E+00  0.93371854460E+03  0.93371854460E+03  0.00000000000E+00 0. -1.
         21   -1    0    0  502  503 -0.00000000000E+00 -0.00000000000E+00 -0.57379569870E+02  0.57379569870E+02  0.00000000000E+00 0.  1.
         -6    2    1    2    0  503 -0.28193073497E+02  0.10293700367E+03  0.19990854176E+03  0.28462486147E+03  0.17221210928E+03 0.  0.
        -24    2    3    3    0    0  0.26307540393E+02  0.68267962119E+02  0.43820854545E+02  0.11563457934E+03  0.78092812166E+02 0.  0.
          6    2    1    2  501    0  0.28193073497E+02 -0.10293700367E+03  0.67643043297E+03  0.70647325300E+03  0.17365324769E+03 0.  0.
         24    2    5    5    0    0  0.17638709422E+02 -0.84383406448E+02  0.67378659611E+03  0.68445711246E+03  0.84032602853E+02 0.  0.
          5    1    5    5  501    0  0.10554364075E+02 -0.18553597226E+02  0.26438368655E+01  0.22016140544E+02  0.47000000000E+01 0. -1.
        -11    1    6    6    0    0  0.68567651786E+01 -0.11553511649E+01  0.17095514626E+01  0.71604909910E+01  0.00000000000E+00 0.  1.
         12    1    6    6    0    0  0.10781944243E+02 -0.83228055283E+02  0.67207704465E+03  0.67729662147E+03  0.00000000000E+00 0. -1.
         -5    1    3    3    0  503 -0.54500613890E+02  0.34669041555E+02  0.15608768721E+03  0.16899028214E+03  0.47000000000E+01 0.  1.
         13    1    4    4    0    0 -0.19159756037E+02  0.10656659963E+02  0.35565646998E+02  0.41780089748E+02  0.00000000000E+00 0. -1.
        -14    1    4    4    0    0  0.45467296430E+02  0.57611302157E+02  0.82552075467E+01  0.73854489589E+02  0.00000000000E+00 0.  1.
</event>
<event>
12    1  0.8417180E-002  0.2571043E+03  0.7818608E-02  0.1109246E+00
         21   -1    0    0  503  502  0.00000000000E+00  0.00000000000E+00  0.26845859333E+04  0.26845859333E+04  0.00000000000E+00 0.  1.
         21   -1    0    0  501  503 -0.00000000000E+00 -0.00000000000E+00 -0.33889344832E+02  0.33889344832E+02  0.00000000000E+00 0. -1.
          6    2    1    2  501    0 -0.17976316947E+03  0.55182229885E+02  0.60198684666E+03  0.65369581950E+03  0.17195983624E+03 0.  0.
         24    2    3    3    0    0 -0.17702079679E+03  0.80632878568E+00  0.51957391306E+03  0.55481083149E+03  0.80752677623E+02 0.  0.
         -6    2    1    2    0  502  0.17976316947E+03 -0.55182229885E+02  0.20487097418E+04  0.20647794586E+04  0.17533605174E+03 0.  0.
        -24    2    5    5    0    0  0.13131230266E+02  0.10248819019E+02  0.49222430446E+03  0.49802598983E+03  0.73943580871E+02 0.  0.
          5    1    3    3  501    0 -0.27423726785E+01  0.54375901100E+02  0.82412933603E+02  0.98884988008E+02  0.47000000000E+01 0. -1.
        -11    1    4    4    0    0  0.16723682510E+01 -0.61563508665E+01  0.79989199635E+02  0.80243189928E+02  0.00000000000E+00 0.  1.
         12    1    4    4    0    0 -0.17869316504E+03  0.69626796521E+01  0.43958471342E+03  0.47456764156E+03  0.00000000000E+00 0. -1.
         -5    1    5    5    0  502  0.16663193920E+03 -0.65431048904E+02  0.15564854373E+04  0.15667534688E+04  0.47000000000E+01 0.  1.
         11    1    6    6    0    0  0.43137434977E+02  0.14340023935E+02  0.28612000570E+03  0.28970870240E+03  0.00000000000E+00 0. -1.
        -12    1    6    6    0    0 -0.30006204711E+02 -0.40912049164E+01  0.20610429876E+03  0.20831728744E+03  0.00000000000E+00 0.  1.
</event>
<event>
12    1  0.8417180E-002  0.1980812E+03  0.7818608E-02  0.1151963E+00
         21   -1    0    0  503  502  0.00000000000E+00  0.00000000000E+00  0.10503267734E+03  0.10503267734E+03  0.00000000000E+00 0.  1.
         21   -1    0    0  501  503 -0.00000000000E+00 -0.00000000000E+00 -0.37277148263E+03  0.37277148263E+03  0.00000000000E+00 0.  1.
          6    2    1    2  501    0 -0.63989095305E+00  0.92567048400E+02 -0.16077816977E+03  0.25511913768E+03  0.17512020621E+03 0.  0.
         24    2    3    3    0    0  0.58325272616E+02  0.96452634635E+02 -0.12423051322E+03  0.18547856406E+03  0.79146251684E+02 0.  0.
         -6    2    1    2    0  502  0.63989095305E+00 -0.92567048400E+02 -0.10696063551E+03  0.22268502229E+03  0.17198538802E+03 0.  0.
        -24    2    5    5    0    0  0.65188833440E+02 -0.32940213821E+02 -0.99829203856E+02  0.13439644604E+03  0.52553716083E+02 0.  0.
          5    1    3    3  501    0 -0.58965163569E+02 -0.38855862356E+01 -0.36547656553E+02  0.69640573623E+02  0.47000000000E+01 0. -1.
        -11    1    4    4    0    0  0.22550406184E+02  0.61107806008E+02 -0.11802669718E+03  0.13480721799E+03  0.00000000000E+00 0.  1.
         12    1    4    4    0    0  0.35774866432E+02  0.35344828627E+02 -0.62038160393E+01  0.50671346068E+02  0.00000000000E+00 0. -1.
         -5    1    5    5    0  502 -0.64548942487E+02 -0.59626834579E+02 -0.71314316585E+01  0.88288576246E+02  0.47000000000E+01 0.  1.
         11    1    6    6    0    0  0.50906461494E+02  0.18417120316E+01 -0.45350850664E+02  0.68202341463E+02  0.00000000000E+00 0. -1.
        -12    1    6    6    0    0  0.14282371946E+02 -0.34781925852E+02 -0.54478353192E+02  0.66194104579E+02  0.00000000000E+00 0.  1.
</event>
<event>
12    1  0.8417180E-002  0.2762962E+03  0.7818608E-02  0.1097746E+00
         21   -1    0    0  503  502  0.00000000000E+00  0.00000000000E+00  0.15539639093E+03  0.15539639093E+03  0.00000000000E+00 0. -1.
         21   -1    0    0  501  503 -0.00000000000E+00 -0.00000000000E+00 -0.95726238491E+03  0.95726238491E+03  0.00000000000E+00 0.  1.
          6    2    1    2  501    0 -0.17796010822E+03 -0.12274186039E+03 -0.78922825687E+03  0.83619426020E+03  0.17205881244E+03 0.  0.
         24    2    3    3    0    0 -0.20422503275E+03 -0.10298818197E+03 -0.66590600528E+03  0.70848160691E+03  0.78746109993E+02 0.  0.
         -6    2    1    2    0  502  0.17796010822E+03  0.12274186039E+03 -0.12637737109E+02  0.27646451565E+03  0.17186492255E+03 0.  0.
        -24    2    5    5    0    0  0.47097852865E+02  0.10830071730E+03  0.93243402092E+01  0.14290591678E+03  0.79924368116E+02 0.  0.
          5    1    3    3  501    0  0.26264924534E+02 -0.19753678423E+02 -0.12332225159E+03  0.12771265328E+03  0.47000000000E+01 0. -1.
        -13    1    4    4    0    0 -0.95311140081E+02 -0.36509517226E+02 -0.41019820508E+03  0.42270524686E+03  0.00000000000E+00 0.  1.
         14    1    4    4    0    0 -0.10891389267E+03 -0.66478664744E+02 -0.25570780020E+03  0.28577636006E+03  0.00000000000E+00 0. -1.
         -5    1    5    5    0  502  0.13086225535E+03  0.14441143091E+02 -0.21962077319E+02  0.13355859886E+03  0.47000000000E+01 0.  1.
         13    1    6    6    0    0  0.21929541191E+02  0.10948027143E+03 -0.85986017030E+01  0.11198558193E+03  0.00000000000E+00 0. -1.
        -14    1    6    6    0    0  0.25168311674E+02 -0.11795541296E+01  0.17922941912E+02  0.30920334851E+02  0.00000000000E+00 0.  1.
</event>
<event>
12    1  0.8417180E-002  0.1924314E+03  0.7818608E-02  0.1156693E+00
         21   -1    0    0  503  502  0.00000000000E+00  0.00000000000E+00  0.17728170371E+04  0.17728170371E+04  0.00000000000E+00 0.  1.
         21   -1    0    0  501  503 -0.00000000000E+00 -0.00000000000E+00 -0.91624155074E+02  0.91624155074E+02  0.00000000000E+00 0.  1.
          6    2    1    2  501    0  0.18712672513E+02  0.84127934546E+02  0.19456465878E+02  0.19159996365E+03  0.17001270107E+03 0.  0.
         24    2    3    3    0    0  0.93217671065E+01  0.12414696934E+03  0.47067923714E+01  0.14767553857E+03  0.79287738377E+02 0.  0.
         -6    2    1    2    0  502 -0.18712672513E+02 -0.84127934546E+02  0.16617364161E+04  0.16728412285E+04  0.17205285702E+03 0.  0.
        -24    2    5    5    0    0  0.23053866736E+02 -0.63581687048E+02  0.53500919548E+03  0.54514316969E+03  0.79825588118E+02 0.  0.
          5    1    3    3  501    0  0.93909054061E+01 -0.40019034799E+02  0.14749673507E+02  0.43924425086E+02  0.47000000000E+01 0. -1.
        -11    1    4    4    0    0  0.43243577712E+02  0.53887309618E+02 -0.37739421619E+01  0.69196038836E+02  0.00000000000E+00 0.  1.
         12    1    4    4    0    0 -0.33921810605E+02  0.70259659727E+02  0.84807345333E+01  0.78479499730E+02  0.00000000000E+00 0. -1.
         -5    1    5    5    0  502 -0.41766539249E+02 -0.20546247499E+02  0.11267272206E+04  0.11276980588E+04  0.47000000000E+01 0.  1.
         11    1    6    6    0    0  0.47278739551E+02 -0.59461271983E+02  0.45947203862E+03  0.46570964812E+03  0.00000000000E+00 0. -1.
        -12    1    6    6    0    0 -0.24224872815E+02 -0.41204150642E+01  0.75537156852E+02  0.79433521566E+02  0.00000000000E+00 0.  1.
</event>
<event>
12    1  0.8417180E-002  0.3304313E+03  0.7818608E-02  0.1071072E+00
         21   -1    0    0  503  502  0.00000000000E+00  0.00000000000E+00  0.87782398284E+03  0.87782398284E+03  0.00000000000E+00 0. -1.
         21   -1    0    0  501  503 -0.00000000000E+00 -0.00000000000E+00 -0.15952279155E+03  0.15952279155E+03  0.00000000000E+00 0.  1.
          6    2    1    2  501    0 -0.10618882897E+03 -0.25931502006E+03  0.11374787072E+03  0.34838409864E+03  0.17295246476E+03 0.  0.
         24    2    3    3    0    0 -0.62623976444E+02 -0.46643792431E+02  0.45327368945E+02  0.12072118445E+03  0.80135062246E+02 0.  0.
         -6    2    1    2    0  502  0.10618882897E+03  0.25931502006E+03  0.60455332057E+03  0.68896267575E+03  0.17511283259E+03 0.  0.
        -24    2    5    5    0    0  0.12056331877E+02  0.15495427894E+03  0.22755524260E+03  0.28659253261E+03  0.78725520729E+02 0.  0.
          5    1    3    3  501    0 -0.43564852530E+02 -0.21267122762E+03  0.68420501771E+02  0.22766291419E+03  0.47000000000E+01 0. -1.
        -13    1    4    4    0    0 -0.27251452939E+02 -0.65991698132E+02  0.25724095787E+02  0.75889887427E+02  0.00000000000E+00 0.  1.
         14    1    4    4    0    0 -0.35372523505E+02  0.19347905701E+02  0.19603273158E+02  0.44831297022E+02  0.00000000000E+00 0. -1.
         -5    1    5    5    0  502  0.94132497098E+02  0.10436074111E+03  0.37699807797E+03  0.40237014313E+03  0.47000000000E+01 0.  1.
         11    1    6    6    0    0  0.44187379454E+02  0.11108235622E+03  0.14852572723E+03  0.19066123365E+03  0.00000000000E+00 0. -1.
        -12    1    6    6    0    0 -0.32131047577E+02  0.43871922720E+02  0.79029515372E+02  0.95931298968E+02  0.00000000000E+00 0.  1.
</event>
<event>
12    1  0.8417180E-002  0.2315190E+03  0.7818608E-02  0.1125625E+00
         21   -1    0    0  501  502  0.00000000000E+00  0.00000000000E+00  0.42858149708E+03  0.42858149708E+03  0.00000000000E+00 0.  1.
         21   -1    0    0  502  503 -0.00000000000E+00 -0.00000000000E+00 -0.17450183931E+03  0.17450183931E+03  0.00000000000E+00 0.  1.
         -6    2    1    2    0  503  0.72839269504E+02 -0.13568620355E+03  0.28773173242E+03  0.36913139616E+03  0.17248806561E+03 0.  0.
        -24    2    3    3    0    0  0.42904894620E+02 -0.52175450821E+02  0.25518421488E+03  0.27451879912E+03  0.75355689224E+02 0.  0.
          6    2    1    2  501    0 -0.72839269504E+02  0.13568620355E+03 -0.33652074641E+02  0.23395194023E+03  0.17287204284E+03 0.  0.
         24    2    5    5    0    0 -0.82249562729E+02  0.25499651554E+02 -0.37718927044E+02  0.12318976642E+03  0.79610164516E+02 0.  0.
          5    1    5    5  501    0  0.94102932254E+01  0.11018655199E+03  0.40668524036E+01  0.11076217381E+03  0.47000000000E+01 0. -1.
        -11    1    6    6    0    0 -0.29696051306E+02  0.50556899517E+02 -0.13726407782E+02  0.60218517273E+02  0.00000000000E+00 0.  1.
         12    1    6    6    0    0 -0.52553511423E+02 -0.25057247963E+02 -0.23992519262E+02  0.62971249145E+02  0.00000000000E+00 0. -1.
         -5    1    3    3    0  503  0.29934374884E+02 -0.83510752725E+02  0.32547517542E+02  0.94612597040E+02  0.47000000000E+01 0.  1.
         13    1    4    4    0    0  0.70418247317E+00  0.17158335983E+02  0.24085500492E+02  0.29580664303E+02  0.00000000000E+00 0. -1.
        -14    1    4    4    0    0  0.42200712147E+02 -0.69333786804E+02  0.23109871439E+03  0.24493813482E+03  0.00000000000E+00 0.  1.
</event>
<event>
12    1  0.8417180E-002  0.1844012E+03  0.7818608E-02  0.1164056E+00
         21   -1    0    0  503  502  0.00000000000E+00  0.00000000000E+00  0.28775574046E+03  0.28775574046E+03  0.00000000000E+00 0. -1.
         21   -1    0    0  501  503 -0.00000000000E+00 -0.00000000000E+00 -0.16938952674E+03  0.16938952674E+03  0.00000000000E+00 0.  1.
          6    2    1    2  501    0  0.11243821977E+02  0.64328449104E+02 -0.68189325336E+02  0.19483485143E+03  0.17042964045E+03 0.  0.
         24    2    3    3    0    0  0.58278832692E+02  0.71749871849E+02 -0.13797647936E+02  0.12239236170E+03  0.79025620294E+02 0.  0.
         -6    2    1    2    0  502 -0.11243821977E+02 -0.64328449104E+02  0.18655553906E+03  0.26231041578E+03  0.17245060793E+03 0.  0.
        -24    2    5    5    0    0  0.12299218082E+02  0.18119920906E+02  0.14431166197E+03  0.16660961325E+03  0.80332466337E+02 0.  0.
          5    1    3    3  501    0 -0.47035010715E+02 -0.74214227443E+01 -0.54391677400E+02  0.72442489735E+02  0.47000000000E+01 0. -1.
        -11    1    4    4    0    0 -0.12727804796E+02  0.18770278127E+02 -0.24229239876E+02  0.33186991742E+02  0.00000000000E+00 0.  1.
         12    1    4    4    0    0  0.71006637488E+02  0.52979593721E+02  0.10431591940E+02  0.89205369954E+02  0.00000000000E+00 0. -1.
         -5    1    5    5    0  502 -0.23543040060E+02 -0.82448370011E+02  0.42243877084E+02  0.95700802524E+02  0.47000000000E+01 0.  1.
         13    1    6    6    0    0 -0.16390197267E+02  0.41418950467E+02  0.61615924745E+02  0.76030850360E+02  0.00000000000E+00 0. -1.
        -14    1    6    6    0    0  0.28689415349E+02 -0.23299029561E+02  0.82695737227E+02  0.90578762892E+02  0.00000000000E+00 0.  1.
</event>
<event>
12    1  0.8417180E-002  0.1868975E+03  0.7818608E-02  0.1161384E+00
         21   -1    0    0  501  502  0.00000000000E+00  0.00000000000E+00  0.43938933951E+03  0.43938933951E+03  0.00000000000E+00 0.  1.
         21   -1    0    0  502  503 -0.00000000000E+00 -0.00000000000E+00 -0.79634860733E+02  0.79634860733E+02  0.00000000000E+00 0.  1.
         -6    2    1    2    0  503 -0.49154163593E+02  0.49892115525E+02  0.16349562166E+03  0.24801087904E+03  0.17283871913E+03 0.  0.
        -24    2    3    3    0    0 -0.79622672683E+02  0.63481937784E+02  0.17011646584E+03  0.21367519945E+03  0.79672783815E+02 0.  0.
          6    2    1    2  501    0  0.49154163593E+02 -0.49892115525E+02  0.19625885711E+03  0.27101332120E+03  0.17327817601E+03 0.  0.
         24    2    5    5    0    0 -0.26660832466E+02 -0.40886063536E+01  0.46436026485E+02  0.96901731530E+02  0.80660550012E+02 0.  0.
          5    1    5    5  501    0  0.75814996059E+02 -0.45803509172E+02  0.14982283063E+03  0.17411158967E+03  0.47000000000E+01 0. -1.
        -11    1    6    6    0    0 -0.26892076681E+02  0.12492120836E+02 -0.15026175418E+02  0.33241883504E+02  0.00000000000E+00 0.  1.
         12    1    6    6    0    0  0.23124421469E+00 -0.16580727189E+02  0.61462201903E+02  0.63659848027E+02  0.00000000000E+00 0. -1.
         -5    1    3    3    0  503  0.30468509090E+02 -0.13589822259E+02 -0.66208441790E+01  0.34335679589E+02  0.47000000000E+01 0.  1.
         13    1    4    4    0    0 -0.69553438534E+02  0.33767638048E+02  0.56378671562E+02  0.95689543830E+02  0.00000000000E+00 0. -1.
        -14    1    4    4    0    0 -0.10069234148E+02  0.29714299737E+02  0.11373779428E+03  0.11798565562E+03  0.00000000000E+00 0.  1.
</event>
<event>
12    1  0.8417180E-002  0.1963652E+03  0.7818608E-02  0.1152945E+00
         21   -1    0    0  501  502  0.00000000000E+00  0.00000000000E+00  0.36347990885E+02  0.36347990885E+02  0.00000000000E+00 0.  1.
         21   -1    0    0  502  503 -0.00000000000E+00 -0.00000000000E+00 -0.10806967277E+04  0.10806967277E+04  0.00000000000E+00 0.  1.
         -6    2    1    2    0  503  0.79714458820E+02  0.54237080706E+02 -0.44236295609E+03  0.48398788603E+03  0.17106499654E+03 0.  0.
        -24    2    3    3    0    0  0.11724830713E+03  0.25286226096E+02 -0.36813592538E+03  0.39579103893E+03  0.82097065643E+02 0.  0.
          6    2    1    2  501    0 -0.79714458820E+02 -0.54237080706E+02 -0.60198578077E+03  0.63305683260E+03  0.17052277612E+03 0.  0.
         24    2    5    5    0    0 -0.66964101190E+02  0.18827969235E+02 -0.47464013037E+03  0.48561166374E+03  0.75476826436E+02 0.  0.
          5    1    5    5  501    0 -0.12750357630E+02 -0.73065049940E+02 -0.12734565041E+03  0.14744516886E+03  0.47000000000E+01 0. -1.
        -11    1    6    6    0    0 -0.43020537257E+02  0.89682960184E+01 -0.44087919461E+03  0.44306394708E+03  0.00000000000E+00 0.  1.
         12    1    6    6    0    0 -0.23943563933E+02  0.98596732163E+01 -0.33760935754E+02  0.42547716657E+02  0.00000000000E+00 0. -1.
         -5    1    3    3    0  503 -0.37533848310E+02  0.28950854610E+02 -0.74227030709E+02  0.88196847106E+02  0.47000000000E+01 0.  1.
         13    1    4    4    0    0  0.55128487473E+02  0.49339976214E+02 -0.14297341932E+03  0.16098130952E+03  0.00000000000E+00 0. -1.
        -14    1    4    4    0    0  0.62119819656E+02 -0.24053750118E+02 -0.22516250606E+03  0.23480972940E+03  0.00000000000E+00 0.  1.
</event>
<event>
12    1  0.8417180E-002  0.2489111E+03  0.7818608E-02  0.1114199E+00
         21   -1    0    0  501  502  0.00000000000E+00  0.00000000000E+00  0.45994833607E+03  0.45994833607E+03  0.00000000000E+00 0.  1.
         21   -1    0    0  502  503 -0.00000000000E+00 -0.00000000000E+00 -0.39462482598E+03  0.39462482598E+03  0.00000000000E+00 0. -1.
         -6    2    1    2    0  503  0.17799356094E+03 -0.31658961191E+01 -0.31460378565E+03  0.40036893837E+03  0.17212790079E+03 0.  0.
        -24    2    3    3    0    0  0.15936210820E+03  0.11082491360E+02 -0.32773838528E+03  0.37307873346E+03  0.79096074640E+02 0.  0.
          6    2    1    2  501    0 -0.17799356094E+03  0.31658961191E+01  0.37992729574E+03  0.45420422368E+03  0.17396837678E+03 0.  0.
         24    2    5    5    0    0 -0.18199449353E+03 -0.10386660153E+02  0.38889543150E+03  0.43682041794E+03  0.79640081014E+02 0.  0.
          5    1    5    5  501    0  0.40009325858E+01  0.13552556272E+02 -0.89681357534E+01  0.17383805739E+02  0.47000000000E+01 0. -1.
        -13    1    6    6    0    0 -0.41579822008E+02  0.24883060965E+02  0.14839157942E+03  0.15610288007E+03  0.00000000000E+00 0.  1.
         14    1    6    6    0    0 -0.14041467152E+03 -0.35269721118E+02  0.24050385207E+03  0.28071753787E+03  0.00000000000E+00 0. -1.
         -5    1    3    3    0  503  0.18631452740E+02 -0.14248387479E+02  0.13134599629E+02  0.27290204916E+02  0.47000000000E+01 0.  1.
         13    1    4    4    0    0  0.46474916706E+02  0.51842239917E+01 -0.18597218348E+03  0.19176143275E+03  0.00000000000E+00 0. -1.
        -14    1    4    4    0    0  0.11288719150E+03  0.58982673680E+01 -0.14176620180E+03  0.18131730070E+03  0.00000000000E+00 0.  1.
</event>
<event>
12    1  0.8417180E-002  0.1867268E+03  0.7818608E-02  0.1161868E+00
         21   -1    0    0  501  502  0.00000000000E+00  0.00000000000E+00  0.10719366589E+03  0.10719366589E+03  0.00000000000E+00 0. -1.
         21   -1    0    0  502  503 -0.00000000000E+00 -0.00000000000E+00 -0.63836992963E+03  0.63836992963E+03  0.00000000000E+00 0. -1.
         -6    2    1    2    0  503 -0.51875861810E+02  0.49835799226E+02 -0.52731498792E+03  0.55879691440E+03  0.17034724282E+03 0.  0.
        -24    2    3    3    0    0 -0.52306326234E+02 -0.13410480685E+02 -0.44161164463E+03  0.45217876270E+03  0.80802202956E+02 0.  0.
          6    2    1    2  501    0  0.51875861810E+02 -0.49835799226E+02 -0.38612758296E+01  0.18676668112E+03  0.17231416599E+03 0.  0.
         24    2    5    5    0    0  0.77384635888E+01 -0.29088164174E+02 -0.65999469339E+02  0.10763502263E+03  0.79519576399E+02 0.  0.
          5    1    5    5  501    0  0.44137398221E+02 -0.20747635052E+02  0.62138193510E+02  0.79131658485E+02  0.47000000000E+01 0. -1.
        -11    1    6    6    0    0  0.31656738215E+02  0.37329485293E+01 -0.58088823728E+02  0.66260059019E+02  0.00000000000E+00 0.  1.
         12    1    6    6    0    0 -0.23918274626E+02 -0.32821112703E+02 -0.79106456110E+01  0.41374963615E+02  0.00000000000E+00 0. -1.
         -5    1    3    3    0  503  0.43046442421E+00  0.63246279911E+02 -0.85703343284E+02  0.10661815170E+03  0.47000000000E+01 0.  1.
         11    1    4    4    0    0 -0.34205319268E+02  0.30369421403E+02 -0.28197300278E+03  0.28565902737E+03  0.00000000000E+00 0. -1.
        -12    1    4    4    0    0 -0.18101006966E+02 -0.43779902088E+02 -0.15963864186E+03  0.16651973533E+03  0.00000000000E+00 0.  1.
</event>
<event>
12    1  0.8417180E-002  0.2708075E+03  0.7818608E-02  0.1100900E+00
         21   -1    0    0  501  502  0.00000000000E+00  0.00000000000E+00  0.64077576271E+03  0.64077576271E+03  0.00000000000E+00 0. -1.
         21   -1    0    0  502  503 -0.00000000000E+00 -0.00000000000E+00 -0.14279684297E+03  0.14279684297E+03  0.00000000000E+00 0. -1.
         -6    2    1    2    0  503  0.10559515087E+03  0.18068029715E+03  0.42450636677E+03  0.50352990400E+03  0.17187496366E+03 0.  0.
        -24    2    3    3    0    0  0.14151451587E+03  0.13482615573E+03  0.35385139272E+03  0.41184010945E+03  0.78721135342E+02 0.  0.
          6    2    1    2  501    0 -0.10559515087E+03 -0.18068029715E+03  0.73472552969E+02  0.28004270168E+03  0.17096781294E+03 0.  0.
         24    2    5    5    0    0 -0.49784558176E+02 -0.23964140233E+02  0.57167587101E+02  0.11282213474E+03  0.80049477342E+02 0.  0.
          5    1    5    5  501    0 -0.55810592691E+02 -0.15671615692E+03  0.16304965868E+02  0.16722056694E+03  0.47000000000E+01 0. -1.
        -11    1    6    6    0    0 -0.45047585510E+02 -0.28587004265E+02 -0.18984669107E+01  0.53386383561E+02  0.00000000000E+00 0.  1.
         12    1    6    6    0    0 -0.47369726661E+01  0.46228640317E+01  0.59066054011E+02  0.59435751180E+02  0.00000000000E+00 0. -1.
         -5    1    3    3    0  503 -0.35919365000E+02  0.45854141426E+02  0.70654974044E+02  0.91689794553E+02  0.47000000000E+01 0.  1.
         13    1    4    4    0    0  0.13828549209E+03  0.13370622020E+03  0.29058969180E+03  0.34848615413E+03  0.00000000000E+00 0. -1.
        -14    1    4    4    0    0  0.32290237747E+01  0.11199355265E+01  0.63261700927E+02  0.63353955317E+02  0.00000000000E+00 0.  1.
</event>
<event>
12    1  0.8417180E-002  0.2408193E+03  0.7818608E-02  0.1119394E+00
         21   -1    0    0  503  502  0.00000000000E+00  0.00000000000E+00  0.47355566628E+03  0.47355566628E+03  0.00000000000E+00 0. -1.
         21   -1    0    0  501  503 -0.00000000000E+00 -0.00000000000E+00 -0.12288034988E+03  0.12288034988E+03  0.00000000000E+00 0.  1.
          6    2    1    2  501    0 -0.16169649461E+03  0.48357019084E+02  0.15070912289E+03  0.28409004326E+03  0.17178403678E+03 0.  0.
         24    2    3    3    0    0 -0.19061929302E+03  0.46027723713E+02  0.13424096427E+03  0.25039665915E+03  0.78889696456E+02 0.  0.
         -6    2    1    2    0  502  0.16169649461E+03 -0.48357019084E+02  0.19996619351E+03  0.31234597290E+03  0.17055606286E+03 0.  0.
        -24    2    5    5    0    0  0.11327821559E+03  0.35059973597E+02  0.12023553521E+03  0.18711900981E+03  0.80596426911E+02 0.  0.
          5    1    3    3  501    0  0.28922798403E+02  0.23292953706E+01  0.16468158620E+02  0.33693384109E+02  0.47000000000E+01 0. -1.
        -13    1    4    4    0    0 -0.75104351377E+02  0.14285674716E+02  0.88233891419E+01  0.76958406258E+02  0.00000000000E+00 0.  1.
         14    1    4    4    0    0 -0.11551494164E+03  0.31742048997E+02  0.12541757513E+03  0.17343825289E+03  0.00000000000E+00 0. -1.
         -5    1    5    5    0  502  0.48418279020E+02 -0.83416992680E+02  0.79730658301E+02  0.12522696309E+03  0.47000000000E+01 0.  1.
         13    1    6    6    0    0  0.11315875555E+03  0.68507308282E+01  0.83480720128E+02  0.14078660129E+03  0.00000000000E+00 0. -1.
        -14    1    6    6    0    0  0.11946004752E+00  0.28209242768E+02  0.36754815078E+02  0.46332408525E+02  0.00000000000E+00 0.  1.
</event>
<event>
12    1  0.8417180E-002  0.1776287E+03  0.7818608E-02  0.1170680E+00
         21   -1    0    0  503  502  0.00000000000E+00  0.00000000000E+00  0.35067209348E+03  0.35067209348E+03  0.00000000000E+00 0.  1.
         21   -1    0    0  501  503 -0.00000000000E+00 -0.00000000000E+00 -0.10370479555E+03  0.10370479555E+03  0.00000000000E+00 0.  1.
          6    2    1    2  501    0  0.42689915059E+02  0.16490930241E+02  0.36764709025E+02  0.17917318812E+03  0.16928380869E+03 0.  0.
         24    2    3    3    0    0  0.71192531645E+02 -0.34941158747E+02  0.43240949053E+02  0.11982935428E+03  0.78740290423E+02 0.  0.
         -6    2    1    2    0  502 -0.42689915059E+02 -0.16490930241E+02  0.21020258890E+03  0.27520370091E+03  0.17163207447E+03 0.  0.
        -24    2    5    5    0    0 -0.10499529773E+02  0.52660758081E+02  0.97597186138E+02  0.13911459909E+03  0.83332258886E+02 0.  0.
          5    1    3    3  501    0 -0.28502616586E+02  0.51432088989E+02 -0.64762400289E+01  0.59343833840E+02  0.47000000000E+01 0. -1.
        -11    1    4    4    0    0  0.15117409793E+02 -0.43611896382E+02  0.43005565432E+02  0.63087338215E+02  0.00000000000E+00 0.  1.
         12    1    4    4    0    0  0.56075121852E+02  0.86707376349E+01  0.23538362114E+00  0.56742016067E+02  0.00000000000E+00 0. -1.
         -5    1    5    5    0  502 -0.32190385287E+02 -0.69151688322E+02  0.11260540276E+03  0.13608910182E+03  0.47000000000E+01 0.  1.
         13    1    6    6    0    0  0.80533738954E+01  0.86223632674E+01  0.89949025612E+02  0.90719508310E+02  0.00000000000E+00 0. -1.
        -14    1    6    6    0    0 -0.18552903668E+02  0.44038394813E+02  0.76481605256E+01  0.48395090781E+02  0.00000000000E+00 0.  1.
</event>
<event>
12    1  0.8417180E-002  0.1806378E+03  0.7818608E-02  0.1167464E+00
         21   -1    0    0  503  502  0.00000000000E+00  0.00000000000E+00  0.48366482123E+03  0.48366482123E+03  0.00000000000E+00 0.  1.
         21   -1    0    0  501  503 -0.00000000000E+00 -0.00000000000E+00 -0.76433474025E+02  0.76433474025E+02  0.00000000000E+00 0.  1.
          6    2    1    2  501    0  0.40394827930E+02 -0.37746263762E+02  0.10599467191E+03  0.20943943066E+03  0.17196942196E+03 0.  0.
         24    2    3    3    0    0 -0.37120744357E+02  0.11090783392E+02  0.59380751486E+02  0.10653817362E+03  0.79519517442E+02 0.  0.
         -6    2    1    2    0  502 -0.40394827930E+02  0.37746263762E+02  0.30123667529E+03  0.35065886460E+03  0.17076762641E+03 0.  0.
        -24    2    5    5    0    0 -0.23871520479E+02 -0.44464056584E+02  0.14209088428E+03  0.17071156882E+03  0.80035732745E+02 0.  0.
          5    1    3    3  501    0  0.77515572288E+02 -0.48837047154E+02  0.46613920429E+02  0.10290125704E+03  0.47000000000E+01 0. -1.
        -11    1    4    4    0    0 -0.23751794671E+02  0.40100598115E+02  0.58216883927E+02  0.74574870388E+02  0.00000000000E+00 0.  1.
         12    1    4    4    0    0 -0.13368949687E+02 -0.29009814724E+02  0.11638675589E+01  0.31963303235E+02  0.00000000000E+00 0. -1.
         -5    1    5    5    0  502 -0.16523307451E+02  0.82210320346E+02  0.15914579101E+03  0.17994729578E+03  0.47000000000E+01 0.  1.
         11    1    6    6    0    0  0.10427509321E+02  0.19457085751E+02  0.32788090109E+02  0.39526826201E+02  0.00000000000E+00 0. -1.
        -12    1    6    6    0    0 -0.34299029800E+02 -0.63921142335E+02  0.10930279417E+03  0.13118474262E+03  0.00000000000E+00 0.  1.
</event>
<event>
12    1  0.8417180E-002  0.1804994E+03  0.7818608E-02  0.1167637E+00
         21   -1    0    0  503  502  0.00000000000E+00  0.00000000000E+00  0.28231267117E+02  0.28231267117E+02  0.00000000000E+00 0. -1.
         21   -1    0    0  501  503 -0.00000000000E+00 -0.00000000000E+00 -0.11495406212E+04  0.11495406212E+04  0.00000000000E+00 0. -1.
          6    2    1    2  501    0  0.84550716515E+01  0.47348417574E+02 -0.59676898729E+03  0.62346874157E+03  0.17397323540E+03 0.  0.
         24    2    3    3    0    0  0.13087944353E+02  0.53576249911E+02 -0.16822544989E+03  0.19482914604E+03  0.81344239589E+02 0.  0.
         -6    2    1    2    0  502 -0.84550716515E+01 -0.47348417574E+02 -0.52454036676E+03  0.55430314671E+03  0.17261524040E+03 0.  0.
        -24    2    5    5    0    0 -0.79385404386E-01  0.37076276991E+02 -0.34371015290E+03  0.35450490494E+03  0.78500966892E+02 0.  0.
          5    1    3    3  501    0 -0.46328727013E+01 -0.62278323376E+01 -0.42854353740E+03  0.42863959553E+03  0.47000000000E+01 0. -1.
        -13    1    4    4    0    0  0.12729409199E+02 -0.20120182834E+02 -0.31250917028E+02  0.39287140783E+02  0.00000000000E+00 0.  1.
         14    1    4    4    0    0  0.35853515399E+00  0.73696432745E+02 -0.13697453286E+03  0.15554200526E+03  0.00000000000E+00 0. -1.
         -5    1    5    5    0  502 -0.83756862471E+01 -0.84424694565E+02 -0.18083021386E+03  0.19979824177E+03  0.47000000000E+01 0.  1.
         13    1    6    6    0    0 -0.14783136353E+02 -0.15070374098E+02 -0.33485204612E+02  0.39584292640E+02  0.00000000000E+00 0. -1.
        -14    1    6    6    0    0  0.14703750948E+02  0.52146651090E+02 -0.31022494829E+03  0.31492061230E+03  0.00000000000E+00 0.  1.
</event>
<event>
12    1  0.8417180E-002  0.2291401E+03  0.7818608E-02  0.1127272E+00
         21   -1    0    0  503  502  0.00000000000E+00  0.00000000000E+00  0.72407617649E+03  0.72407617649E+03  0.00000000000E+00 0. -1.
         21   -1    0    0  501  503 -0.00000000000E+00 -0.00000000000E+00 -0.11081490307E+03  0.11081490307E+03  0.00000000000E+00 0.  1.
          6    2    1    2  501    0  0.14139758448E+03 -0.57150995875E+02  0.61003274148E+02  0.23698297428E+03  0.17082159528E+03 0.  0.
         24    2    3    3    0    0  0.16198487790E+03 -0.14778269654E+02  0.60895839803E+02  0.18963969471E+03  0.76140741945E+02 0.  0.
         -6    2    1    2    0  502 -0.14139758448E+03  0.57150995875E+02  0.55225799927E+03  0.59790810528E+03  0.17101371693E+03 0.  0.
        -24    2    5    5    0    0 -0.16535129432E+03  0.59459062194E+02  0.44501663572E+03  0.48789943544E+03  0.95549057667E+02 0.  0.
          5    1    3    3  501    0 -0.20587293420E+02 -0.42372726222E+02  0.10743434475E+00  0.47343279565E+02  0.47000000000E+01 0. -1.
        -11    1    4    4    0    0  0.25647762834E+02  0.21784488380E+01 -0.17813582730E+02  0.31302988793E+02  0.00000000000E+00 0.  1.
         12    1    4    4    0    0  0.13633711507E+03 -0.16956718492E+02  0.78709422533E+02  0.15833670592E+03  0.00000000000E+00 0. -1.
         -5    1    5    5    0  502  0.23953709841E+02 -0.23080663185E+01  0.10724136355E+03  0.11000866984E+03  0.47000000000E+01 0.  1.
         11    1    6    6    0    0 -0.11383615538E+03  0.59354573021E+02  0.39785920680E+03  0.41805930685E+03  0.00000000000E+00 0. -1.
        -12    1    6    6    0    0 -0.51515138944E+02  0.10448917296E+00  0.47157428920E+02  0.69840128584E+02  0.00000000000E+00 0.  1.
</event>
<event>
12    1  0.8417180E-002  0.1724395E+03  0.7818608E-02  0.1176988E+00
         21   -1    0    0  503  502  0.00000000000E+00  0.00000000000E+00  0.30449856518E+03  0.30449856518E+03  0.00000000000E+00 0.  1.
         21   -1    0    0  501  503 -0.00000000000E+00 -0.00000000000E+00 -0.95024367552E+02  0.95024367552E+02  0.00000000000E+00 0.  1.
          6    2    1    2  501    0  0.57026552070E+01  0.18988077485E+02  0.82941166221E+02  0.18563980351E+03  0.16489339656E+03 0.  0.
         24    2    3    3    0    0 -0.26800809967E+02 -0.40902082032E+02  0.67170678960E+02  0.11553912788E+03  0.80287771362E+02 0.  0.
         -6    2    1    2    0  502 -0.57026552070E+01 -0.18988077485E+02  0.12653303141E+03  0.21388312922E+03  0.17129599401E+03 0.  0.
        -24    2    5    5    0    0 -0.62484925197E+02  0.12154841005E+02  0.10106573161E+03  0.14413514777E+03  0.80675601522E+02 0.  0.
          5    1    3    3  501    0  0.32503465174E+02  0.59890159517E+02  0.15770487261E+02  0.70100675630E+02  0.47000000000E+01 0. -1.
        -13    1    4    4    0    0  0.93726789711E+01 -0.10564520345E+02  0.66851434262E+02  0.68326938055E+02  0.00000000000E+00 0.  1.
         14    1    4    4    0    0 -0.36173488938E+02 -0.30337561687E+02  0.31924469861E+00  0.47212189826E+02  0.00000000000E+00 0. -1.
         -5    1    5    5    0  502  0.56782269990E+02 -0.31142918490E+02  0.25467299801E+02  0.69747981451E+02  0.47000000000E+01 0.  1.
         11    1    6    6    0    0  0.16915092826E+02  0.29308626929E+01  0.40052159228E+02  0.43576206585E+02  0.00000000000E+00 0. -1.
        -12    1    6    6    0    0 -0.79400018024E+02  0.92239783118E+01  0.61013572377E+02  0.10055894119E+03  0.00000000000E+00 0.  1.
</event>
<event>
12    1  0.8417180E-002  0.1950735E+03  0.7818608E-02  0.1154014E+00
         21   -1    0    0  501  502  0.00000000000E+00  0.00000000000E+00  0.22868916080E+03  0.22868916080E+03  0.00000000000E+00 0. -1.
         21   -1    0    0  502  503 -0.00000000000E+00 -0.00000000000E+00 -0.20072533241E+03  0.20072533241E+03  0.00000000000E+00 0. -1.
         -6    2    1    2    0  503 -0.34517908749E+02 -0.85494654198E+02 -0.75068902022E+02  0.20880308033E+03  0.17164662648E+03 0.  0.
        -24    2    3    3    0    0 -0.19745383788E+02 -0.10309160318E+03 -0.10670334491E+03  0.16942404930E+03  0.79379757118E+02 0.  0.
          6    2    1    2  501    0  0.34517908749E+02  0.85494654198E+02  0.10303273041E+03  0.22061141289E+03  0.17190936577E+03 0.  0.
         24    2    5    5    0    0  0.80310784747E+02  0.87048668464E+02  0.99106511248E+02  0.17438471444E+03  0.80997748305E+02 0.  0.
          5    1    5    5  501    0 -0.45792875998E+02 -0.15540142651E+01  0.39262191622E+01  0.46226698448E+02  0.47000000000E+01 0. -1.
        -11    1    6    6    0    0 -0.57033301234E+01  0.73635861494E+01 -0.10391139277E+02  0.13954431230E+02  0.00000000000E+00 0.  1.
         12    1    6    6    0    0  0.86014114871E+02  0.79685082314E+02  0.10949765052E+03  0.16043028321E+03  0.00000000000E+00 0. -1.
         -5    1    3    3    0  503 -0.14772524961E+02  0.17596948982E+02  0.31634442890E+02  0.39379031021E+02  0.47000000000E+01 0.  1.
         13    1    4    4    0    0 -0.34699119784E+02 -0.10496915760E+03 -0.72938697147E+02  0.13244850510E+03  0.00000000000E+00 0. -1.
        -14    1    4    4    0    0  0.14953735995E+02  0.18775544179E+01 -0.33764647765E+02  0.36975544208E+02  0.00000000000E+00 0.  1.
</event>
<event>
12    1  0.8417180E-002  0.1781991E+03  0.7818608E-02  0.1169805E+00
         21   -1    0    0  501  502  0.00000000000E+00  0.00000000000E+00  0.53332785101E+03  0.53332785101E+03  0.00000000000E+00 0. -1.
         21   -1    0    0  502  503 -0.00000000000E+00 -0.00000000000E+00 -0.79885605094E+02  0.79885605094E+02  0.00000000000E+00 0. -1.
         -6    2    1    2    0  503 -0.32005671829E+02 -0.29099910844E+02  0.70246138870E+02  0.19060939890E+03  0.17183205487E+03 0.  0.
        -24    2    3    3    0    0 -0.62533954994E+01 -0.16831801389E+02 -0.29465841391E+02  0.86791022620E+02  0.79636871519E+02 0.  0.
          6    2    1    2  501    0  0.32005671829E+02  0.29099910844E+02  0.38319610704E+03  0.42260405720E+03  0.17286921320E+03 0.  0.
         24    2    5    5    0    0  0.26183670050E+02  0.28610642083E+02  0.64373383125E+02  0.10369316937E+03  0.71443596650E+02 0.  0.
          5    1    5    5  501    0  0.58220017788E+01  0.48926876119E+00  0.31882272392E+03  0.31891088783E+03  0.47000000000E+01 0. -1.
        -13    1    6    6    0    0  0.39916138385E+02 -0.87878311260E+01  0.26412479709E+02  0.48663571220E+02  0.00000000000E+00 0.  1.
         14    1    6    6    0    0 -0.13732468335E+02  0.37398473209E+02  0.37960903416E+02  0.55029598155E+02  0.00000000000E+00 0. -1.
         -5    1    3    3    0  503 -0.25752276330E+02 -0.12268109455E+02  0.99711980260E+02  0.10381837628E+03  0.47000000000E+01 0.  1.
         11    1    4    4    0    0  0.36482473449E+02 -0.12982016890E+02 -0.13564254516E+02  0.41030386692E+02  0.00000000000E+00 0. -1.
        -12    1    4    4    0    0 -0.42735868948E+02 -0.38497844984E+01 -0.15901586874E+02  0.45760635928E+02  0.00000000000E+00 0.  1.
</event>
<event>
12    1  0.8417180E-002  0.1898894E+03  0.7818608E-02  0.1161247E+00
         21   -1    0    0  501  502  0.00000000000E+00  0.00000000000E+00  0.70453809006E+02  0.70453809006E+02  0.00000000000E+00 0. -1.
         21   -1    0    0  502  503 -0.00000000000E+00 -0.00000000000E+00 -0.69040077685E+03  0.69040077685E+03  0.00000000000E+00 0. -1.
         -6    2    1    2    0  503 -0.30514621323E+02 -0.46239436074E+02 -0.52604367698E+03  0.55926733132E+03  0.18162810967E+03 0.  0.
        -24    2    3    3    0    0 -0.22254737944E+02  0.47228540871E+02 -0.24448853153E+03  0.26245109470E+03  0.79875694844E+02 0.  0.
          6    2    1    2  501    0  0.30514621323E+02  0.46239436074E+02 -0.93903290856E+02  0.20158725453E+03  0.16955932765E+03 0.  0.
         24    2    5    5    0    0  0.47157871460E+01  0.38844226921E+02 -0.12922497852E+03  0.15697805613E+03  0.80074355561E+02 0.  0.
          5    1    5    5  501    0  0.25798834177E+02  0.73952091531E+01  0.35321687662E+02  0.44609198408E+02  0.47000000000E+01 0. -1.
        -11    1    6    6    0    0 -0.37126344881E+02  0.10651740168E+02 -0.53549770767E+02  0.66025775285E+02  0.00000000000E+00 0.  1.
         12    1    6    6    0    0  0.41842132027E+02  0.28192486753E+02 -0.75675207751E+02  0.90952280841E+02  0.00000000000E+00 0. -1.
         -5    1    3    3    0  503 -0.82598833793E+01 -0.93467976945E+02 -0.28155514545E+03  0.29681623661E+03  0.47000000000E+01 0.  1.
         13    1    4    4    0    0 -0.37074163156E+02  0.24492747844E+02 -0.22421534289E+03  0.22857582606E+03  0.00000000000E+00 0. -1.
        -14    1    4    4    0    0  0.14819425212E+02  0.22735793027E+02 -0.20273188644E+02  0.33875268648E+02  0.00000000000E+00 0.  1.
</event>
<event>
12    1  0.8417180E-002  0.1852841E+03  0.7818608E-02  0.1163242E+00
         21   -1    0    0  503  502  0.00000000000E+00  0.00000000000E+00  0.34413990197E+02  0.34413990197E+02  0.00000000000E+00 0. -1.
         21   -1    0    0  501  503 -0.00000000000E+00 -0.00000000000E+00 -0.11408973592E+04  0.11408973592E+04  0.00000000000E+00 0. -1.
          6    2    1    2  501    0 -0.52473886818E+02  0.41045231261E+02 -0.76647280404E+03  0.78809386029E+03  0.17080150316E+03 0.  0.
         24    2    3    3    0    0 -0.73329552044E+02 -0.28098978639E+02 -0.43898494771E+03  0.45270413686E+03  0.77887581895E+02 0.  0.
         -6    2    1    2    0  502  0.52473886818E+02 -0.41045231261E+02 -0.34001056498E+03  0.38721748913E+03  0.17289297204E+03 0.  0.
        -24    2    5    5    0    0  0.28332833896E+02 -0.93410387506E+02 -0.25687067537E+03  0.28592962575E+03  0.79025040601E+02 0.  0.
          5    1    3    3  501    0  0.20855665226E+02  0.69144209900E+02 -0.32748785633E+03  0.33538972343E+03  0.47000000000E+01 0. -1.
        -13    1    4    4    0    0  0.91144628715E+01  0.14836757969E+02 -0.59083525187E+02  0.61595988253E+02  0.00000000000E+00 0.  1.
         14    1    4    4    0    0 -0.82444014916E+02 -0.42935736608E+02 -0.37990142252E+03  0.39110814861E+03  0.00000000000E+00 0. -1.
         -5    1    5    5    0  502  0.24141052922E+02  0.52365156245E+02 -0.83139889611E+02  0.10128786339E+03  0.47000000000E+01 0.  1.
         13    1    6    6    0    0 -0.16579684896E+02 -0.31328491063E+02 -0.29894267280E+02  0.46368389230E+02  0.00000000000E+00 0. -1.
        -14    1    6    6    0    0  0.44912518792E+02 -0.62081896442E+02 -0.22697640809E+03  0.23956123652E+03  0.00000000000E+00 0.  1.
</event>
<event>
12    1  0.8417180E-002  0.2074382E+03  0.7818608E-02  0.1146086E+00
         21   -1    0    0  501  502  0.00000000000E+00  0.00000000000E+00  0.18840846332E+03  0.18840846332E+03  0.00000000000E+00 0.  1.
         21   -1    0    0  502  503 -0.00000000000E+00 -0.00000000000E+00 -0.25801075860E+03  0.25801075860E+03  0.00000000000E+00 0.  1.
         -6    2    1    2    0  503  0.10011906986E+03  0.59670237160E+02 -0.12456078788E+03  0.23182416356E+03  0.15697989547E+03 0.  0.
        -24    2    3    3    0    0  0.10688346473E+03  0.29017100379E+01 -0.62843771533E+02  0.14756561612E+03  0.79961093590E+02 0.  0.
          6    2    1    2  501    0 -0.10011906986E+03 -0.59670237160E+02  0.54958492597E+02  0.21459505836E+03  0.17159906123E+03 0.  0.
         24    2    5    5    0    0 -0.59424562368E+02  0.39587455323E+02  0.38007539827E+02  0.10588646967E+03  0.68329540778E+02 0.  0.
          5    1    5    5  501    0 -0.40694507489E+02 -0.99257692483E+02  0.16950952770E+02  0.10870858870E+03  0.47000000000E+01 0. -1.
        -11    1    6    6    0    0 -0.55106100303E+02  0.78816882538E+01  0.46773726876E+02  0.72708904724E+02  0.00000000000E+00 0.  1.
         12    1    6    6    0    0 -0.43184620650E+01  0.31705767069E+02 -0.87661870487E+01  0.33177564941E+02  0.00000000000E+00 0. -1.
         -5    1    3    3    0  503 -0.67643948700E+01  0.56768527122E+02 -0.61717016345E+02  0.84258547437E+02  0.47000000000E+01 0.  1.
         13    1    4    4    0    0 -0.75468534997E+01 -0.12494190296E+02  0.26309540184E+01  0.14831780337E+02  0.00000000000E+00 0. -1.
        -14    1    4    4    0    0  0.11443031823E+03  0.15395900334E+02 -0.65474725552E+02  0.13273383579E+03  0.00000000000E+00 0.  1.
</event>
<event>
12    1  0.8417180E-002  0.1726632E+03  0.7818608E-02  0.1175160E+00
         21   -1    0    0  503  502  0.00000000000E+00  0.00000000000E+00  0.51776503610E+02  0.51776503610E+02  0.00000000000E+00 0. -1.
         21   -1    0    0  501  503 -0.00000000000E+00 -0.00000000000E+00 -0.88268958881E+03  0.88268958881E+03  0.00000000000E+00 0. -1.
          6    2    1    2  501    0  0.16201904590E+02  0.99234350785E+01 -0.69112967386E+03  0.71231299368E+03  0.17137268921E+03 0.  0.
         24    2    3    3    0    0 -0.34973579807E+02  0.57772356619E+02 -0.44548462479E+03  0.45682908102E+03  0.75335661347E+02 0.  0.
         -6    2    1    2    0  502 -0.16201904590E+02 -0.99234350785E+01 -0.13978341134E+03  0.22215309874E+03  0.17161474563E+03 0.  0.
        -24    2    5    5    0    0 -0.68299954009E+02 -0.33846560604E+02 -0.12713752808E+03  0.16325886259E+03  0.68403448633E+02 0.  0.
          5    1    3    3  501    0  0.51175484397E+02 -0.47848921540E+02 -0.24564504907E+03  0.25548391266E+03  0.47000000000E+01 0. -1.
        -11    1    4    4    0    0 -0.15628747139E+00  0.49969298894E+02 -0.12900907260E+03  0.13834845887E+03  0.00000000000E+00 0.  1.
         12    1    4    4    0    0 -0.34817292335E+02  0.78030577247E+01 -0.31647555219E+03  0.31848062215E+03  0.00000000000E+00 0. -1.
         -5    1    5    5    0  502  0.52098049419E+02  0.23923125525E+02 -0.12645883259E+02  0.58894236149E+02  0.47000000000E+01 0.  1.
         11    1    6    6    0    0 -0.25503976415E+02  0.10355668347E+02 -0.71856210626E+01  0.28448652516E+02  0.00000000000E+00 0. -1.
        -12    1    6    6    0    0 -0.42795977594E+02 -0.44202228951E+02 -0.11995190702E+03  0.13481021007E+03  0.00000000000E+00 0.  1.
</event>
<event>
12    1  0.8417180E-002  0.2445856E+03  0.7818608E-02  0.1117693E+00
         21   -1    0    0  503  502  0.00000000000E+00  0.00000000000E+00  0.26362673929E+03  0.26362673929E+03  0.00000000000E+00 0.  1.
         21   -1    0    0  501  503 -0.00000000000E+00 -0.00000000000E+00 -0.30690785784E+03  0.30690785784E+03  0.00000000000E+00 0.  1.
          6    2    1    2  501    0  0.16573933092E+03 -0.33105428786E+02 -0.17169825631E+03  0.29428641406E+03  0.16899321600E+03 0.  0.
         24    2    3    3    0    0  0.16978448628E+03 -0.57478947735E+02 -0.18087515946E+03  0.26751446495E+03  0.81960749323E+02 0.  0.
         -6    2    1    2    0  502 -0.16573933092E+03  0.33105428786E+02  0.12841713775E+03  0.27624818307E+03  0.17679536802E+03 0.  0.
        -24    2    5    5    0    0 -0.15649205383E+03  0.22356765959E+02  0.16056861935E+03  0.24079605119E+03  0.84916834917E+02 0.  0.
          5    1    3    3  501    0 -0.40451553666E+01  0.24373518949E+02  0.91769031564E+01  0.26771949115E+02  0.47000000000E+01 0. -1.
        -13    1    4    4    0    0  0.60219798882E+02 -0.43537423102E+02 -0.12069155502E+03  0.14173349231E+03  0.00000000000E+00 0.  1.
         14    1    4    4    0    0  0.10956468740E+03 -0.13941524633E+02 -0.60183604437E+02  0.12578097264E+03  0.00000000000E+00 0. -1.
         -5    1    5    5    0  502 -0.92472770836E+01  0.10748662827E+02 -0.32151481598E+02  0.35452131882E+02  0.47000000000E+01 0.  1.
         13    1    6    6    0    0 -0.19782036305E+02 -0.10536090202E+02  0.70098324876E+02  0.73594247789E+02  0.00000000000E+00 0. -1.
        -14    1    6    6    0    0 -0.13671001753E+03  0.32892856161E+02  0.90470294473E+02  0.16720180340E+03  0.00000000000E+00 0.  1.
</event>
<event>
12    1  0.8417180E-002  0.1924777E+03  0.7818608E-02  0.1156248E+00
         21   -1    0    0  503  502  0.00000000000E+00  0.00000000000E+00  0.18113276852E+03  0.18113276852E+03  0.00000000000E+00 0. -1.
         21   -1    0    0  501  503 -0.00000000000E+00 -0.00000000000E+00 -0.20460095804E+03  0.20460095804E+03  0.00000000000E+00 0. -1.
          6    2    1    2  501    0 -0.83642331134E+02 -0.21891807869E+02 -0.15566756243E+02  0.19310614440E+03  0.17196618358E+03 0.  0.
         24    2    3    3    0    0  0.28205290249E+01  0.11327303146E+02 -0.49669714745E+02  0.94290977032E+02  0.79293408340E+02 0.  0.
         -6    2    1    2    0  502  0.83642331134E+02  0.21891807869E+02 -0.79014332734E+01  0.19262758216E+03  0.17195249912E+03 0.  0.
        -24    2    5    5    0    0  0.27924948292E+02  0.11436762730E+02 -0.69594735560E+02  0.10871162261E+03  0.77872892556E+02 0.  0.
          5    1    3    3  501    0 -0.86462860159E+02 -0.33219111016E+02  0.34102958502E+02  0.98815167369E+02  0.47000000000E+01 0. -1.
        -13    1    4    4    0    0 -0.36157513742E+02 -0.68521768901E+01 -0.27230872160E+02  0.45780329037E+02  0.00000000000E+00 0.  1.
         14    1    4    4    0    0  0.38978042767E+02  0.18179480037E+02 -0.22438842585E+02  0.48510647995E+02  0.00000000000E+00 0. -1.
         -5    1    5    5    0  502  0.55717382842E+02  0.10455045139E+02  0.61693302286E+02  0.83915959546E+02  0.47000000000E+01 0.  1.
         11    1    6    6    0    0  0.38303997798E+02  0.35659831076E+02 -0.62307124583E+02  0.81369512556E+02  0.00000000000E+00 0. -1.
        -12    1    6    6    0    0 -0.10379049506E+02 -0.24223068346E+02 -0.72876109763E+01  0.27342110059E+02  0.00000000000E+00 0.  1.
</event>
<event>
12    1  0.8417180E-002  0.1935116E+03  0.7818608E-02  0.1155448E+00
         21   -1    0    0  501  502  0.00000000000E+00  0.00000000000E+00  0.12941926672E+03  0.12941926672E+03  0.00000000000E+00 0. -1.
         21   -1    0    0  502  503 -0.00000000000E+00 -0.00000000000E+00 -0.29064056772E+03  0.29064056772E+03  0.00000000000E+00 0. -1.
         -6    2    1    2    0  503 -0.88808101745E+02  0.95992901994E+01 -0.98282636592E+02  0.21657027658E+03  0.17106777235E+03 0.  0.
        -24    2    3    3    0    0 -0.52078476631E+02  0.67051521385E+02 -0.29679068415E+02  0.11972832392E+03  0.79031324159E+02 0.  0.
          6    2    1    2  501    0  0.88808101745E+02 -0.95992901994E+01 -0.62938664408E+02  0.20348955785E+03  0.17166158384E+03 0.  0.
         24    2    5    5    0    0  0.89115579492E+02 -0.65025114272E+02 -0.26782993960E+02  0.13714621589E+03  0.76953906807E+02 0.  0.
          5    1    5    5  501    0 -0.30747774782E+00  0.55425824073E+02 -0.36155670449E+02  0.66343341959E+02  0.47000000000E+01 0. -1.
        -13    1    6    6    0    0 -0.13719569649E+02 -0.89669716778E+01  0.20762444728E+01  0.16521015814E+02  0.00000000000E+00 0.  1.
         14    1    6    6    0    0  0.10283514914E+03 -0.56058142594E+02 -0.28859238433E+02  0.12062520007E+03  0.00000000000E+00 0. -1.
         -5    1    3    3    0  503 -0.36729625114E+02 -0.57452231185E+02 -0.68603568176E+02  0.96841952664E+02  0.47000000000E+01 0.  1.
         13    1    4    4    0    0 -0.32292858016E+02  0.30035636716E+00 -0.37706017044E+02  0.49645368506E+02  0.00000000000E+00 0. -1.
        -14    1    4    4    0    0 -0.19785618615E+02  0.66751165018E+02  0.80269486285E+01  0.70082955413E+02  0.00000000000E+00 0.  1.
</event>
<event>
12    1  0.8417180E-002  0.2066840E+03  0.7818608E-02  0.1144736E+00
         21   -1    0    0  501  502  0.00000000000E+00  0.00000000000E+00  0.21382556664E+03  0.21382556664E+03  0.00000000000E+00 0.  1.
         21   -1    0    0  502  503 -0.00000000000E+00 -0.00000000000E+00 -0.28404968277E+03  0.28404968277E+03  0.00000000000E+00 0.  1.
         -6    2    1    2    0  503  0.66638375268E+02  0.87944291293E+02 -0.17250378529E+03  0.26726863425E+03  0.17175591834E+03 0.  0.
        -24    2    3    3    0    0  0.75537915906E+02  0.57497641275E+02 -0.19284385439E+03  0.22929484419E+03  0.79846214101E+02 0.  0.
          6    2    1    2  501    0 -0.66638375268E+02 -0.87944291293E+02  0.10227966916E+03  0.23060661515E+03  0.17476672681E+03 0.  0.
         24    2    5    5    0    0  0.11536886593E+02  0.98531657031E+01  0.33322819964E+02  0.87593150009E+02  0.79573644955E+02 0.  0.
          5    1    5    5  501    0 -0.78175261861E+02 -0.97797456997E+02  0.68956849195E+02  0.14301346515E+03  0.47000000000E+01 0. -1.
        -13    1    6    6    0    0 -0.33628744751E+02 -0.30153397626E+01  0.10364147921E+02  0.35318554749E+02  0.00000000000E+00 0.  1.
         14    1    6    6    0    0  0.45165631344E+02  0.12868505466E+02  0.22958672043E+02  0.52274595260E+02  0.00000000000E+00 0. -1.
         -5    1    3    3    0  503 -0.88995406377E+01  0.30446650019E+02  0.20340069092E+02  0.37973790061E+02  0.47000000000E+01 0.  1.
         13    1    4    4    0    0 -0.12236498981E+02  0.28879573723E+02 -0.56767002613E+02  0.64855641786E+02  0.00000000000E+00 0. -1.
        -14    1    4    4    0    0  0.87774414887E+02  0.28618067552E+02 -0.13607685177E+03  0.16443920240E+03  0.00000000000E+00 0.  1.
</event>
<event>
12    1  0.8417180E-002  0.1882633E+03  0.7818608E-02  0.1160470E+00
         21   -1    0    0  503  502  0.00000000000E+00  0.00000000000E+00  0.15638176676E+03  0.15638176676E+03  0.00000000000E+00 0. -1.
         21   -1    0    0  501  503 -0.00000000000E+00 -0.00000000000E+00 -0.29187944702E+03  0.29187944702E+03  0.00000000000E+00 0.  1.
          6    2    1    2  501    0  0.27858448795E+02 -0.71366830475E+02 -0.17526928697E+03  0.25584281720E+03  0.16990263828E+03 0.  0.
         24    2    3    3    0    0  0.23354037752E+02 -0.71359339829E+02 -0.19775388326E+03  0.23243476634E+03  0.96341869397E+02 0.  0.
         -6    2    1    2    0  502 -0.27858448795E+02  0.71366830475E+02  0.39771606714E+02  0.19241839659E+03  0.17197017469E+03 0.  0.
        -24    2    5    5    0    0 -0.95782025483E+01  0.91154104527E+02 -0.21924892876E+02  0.12493320059E+03  0.82017016200E+02 0.  0.
          5    1    3    3  501    0  0.45044110426E+01 -0.74906461734E-02  0.22484596286E+02  0.23408050861E+02  0.47000000000E+01 0. -1.
        -11    1    4    4    0    0 -0.37604337796E+02 -0.25699637796E+02 -0.83666822151E+02  0.95261192165E+02  0.00000000000E+00 0.  1.
         12    1    4    4    0    0  0.60958375548E+02 -0.45659702032E+02 -0.11408706111E+03  0.13717357417E+03  0.00000000000E+00 0. -1.
         -5    1    5    5    0  502 -0.18280246246E+02 -0.19787274052E+02  0.61696499589E+02  0.67485195997E+02  0.47000000000E+01 0.  1.
         11    1    6    6    0    0 -0.21162523078E+02  0.47406666973E+02  0.26807486363E+02  0.58428467219E+02  0.00000000000E+00 0. -1.
        -12    1    6    6    0    0  0.11584320529E+02  0.43747437554E+02 -0.48732379239E+02  0.66504733372E+02  0.00000000000E+00 0.  1.
</event>
<event>
12    1  0.8417180E-002  0.2395413E+03  0.7818608E-02  0.1120498E+00
         21   -1    0    0  503  502  0.00000000000E+00  0.00000000000E+00  0.11943258903E+03  0.11943258903E+03  0.00000000000E+00 0.  1.
         21   -1    0    0  501  503 -0.00000000000E+00 -0.00000000000E+00 -0.47749348879E+03  0.47749348879E+03  0.00000000000E+00 0.  1.
          6    2    1    2  501    0  0.13653778480E+03 -0.88662913576E+02 -0.19655406466E+03  0.30802383085E+03  0.17245724431E+03 0.  0.
         24    2    3    3    0    0  0.86839636339E+02 -0.20277806659E+02 -0.31954419785E+02  0.12292504128E+03  0.78340085183E+02 0.  0.
         -6    2    1    2    0  502 -0.13653778480E+03  0.88662913576E+02 -0.16150683511E+03  0.28890224697E+03  0.17571673681E+03 0.  0.
        -24    2    5    5    0    0 -0.97235685467E+02 -0.11925484342E+02 -0.11635176232E+03  0.17175383082E+03  0.79778757202E+02 0.  0.
          5    1    3    3  501    0  0.49698148465E+02 -0.68385106917E+02 -0.16459964487E+03  0.18509878957E+03  0.47000000000E+01 0. -1.
        -11    1    4    4    0    0  0.95335018969E+02 -0.26507446170E+02 -0.42794723550E+02  0.10780908546E+03  0.00000000000E+00 0.  1.
         12    1    4    4    0    0 -0.84953826301E+01  0.62296395112E+01  0.10840303765E+02  0.15115955815E+02  0.00000000000E+00 0. -1.
         -5    1    5    5    0  502 -0.39302099336E+02  0.10058839792E+03 -0.45155072781E+02  0.11714841615E+03  0.47000000000E+01 0.  1.
         13    1    6    6    0    0 -0.23313390278E+02 -0.26497169461E+02 -0.27010174906E+01  0.35396463823E+02  0.00000000000E+00 0. -1.
        -14    1    6    6    0    0 -0.73922295189E+02  0.14571685120E+02 -0.11365074483E+03  0.13635736700E+03  0.00000000000E+00 0.  1.
</event>
<event>
12    1  0.8417180E-002  0.2068907E+03  0.7818608E-02  0.1144114E+00
         21   -1    0    0  501  502  0.00000000000E+00  0.00000000000E+00  0.49336709774E+03  0.49336709774E+03  0.00000000000E+00 0. -1.
         21   -1    0    0  502  503 -0.00000000000E+00 -0.00000000000E+00 -0.10747553390E+03  0.10747553390E+03  0.00000000000E+00 0.  1.
         -6    2    1    2    0  503  0.10724245206E+03 -0.36749363052E+02  0.60755331125E+02  0.21562689646E+03  0.17306729619E+03 0.  0.
        -24    2    3    3    0    0  0.11805794473E+03 -0.77236074827E+02  0.63884742535E+02  0.17334176990E+03  0.77865392168E+02 0.  0.
          6    2    1    2  501    0 -0.10724245206E+03  0.36749363052E+02  0.32513623272E+03  0.38521573518E+03  0.17270244237E+03 0.  0.
         24    2    5    5    0    0 -0.83416048417E+02 -0.34591839946E+02  0.13918109658E+03  0.18457010874E+03  0.80869740145E+02 0.  0.
          5    1    5    5  501    0 -0.23826403640E+02  0.71341202998E+02  0.18595513614E+03  0.20064562645E+03  0.47000000000E+01 0. -1.
        -13    1    6    6    0    0  0.61442103455E+01 -0.26680244709E+02  0.14880078959E+02  0.31160929516E+02  0.00000000000E+00 0.  1.
         14    1    6    6    0    0 -0.89560258763E+02 -0.79115952372E+01  0.12430101762E+03  0.15340917922E+03  0.00000000000E+00 0. -1.
         -5    1    3    3    0  503 -0.10815492668E+02  0.40486711775E+02 -0.31294114099E+01  0.42285126555E+02  0.47000000000E+01 0.  1.
         11    1    4    4    0    0  0.15123574252E+02  0.12888592273E+02  0.23327713440E+02  0.30643441766E+02  0.00000000000E+00 0. -1.
        -12    1    4    4    0    0  0.10293437047E+03 -0.90124667100E+02  0.40557029095E+02  0.14269832814E+03  0.00000000000E+00 0.  1.
</event>
<event>
12    1  0.8417180E-002  0.2681015E+03  0.7818608E-02  0.1102742E+00
         21   -1    0    0  503  502  0.00000000000E+00  0.00000000000E+00  0.56570244982E+02  0.56570244982E+02  0.00000000000E+00 0. -1.
         21   -1    0    0  501  503 -0.00000000000E+00 -0.00000000000E+00 -0.12726589567E+04  0.12726589567E+04  0.00000000000E+00 0.  1.
          6    2    1    2  501    0  0.46728073185E+02  0.19561992880E+03 -0.67521761540E+03  0.72555712837E+03  0.17338872229E+03 0.  0.
         24    2    3    3    0    0  0.64282563275E+02  0.11409968383E+03 -0.57571071811E+03  0.59564399174E+03  0.78727048435E+02 0.  0.
         -6    2    1    2    0  502 -0.46728073185E+02 -0.19561992880E+03 -0.54087109630E+03  0.60367207329E+03  0.17727876323E+03 0.  0.
        -24    2    5    5    0    0 -0.63868369425E+02 -0.17386077182E+03 -0.30227301755E+03  0.36342556687E+03  0.80015179325E+02 0.  0.
          5    1    3    3  501    0 -0.17554490090E+02  0.81520244967E+02 -0.99506897290E+02  0.12991313663E+03  0.47000000000E+01 0. -1.
        -13    1    4    4    0    0  0.16671397381E+02  0.99268347416E+02 -0.43042384568E+03  0.44203713330E+03  0.00000000000E+00 0.  1.
         14    1    4    4    0    0  0.47611165894E+02  0.14831336418E+02 -0.14528687243E+03  0.15360685844E+03  0.00000000000E+00 0. -1.
         -5    1    5    5    0  502  0.17140296240E+02 -0.21759156985E+02 -0.23859807874E+03  0.24024650642E+03  0.47000000000E+01 0.  1.
         11    1    6    6    0    0 -0.29571846289E+02 -0.31914366291E+02 -0.25342957562E+02  0.50351627250E+02  0.00000000000E+00 0. -1.
        -12    1    6    6    0    0 -0.34296523136E+02 -0.14194640552E+03 -0.27693005999E+03  0.31307393962E+03  0.00000000000E+00 0.  1.
</event>
<event>
12    1  0.8417180E-002  0.1853272E+03  0.7818608E-02  0.1163427E+00
         21   -1    0    0  503  502  0.00000000000E+00  0.00000000000E+00  0.20924302787E+04  0.20924302787E+04  0.00000000000E+00 0. -1.
         21   -1    0    0  501  503 -0.00000000000E+00 -0.00000000000E+00 -0.34326057613E+02  0.34326057613E+02  0.00000000000E+00 0. -1.
          6    2    1    2  501    0 -0.67904550431E+02  0.13614049866E+02  0.25161223916E+03  0.31078291876E+03  0.16876295024E+03 0.  0.
         24    2    3    3    0    0 -0.18591795859E+02  0.62752127835E+02  0.10155190928E+03  0.14529427542E+03  0.80710295323E+02 0.  0.
         -6    2    1    2    0  502  0.67904550431E+02 -0.13614049866E+02  0.18064919819E+04  0.18159734176E+04  0.17190055896E+03 0.  0.
        -24    2    5    5    0    0  0.60109918453E+02  0.32169674821E+02  0.16301091643E+04  0.16335182338E+04  0.80485043730E+02 0.  0.
          5    1    3    3  501    0 -0.49312754572E+02 -0.49138077969E+02  0.15006032987E+03  0.16548864333E+03  0.47000000000E+01 0. -1.
        -13    1    4    4    0    0  0.24804324011E+02  0.12161184374E+02  0.61784294188E+02  0.67679006370E+02  0.00000000000E+00 0.  1.
         14    1    4    4    0    0 -0.43396119870E+02  0.50590943461E+02  0.39767615095E+02  0.77615269054E+02  0.00000000000E+00 0. -1.
         -5    1    5    5    0  502  0.77946319774E+01 -0.45783724687E+02  0.17638281764E+03  0.18245518379E+03  0.47000000000E+01 0.  1.
         13    1    6    6    0    0  0.42322021142E+02  0.59338237466E+02  0.10908085702E+04  0.10932408320E+04  0.00000000000E+00 0. -1.
        -14    1    6    6    0    0  0.17787897311E+02 -0.27168562645E+02  0.53930059411E+03  0.54027740180E+03  0.00000000000E+00 0.  1.
</event>
<event>
12    1  0.8417180E-002  0.1767018E+03  0.7818608E-02  0.1171525E+00
         21   -1    0    0  503  502  0.00000000000E+00  0.00000000000E+00  0.52584419631E+03  0.52584419631E+03  0.00000000000E+00 0. -1.
         21   -1    0    0  501  503 -0.00000000000E+00 -0.00000000000E+00 -0.16701421991E+03  0.16701421991E+03  0.00000000000E+00 0. -1.
          6    2    1    2  501    0 -0.15263442013E+01  0.39122174657E+02 -0.99191687446E+02  0.20263886284E+03  0.17230973159E+03 0.  0.
         24    2    3    3    0    0  0.41759057625E+02  0.75978681325E+02 -0.69425654517E+02  0.13829498348E+03  0.82395400610E+02 0.  0.
         -6    2    1    2    0  502  0.15263442013E+01 -0.39122174657E+02  0.45802166385E+03  0.49021955338E+03  0.17028943505E+03 0.  0.
        -24    2    5    5    0    0 -0.53686338375E+02 -0.22446587320E+02  0.38631869881E+03  0.39807878757E+03  0.76410155402E+02 0.  0.
          5    1    3    3  501    0 -0.43285401826E+02 -0.36856506668E+02 -0.29766032929E+02  0.64343879362E+02  0.47000000000E+01 0. -1.
        -11    1    4    4    0    0 -0.25075102853E+02  0.17070397358E+02 -0.14364768973E+02  0.33563459844E+02  0.00000000000E+00 0.  1.
         12    1    4    4    0    0  0.66834160478E+02  0.58908283967E+02 -0.55060885543E+02  0.10473152364E+03  0.00000000000E+00 0. -1.
         -5    1    5    5    0  502  0.55212682577E+02 -0.16675587338E+02  0.71702965032E+02  0.92140765813E+02  0.47000000000E+01 0.  1.
         13    1    6    6    0    0 -0.56075123230E+02 -0.39652725613E+02  0.36034591277E+03  0.36683229811E+03  0.00000000000E+00 0. -1.
        -14    1    6    6    0    0  0.23887848543E+01  0.17206138293E+02  0.25972786049E+02  0.31246489454E+02  0.00000000000E+00 0.  1.
</event>
<event>
12    1  0.8417180E-002  0.1887661E+03  0.7818608E-02  0.1162086E+00
         21   -1    0    0  503  502  0.00000000000E+00  0.00000000000E+00  0.11460061075E+04  0.11460061075E+04  0.00000000000E+00 0. -1.
         21   -1    0    0  501  503 -0.00000000000E+00 -0.00000000000E+00 -0.32372680347E+02  0.32372680347E+02  0.00000000000E+00 0. -1.
          6    2    1    2  501    0 -0.11538777951E+02  0.75382020276E+02  0.36235677835E+03  0.40375032359E+03  0.16092326311E+03 0.  0.
         24    2    3    3    0    0  0.80684145776E+01  0.16160132906E+02  0.31494571754E+03  0.32525463817E+03  0.79205589743E+02 0.  0.
         -6    2    1    2    0  502  0.11538777951E+02 -0.75382020276E+02  0.75127664877E+03  0.77462846422E+03  0.17267617732E+03 0.  0.
        -24    2    5    5    0    0 -0.37887692336E+02 -0.39216260026E+02  0.22537225839E+03  0.24514904441E+03  0.79573908056E+02 0.  0.
          5    1    3    3  501    0 -0.19607192528E+02  0.59221887370E+02  0.47411060805E+02  0.78495685417E+02  0.47000000000E+01 0. -1.
        -13    1    4    4    0    0 -0.12156009166E+02  0.31117003401E+02  0.28113653151E+03  0.28311443942E+03  0.00000000000E+00 0.  1.
         14    1    4    4    0    0  0.20224423744E+02 -0.14956870495E+02  0.33809186033E+02  0.42140198754E+02  0.00000000000E+00 0. -1.
         -5    1    5    5    0  502  0.49426470287E+02 -0.36165760250E+02  0.52590439038E+03  0.52947941981E+03  0.47000000000E+01 0.  1.
         11    1    6    6    0    0 -0.64059506863E+01 -0.54969831181E+02  0.93422453831E+02  0.10858394644E+03  0.00000000000E+00 0. -1.
        -12    1    6    6    0    0 -0.31481741649E+02  0.15753571155E+02  0.13194980456E+03  0.13656509797E+03  0.00000000000E+00 0.  1.
</event>
<event>
12    1  0.8417180E-002  0.1987261E+03  0.7818608E-02  0.1151566E+00
         21   -1    0    0  501  502  0.00000000000E+00  0.00000000000E+00  0.32092660349E+03  0.32092660349E+03  0.00000000000E+00 0. -1.
         21   -1    0    0  502  503 -0.00000000000E+00 -0.00000000000E+00 -0.45651842219E+03  0.45651842219E+03  0.00000000000E+00 0. -1.
         -6    2    1    2    0  503  0.64073382423E+02 -0.67903995936E+02 -0.40092737049E+03  0.44594086669E+03  0.17147638082E+03 0.  0.
        -24    2    3    3    0    0  0.10975226838E+03 -0.50074380759E+02 -0.27519227541E+03  0.31090065071E+03  0.79846240618E+02 0.  0.
          6    2    1    2  501    0 -0.64073382423E+02  0.67903995936E+02  0.26533555179E+03  0.33150415898E+03  0.17543004697E+03 0.  0.
         24    2    5    5    0    0  0.32019774952E+02  0.46505931987E+02  0.94873947801E+02  0.13460057732E+03  0.76994686485E+02 0.  0.
          5    1    5    5  501    0 -0.96093157374E+02  0.21398063950E+02  0.17046160399E+03  0.19690358166E+03  0.47000000000E+01 0. -1.
        -11    1    6    6    0    0  0.23552917296E+02  0.24401129992E+02  0.10387884125E+03  0.10927473961E+03  0.00000000000E+00 0.  1.
         12    1    6    6    0    0  0.84668576557E+01  0.22104801995E+02 -0.90048934490E+01  0.25325837712E+02  0.00000000000E+00 0. -1.
         -5    1    3    3    0  503 -0.45678885954E+02 -0.17829615177E+02 -0.12573509508E+03  0.13504021599E+03  0.47000000000E+01 0.  1.
         13    1    4    4    0    0  0.34921590898E+02 -0.14974322753E+01 -0.16724192423E+03  0.17085555605E+03  0.00000000000E+00 0. -1.
        -14    1    4    4    0    0  0.74830677479E+02 -0.48576948484E+02 -0.10795035118E+03  0.14004509465E+03  0.00000000000E+00 0.  1.
</event>
<event>
12    1  0.8417180E-002  0.4272246E+03  0.7818608E-02  0.1034751E+00
         21   -1    0    0  501  502  0.00000000000E+00  0.00000000000E+00  0.22096586862E+03  0.22096586862E+03  0.00000000000E+00 0. -1.
         21   -1    0    0  502  503 -0.00000000000E+00 -0.00000000000E+00 -0.82588792484E+03  0.82588792484E+03  0.00000000000E+00 0.  1.
         -6    2    1    2    0  503 -0.19249084935E+03 -0.34030329262E+03 -0.30935138991E+03  0.52746480086E+03  0.17222594361E+03 0.  0.
        -24    2    3    3    0    0 -0.11531673463E+03 -0.85112028575E+02 -0.69723205787E+02  0.16896489590E+03  0.56087466764E+02 0.  0.
          6    2    1    2  501    0  0.19249084935E+03  0.34030329262E+03 -0.29557066631E+03  0.51938899260E+03  0.17188324175E+03 0.  0.
         24    2    5    5    0    0  0.20470398340E+03  0.34416664030E+03 -0.26742767145E+03  0.48811273550E+03  0.79887958901E+02 0.  0.
          5    1    5    5  501    0 -0.12213134054E+02 -0.38633476787E+01 -0.28142994856E+02  0.31276257100E+02  0.47000000000E+01 0. -1.
        -11    1    6    6    0    0  0.13327534096E+03  0.18565012073E+03 -0.19243252710E+03  0.29876171328E+03  0.00000000000E+00 0.  1.
         12    1    6    6    0    0  0.71428642444E+02  0.15851651957E+03 -0.74995144351E+02  0.18935102221E+03  0.00000000000E+00 0. -1.
         -5    1    3    3    0  503 -0.77174114724E+02 -0.25519126405E+03 -0.23962818412E+03  0.35849990496E+03  0.47000000000E+01 0.  1.
         13    1    4    4    0    0 -0.82195924351E+02 -0.88145954670E+02 -0.57422547855E+02  0.13350366402E+03  0.00000000000E+00 0. -1.
        -14    1    4    4    0    0 -0.33120810275E+02  0.30339260950E+01 -0.12300657932E+02  0.35461231879E+02  0.00000000000E+00 0.  1.
</event>
<event>
12    1  0.8417180E-002  0.1989645E+03  0.7818608E-02  0.1150893E+00
         21   -1    0    0  501  502  0.00000000000E+00  0.00000000000E+00  0.84292984553E+03  0.84292984553E+03  0.00000000000E+00 0. -1.
         21   -1    0    0  502  503 -0.00000000000E+00 -0.00000000000E+00 -0.47734037501E+02  0.47734037501E+02  0.00000000000E+00 0. -1.
         -6    2    1    2    0  503 -0.67628296845E+01  0.10087156342E+03  0.32943132086E+03  0.38418244824E+03  0.16985390841E+03 0.  0.
        -24    2    3    3    0    0 -0.39298233604E+02  0.11888981334E+03  0.30531015810E+03  0.33960520818E+03  0.80238805492E+02 0.  0.
          6    2    1    2  501    0  0.67628296845E+01 -0.10087156342E+03  0.46576448717E+03  0.50648143479E+03  0.17136533520E+03 0.  0.
         24    2    5    5    0    0  0.14038001711E+02  0.16398364856E+02  0.14766909092E+03  0.16734733842E+03  0.75716572832E+02 0.  0.
          5    1    5    5  501    0 -0.72751720266E+01 -0.11726992827E+03  0.31809539625E+03  0.33913409637E+03  0.47000000000E+01 0. -1.
        -13    1    6    6    0    0 -0.25970668732E+01  0.18143466398E+01  0.14503347887E+03  0.14506807575E+03  0.00000000000E+00 0.  1.
         14    1    6    6    0    0  0.16635068584E+02  0.14584018216E+02  0.26356120515E+01  0.22279262668E+02  0.00000000000E+00 0. -1.
         -5    1    3    3    0  503  0.32535403919E+02 -0.18018249922E+02  0.24121162763E+02  0.44577240061E+02  0.47000000000E+01 0.  1.
         13    1    4    4    0    0  0.15053542650E+02  0.12723218070E+02  0.10204684833E+03  0.10393290470E+03  0.00000000000E+00 0. -1.
        -14    1    4    4    0    0 -0.54351776254E+02  0.10616659527E+03  0.20326330977E+03  0.23567230349E+03  0.00000000000E+00 0.  1.
</event>
<event>
12    1  0.8417180E-002  0.1777372E+03  0.7818608E-02  0.1172172E+00
         21   -1    0    0  501  502  0.00000000000E+00  0.00000000000E+00  0.18781340925E+04  0.18781340925E+04  0.00000000000E+00 0. -1.
         21   -1    0    0  502  503 -0.00000000000E+00 -0.00000000000E+00 -0.16635860398E+02  0.16635860398E+02  0.00000000000E+00 0. -1.
         -6    2    1    2    0  503  0.43212902451E+02  0.43862338789E+01  0.77064035005E+03  0.79087108143E+03  0.17234826464E+03 0.  0.
        -24    2    3    3    0    0  0.24543867196E+02  0.68117079529E+02  0.27960304147E+03  0.29534118123E+03  0.61694526446E+02 0.  0.
          6    2    1    2  501    0 -0.43212902451E+02 -0.43862338789E+01  0.10908578821E+04  0.11038988715E+04  0.16350903834E+03 0.  0.
         24    2    5    5    0    0 -0.22595303967E+01  0.52934591690E+02  0.54243386399E+03  0.55094873872E+03  0.80640184881E+02 0.  0.
          5    1    5    5  501    0 -0.40953372054E+02 -0.57320825569E+02  0.54842401807E+03  0.55295013277E+03  0.47000000000E+01 0. -1.
        -13    1    6    6    0    0 -0.12149982958E+02  0.51106424971E+02  0.16040706036E+03  0.16878955469E+03  0.00000000000E+00 0.  1.
         14    1    6    6    0    0  0.98904525616E+01  0.18281667185E+01  0.38202680363E+03  0.38215918403E+03  0.00000000000E+00 0. -1.
         -5    1    3    3    0  503  0.18669035255E+02 -0.63730845650E+02  0.49103730858E+03  0.49552990019E+03  0.47000000000E+01 0.  1.
         11    1    4    4    0    0  0.13712805867E+02  0.65533020952E+02  0.27542863675E+03  0.28344938141E+03  0.00000000000E+00 0. -1.
        -12    1    4    4    0    0  0.10831061329E+02  0.25840585768E+01  0.41744047163E+01  0.11891799821E+02  0.00000000000E+00 0.  1.
</event>
<event>
12    1  0.8417180E-002  0.1903240E+03  0.7818608E-02  0.1158510E+00
         21   -1    0    0  503  502  0.00000000000E+00  0.00000000000E+00  0.29594081075E+02  0.29594081075E+02  0.00000000000E+00 0.  1.
         21   -1    0    0  501  503 -0.00000000000E+00 -0.00000000000E+00 -0.12144342291E+04  0.12144342291E+04  0.00000000000E+00 0.  1.
          6    2    1    2  501    0 -0.80760615828E+02  0.14597994383E+02 -0.60075716573E+03  0.63018441170E+03  0.17172024363E+03 0.  0.
         24    2    3    3    0    0 -0.66103019047E+02  0.22475325094E+01 -0.60182498129E+03  0.61042057397E+03  0.77751581961E+02 0.  0.
         -6    2    1    2    0  502  0.80760615828E+02 -0.14597994383E+02 -0.58408298225E+03  0.61384389843E+03  0.17004711985E+03 0.  0.
        -24    2    5    5    0    0  0.51589919191E+02  0.56717229183E+02 -0.37265418166E+03  0.38876387183E+03  0.79923995651E+02 0.  0.
          5    1    3    3  501    0 -0.14657596781E+02  0.12350461873E+02  0.10678155575E+01  0.19763837733E+02  0.47000000000E+01 0. -1.
        -11    1    4    4    0    0 -0.42427522711E+02  0.96541472500E+01 -0.11488222171E+03  0.12284633535E+03  0.00000000000E+00 0.  1.
         12    1    4    4    0    0 -0.23675496336E+02 -0.74066147406E+01 -0.48694275958E+03  0.48757423863E+03  0.00000000000E+00 0. -1.
         -5    1    5    5    0  502  0.29170696638E+02 -0.71315223566E+02 -0.21142880059E+03  0.22508002660E+03  0.47000000000E+01 0.  1.
         11    1    6    6    0    0 -0.77560128348E+01  0.86007507738E+01 -0.19542948518E+03  0.19577234822E+03  0.00000000000E+00 0. -1.
        -12    1    6    6    0    0  0.59345932026E+02  0.48116478409E+02 -0.17722469648E+03  0.19299152361E+03  0.00000000000E+00 0.  1.
</event>
<event>
12    1  0.8417180E-002  0.1906893E+03  0.7818608E-02  0.1157892E+00
         21   -1    0    0  503  502  0.00000000000E+00  0.00000000000E+00  0.62796353896E+02  0.62796353896E+02  0.00000000000E+00 0.  1.
         21   -1    0    0  501  503 -0.00000000000E+00 -0.00000000000E+00 -0.76712933475E+03  0.76712933475E+03  0.00000000000E+00 0.  1.
          6    2    1    2  501    0  0.13809503097E+02  0.80559911699E+02 -0.55816514859E+03  0.58983960253E+03  0.17228413122E+03 0.  0.
         24    2    3    3    0    0  0.71522001201E+02  0.77613654551E+02 -0.34082196168E+03  0.36489613460E+03  0.76487276442E+02 0.  0.
         -6    2    1    2    0  502 -0.13809503097E+02 -0.80559911699E+02 -0.14616783227E+03  0.24008608611E+03  0.17203398445E+03 0.  0.
        -24    2    5    5    0    0  0.31962271036E+02  0.48207495012E+01 -0.37513507705E+02  0.94440060213E+02  0.80416635823E+02 0.  0.
          5    1    3    3  501    0 -0.57712498103E+02  0.29462571482E+01 -0.21734318691E+03  0.22494346793E+03  0.47000000000E+01 0. -1.
        -13    1    4    4    0    0 -0.98717068316E+01  0.54248177686E+01 -0.10009048601E+03  0.10072231448E+03  0.00000000000E+00 0.  1.
         14    1    4    4    0    0  0.81393708032E+02  0.72188836782E+02 -0.24073147566E+03  0.26417382012E+03  0.00000000000E+00 0. -1.
         -5    1    5    5    0  502 -0.45771774133E+02 -0.85380661200E+02 -0.10865432456E+03  0.14564602590E+03  0.47000000000E+01 0.  1.
         13    1    6    6    0    0 -0.23883151922E+02  0.81753221634E+01 -0.27985242021E+02  0.37688388254E+02  0.00000000000E+00 0. -1.
        -14    1    6    6    0    0  0.55845422958E+02 -0.33545726623E+01 -0.95282656837E+01  0.56751671958E+02  0.00000000000E+00 0.  1.
</event>
<event>
12    1  0.8417180E-002  0.2278342E+03  0.7818608E-02  0.1128269E+00
         21   -1    0    0  501  502  0.00000000000E+00  0.00000000000E+00  0.29893939285E+03  0.29893939285E+03  0.00000000000E+00 0. -1.
         21   -1    0    0  502  503 -0.00000000000E+00 -0.00000000000E+00 -0.27935186106E+03  0.27935186106E+03  0.00000000000E+00 0. -1.
         -6    2    1    2    0  503 -0.34323484917E+02  0.14540276475E+03 -0.16841156092E+03  0.28332114714E+03  0.17201265347E+03 0.  0.
        -24    2    3    3    0    0 -0.13380352838E+02  0.17300230828E+03 -0.15431678483E+03  0.24562363664E+03  0.80052909283E+02 0.  0.
          6    2    1    2  501    0  0.34323484917E+02 -0.14540276475E+03  0.18799909270E+03  0.29497010677E+03  0.17129985235E+03 0.  0.
         24    2    5    5    0    0  0.40986033198E+02 -0.17231686629E+03  0.14026900991E+03  0.23957146766E+03  0.79662636476E+02 0.  0.
          5    1    5    5  501    0 -0.66625482803E+01  0.26914101544E+02  0.47730082790E+02  0.55398639104E+02  0.47000000000E+01 0. -1.
        -13    1    6    6    0    0  0.66674951990E+01 -0.11024050828E+03  0.41522109796E+02  0.11798945190E+03  0.00000000000E+00 0.  1.
         14    1    6    6    0    0  0.34318537999E+02 -0.62076358017E+02  0.98746900118E+02  0.12158201577E+03  0.00000000000E+00 0. -1.
         -5    1    3    3    0  503 -0.20943132079E+02 -0.27599543535E+02 -0.14094776092E+02  0.37697510498E+02  0.47000000000E+01 0.  1.
         13    1    4    4    0    0  0.24425607071E+02  0.45396726467E+02 -0.73975318914E+02  0.90165519259E+02  0.00000000000E+00 0. -1.
        -14    1    4    4    0    0 -0.37805959910E+02  0.12760558182E+03 -0.80341465911E+02  0.15545811738E+03  0.00000000000E+00 0.  1.
</event>
<event>
12    1  0.8417180E-002  0.2874418E+03  0.7818608E-02  0.1091840E+00
         21   -1    0    0  503  502  0.00000000000E+00  0.00000000000E+00  0.10595956762E+04  0.10595956762E+04  0.00000000000E+00 0. -1.
         21   -1    0    0  501  503 -0.00000000000E+00 -0.00000000000E+00 -0.93978408573E+02  0.93978408573E+02  0.00000000000E+00 0.  1.
          6    2    1    2  501    0  0.17848391945E+03  0.14522587874E+03  0.24178459659E+03  0.37475670831E+03  0.17039874974E+03 0.  0.
         24    2    3    3    0    0  0.19381314767E+03  0.14357004517E+03  0.18093382121E+03  0.31180725329E+03  0.79440678929E+02 0.  0.
         -6    2    1    2    0  502 -0.17848391945E+03 -0.14522587874E+03  0.72383267104E+03  0.77881737647E+03  0.17226637765E+03 0.  0.
        -24    2    5    5    0    0 -0.20020133656E+03 -0.14601657193E+03  0.69739406760E+03  0.74427231672E+03  0.78621762055E+02 0.  0.
          5    1    3    3  501    0 -0.15329228215E+02  0.16558335697E+01  0.60850775380E+02  0.62949455016E+02  0.47000000000E+01 0. -1.
        -13    1    4    4    0    0  0.81869529173E+02  0.10747575325E+03  0.11187881771E+03  0.17541529920E+03  0.00000000000E+00 0.  1.
         14    1    4    4    0    0  0.11194361849E+03  0.36094291919E+02  0.69055003505E+02  0.13639195409E+03  0.00000000000E+00 0. -1.
         -5    1    5    5    0  502  0.21717417106E+02  0.79069319153E+00  0.26438603434E+02  0.34545059748E+02  0.47000000000E+01 0.  1.
         11    1    6    6    0    0 -0.40663075578E+02  0.39377951447E+01  0.10032681493E+03  0.10832572059E+03  0.00000000000E+00 0. -1.
        -12    1    6    6    0    0 -0.15953826098E+03 -0.14995436707E+03  0.59706725267E+03  0.63594659613E+03  0.00000000000E+00 0.  1.
</event>
<event>
12    1  0.8417180E-002  0.2087862E+03  0.7818608E-02  0.1143955E+00
         21   -1    0    0  503  502  0.00000000000E+00  0.00000000000E+00  0.60052287055E+03  0.60052287055E+03  0.00000000000E+00 0.  1.
         21   -1    0    0  501  503 -0.00000000000E+00 -0.00000000000E+00 -0.73519015165E+02  0.73519015165E+02  0.00000000000E+00 0. -1.
          6    2    1    2  501    0  0.10996166139E+03  0.28535425803E+02  0.33968394644E+03  0.39871903046E+03  0.17517375455E+03 0.  0.
         24    2    3    3    0    0  0.27474484528E+02  0.74396753126E+02  0.15626228390E+03  0.19238679357E+03  0.79404362574E+02 0.  0.
         -6    2    1    2    0  502 -0.10996166139E+03 -0.28535425803E+02  0.18731990895E+03  0.27532285526E+03  0.16675757505E+03 0.  0.
        -24    2    5    5    0    0 -0.14381683503E+03 -0.20173855894E+02  0.14178367041E+03  0.21777524320E+03  0.78950496227E+02 0.  0.
          5    1    3    3  501    0  0.82487176859E+02 -0.45861327323E+02  0.18342166255E+03  0.20633223689E+03  0.47000000000E+01 0. -1.
        -13    1    4    4    0    0 -0.15230008217E+02  0.22917837384E+02  0.10378646730E+03  0.10737230190E+03  0.00000000000E+00 0.  1.
         14    1    4    4    0    0  0.42704492745E+02  0.51478915743E+02  0.52475816599E+02  0.85014491673E+02  0.00000000000E+00 0. -1.
         -5    1    5    5    0  502  0.33855173643E+02 -0.83615699095E+01  0.45536238533E+02  0.57547612058E+02  0.47000000000E+01 0.  1.
         11    1    6    6    0    0 -0.62079355382E+02  0.72440065207E+01  0.14697309406E+02  0.64205396182E+02  0.00000000000E+00 0. -1.
        -12    1    6    6    0    0 -0.81737479648E+02 -0.27417862414E+02  0.12708636101E+03  0.15356984702E+03  0.00000000000E+00 0.  1.
</event>
<event>
12    1  0.8417180E-002  0.2210764E+03  0.7818608E-02  0.1133406E+00
         21   -1    0    0  503  502  0.00000000000E+00  0.00000000000E+00  0.60772152978E+03  0.60772152978E+03  0.00000000000E+00 0.  1.
         21   -1    0    0  501  503 -0.00000000000E+00 -0.00000000000E+00 -0.80203187233E+02  0.80203187233E+02  0.00000000000E+00 0.  1.
          6    2    1    2  501    0 -0.92021879257E+02  0.10020203211E+03  0.28937072140E+03  0.36415679444E+03  0.17425924088E+03 0.  0.
         24    2    3    3    0    0 -0.94562518772E+02  0.99263516654E+02  0.30705894431E+03  0.34565547314E+03  0.79982467658E+02 0.  0.
         -6    2    1    2    0  502  0.92021879257E+02 -0.10020203211E+03  0.23814762114E+03  0.32376792257E+03  0.17205494683E+03 0.  0.
        -24    2    5    5    0    0  0.50319776279E+02 -0.96952955640E+02  0.81947140742E+02  0.16199554554E+03  0.87150831367E+02 0.  0.
          5    1    3    3  501    0  0.25406395143E+01  0.93851545516E+00 -0.17688222909E+02  0.18501321306E+02  0.47000000000E+01 0. -1.
        -11    1    4    4    0    0 -0.12948088305E+02  0.43853548707E+02  0.39266002035E+02  0.60271101208E+02  0.00000000000E+00 0.  1.
         12    1    4    4    0    0 -0.81614430466E+02  0.55409967947E+02  0.26779294228E+03  0.28538437193E+03  0.00000000000E+00 0. -1.
         -5    1    5    5    0  502  0.41702102978E+02 -0.32490764688E+01  0.15620048040E+03  0.16177237702E+03  0.47000000000E+01 0.  1.
         13    1    6    6    0    0  0.62693763982E+02 -0.34936553861E+02  0.22534039393E+02  0.75225353235E+02  0.00000000000E+00 0. -1.
        -14    1    6    6    0    0 -0.12373987703E+02 -0.62016401780E+02  0.59413101349E+02  0.86770192309E+02  0.00000000000E+00 0.  1.
</event>
<event>
12    1  0.8417180E-002  0.1778699E+03  0.7818608E-02  0.1169980E+00
         21   -1    0    0  503  502  0.00000000000E+00  0.00000000000E+00  0.67555446552E+02  0.67555446552E+02  0.00000000000E+00 0.  1.
         21   -1    0    0  501  503 -0.00000000000E+00 -0.00000000000E+00 -0.11007649591E+04  0.11007649591E+04  0.00000000000E+00 0.  1.
          6    2    1    2  501    0 -0.39654796749E+02  0.15759776493E+02 -0.95951465287E+03  0.97578820167E+03  0.17225960639E+03 0.  0.
         24    2    3    3    0    0 -0.72099108368E+02 -0.25778722644E+02 -0.80301390692E+03  0.81058331751E+03  0.79694140062E+02 0.  0.
         -6    2    1    2    0  502  0.39654796749E+02 -0.15759776493E+02 -0.73694859629E+02  0.19253220393E+03  0.17267554475E+03 0.  0.
        -24    2    5    5    0    0  0.78047004706E+02 -0.31920644057E+01 -0.42184323222E+01  0.11202771355E+03  0.80192825205E+02 0.  0.
          5    1    3    3  501    0  0.32444311619E+02  0.41538499136E+02 -0.15650074595E+03  0.16520488416E+03  0.47000000000E+01 0. -1.
        -11    1    4    4    0    0 -0.27795720695E+02 -0.51850051882E+02 -0.39959301707E+03  0.40390049425E+03  0.00000000000E+00 0.  1.
         12    1    4    4    0    0 -0.44303387673E+02  0.26071329239E+02 -0.40342088985E+03  0.40668282326E+03  0.00000000000E+00 0. -1.
         -5    1    5    5    0  502 -0.38392207957E+02 -0.12567712087E+02 -0.69476427307E+02  0.80504490373E+02  0.47000000000E+01 0.  1.
         11    1    6    6    0    0  0.69217446485E+02 -0.50325064550E+01 -0.36567621543E+02  0.78444706414E+02  0.00000000000E+00 0. -1.
        -12    1    6    6    0    0  0.88295582209E+01  0.18404420493E+01  0.32349189221E+02  0.33583007140E+02  0.00000000000E+00 0.  1.
</event>
<event>
12    1  0.8417180E-002  0.1809286E+03  0.7818608E-02  0.1166940E+00
         21   -1    0    0  501  502  0.00000000000E+00  0.00000000000E+00  0.14714167167E+03  0.14714167167E+03  0.00000000000E+00 0. -1.
         21   -1    0    0  502  503 -0.00000000000E+00 -0.00000000000E+00 -0.36782318281E+03  0.36782318281E+03  0.00000000000E+00 0.  1.
         -6    2    1    2    0  503  0.14121868409E+02 -0.55155470029E+02 -0.27226711864E+03  0.32682599245E+03  0.17159339266E+03 0.  0.
        -24    2    3    3    0    0  0.68456771675E+02 -0.28143557671E+02 -0.11640999500E+03  0.15950755918E+03  0.80081115580E+02 0.  0.
          6    2    1    2  501    0 -0.14121868409E+02  0.55155470029E+02  0.51585607508E+02  0.18813886203E+03  0.17173701833E+03 0.  0.
         24    2    5    5    0    0 -0.38822710721E+01 -0.27674486640E+02 -0.18788089686E+02  0.78867647470E+02  0.71317348968E+02 0.  0.
          5    1    5    5  501    0 -0.10239597337E+02  0.82829956669E+02  0.70373697195E+02  0.10927121456E+03  0.47000000000E+01 0. -1.
        -11    1    6    6    0    0  0.21293458983E+02 -0.40537020847E+02 -0.21268683492E+02  0.50487803994E+02  0.00000000000E+00 0.  1.
         12    1    6    6    0    0 -0.25175730055E+02  0.12862534207E+02  0.24805938061E+01  0.28379843475E+02  0.00000000000E+00 0. -1.
         -5    1    3    3    0  503 -0.54334903266E+02 -0.27011912358E+02 -0.15585712363E+03  0.16731843326E+03  0.47000000000E+01 0.  1.
         11    1    4    4    0    0  0.51477516695E+02 -0.45830150156E+02 -0.11606597887E+03  0.13498758772E+03  0.00000000000E+00 0. -1.
        -12    1    4    4    0    0  0.16979254980E+02  0.17686592485E+02 -0.34401613890E+00  0.24519971462E+02  0.00000000000E+00 0.  1.
</event>
<event>
12    1  0.8417180E-002  0.1966965E+03  0.7818608E-02  0.1152803E+00
         21   -1    0    0  503  502  0.00000000000E+00  0.00000000000E+00  0.73496169589E+03  0.73496169589E+03  0.00000000000E+00 0.  1.
         21   -1    0    0  501  503 -0.00000000000E+00 -0.00000000000E+00 -0.53482668509E+02  0.53482668509E+02  0.00000000000E+00 0.  1.
          6    2    1    2  501    0 -0.75837929577E+02 -0.48692816047E+02  0.39747796258E+03  0.44297929317E+03  0.17354982439E+03 0.  0.
         24    2    3    3    0    0  0.82743212171E+01  0.58211884445E+01  0.10098241009E+03  0.12996435732E+03  0.81184582278E+02 0.  0.
         -6    2    1    2    0  502  0.75837929577E+02  0.48692816047E+02  0.28400106479E+03  0.34546507122E+03  0.17483457534E+03 0.  0.
        -24    2    5    5    0    0  0.13701372267E+02 -0.18866786064E+02  0.21579489048E+03  0.23101235694E+03  0.79092294719E+02 0.  0.
          5    1    3    3  501    0 -0.84112250795E+02 -0.54514004491E+02  0.29649555249E+03  0.31301493585E+03  0.47000000000E+01 0. -1.
        -13    1    4    4    0    0 -0.18786959031E+02 -0.26721152942E+01  0.99788165026E+02  0.10157641414E+03  0.00000000000E+00 0.  1.
         14    1    4    4    0    0  0.27061280248E+02  0.84933037387E+01  0.11942450681E+01  0.28387943186E+02  0.00000000000E+00 0. -1.
         -5    1    5    5    0  502  0.62136557310E+02  0.67559602111E+02  0.68206174316E+02  0.11445271428E+03  0.47000000000E+01 0.  1.
         11    1    6    6    0    0  0.21697280791E+02  0.27688406872E+02  0.95852369210E+02  0.10210336210E+03  0.00000000000E+00 0. -1.
        -12    1    6    6    0    0 -0.79959085239E+01 -0.46555192937E+02  0.11994252127E+03  0.12890899484E+03  0.00000000000E+00 0.  1.
</event>
<event>
12    1  0.8417180E-002  0.1775557E+03  0.7818608E-02  0.1170250E+00
         21   -1    0    0  501  502  0.00000000000E+00  0.00000000000E+00  0.10095310607E+03  0.10095310607E+03  0.00000000000E+00 0.  1.
         21   -1    0    0  502  503 -0.00000000000E+00 -0.00000000000E+00 -0.91197275520E+03  0.91197275520E+03  0.00000000000E+00 0.  1.
         -6    2    1    2    0  503  0.40240645777E+02 -0.17038172952E+02 -0.81644729814E+03  0.83553109082E+03  0.17209417239E+03 0.  0.
        -24    2    3    3    0    0 -0.44786421672E+02 -0.13648159500E+01 -0.41513461462E+03  0.42498363160E+03  0.79162191610E+02 0.  0.
          6    2    1    2  501    0 -0.40240645777E+02  0.17038172952E+02  0.54276490134E+01  0.17739477045E+03  0.17184247525E+03 0.  0.
         24    2    5    5    0    0 -0.61675702249E+02 -0.39478195586E+02  0.30411716290E+02  0.11182148949E+03  0.78846387672E+02 0.  0.
          5    1    5    5  501    0  0.21435056472E+02  0.56516368538E+02 -0.24984067277E+02  0.65573280964E+02  0.47000000000E+01 0. -1.
        -11    1    6    6    0    0 -0.61992023502E+02 -0.20608065797E+02  0.51745120324E+02  0.83338231509E+02  0.00000000000E+00 0.  1.
         12    1    6    6    0    0  0.31632125264E+00 -0.18870129789E+02 -0.21333404034E+02  0.28483257978E+02  0.00000000000E+00 0. -1.
         -5    1    3    3    0  503  0.85027067449E+02 -0.15673357002E+02 -0.40131268352E+03  0.41054745922E+03  0.47000000000E+01 0.  1.
         13    1    4    4    0    0 -0.15641091645E+02 -0.36103688946E+02 -0.11745592759E+03  0.12387096120E+03  0.00000000000E+00 0. -1.
        -14    1    4    4    0    0 -0.29145330026E+02  0.34738872996E+02 -0.29767868703E+03  0.30111267039E+03  0.00000000000E+00 0.  1.
</event>
<event>
12    1  0.8417180E-002  0.1816494E+03  0.7818608E-02  0.1166675E+00
         21   -1    0    0  501  502  0.00000000000E+00  0.00000000000E+00  0.13465921917E+03  0.13465921917E+03  0.00000000000E+00 0. -1.
         21   -1    0    0  502  503 -0.00000000000E+00 -0.00000000000E+00 -0.25077917815E+03  0.25077917815E+03  0.00000000000E+00 0. -1.
         -6    2    1    2    0  503  0.19126540402E+02 -0.50917569983E+02 -0.92847782513E+02  0.20230428883E+03  0.17131226191E+03 0.  0.
        -24    2    3    3    0    0 -0.68380918510E-01 -0.24431089694E+02 -0.12886725455E+03  0.15342207317E+03  0.79590705621E+02 0.  0.
          6    2    1    2  501    0 -0.19126540402E+02  0.50917569983E+02 -0.23272176471E+02  0.18313410849E+03  0.17331498497E+03 0.  0.
         24    2    5    5    0    0 -0.55454233216E+02  0.54195595077E+02 -0.63598161024E+02  0.12855644141E+03  0.80434433145E+02 0.  0.
          5    1    5    5  501    0  0.36327692814E+02 -0.32780250944E+01  0.40325984554E+02  0.54577667080E+02  0.47000000000E+01 0. -1.
        -13    1    6    6    0    0 -0.56992964447E+02  0.24828306614E+02 -0.42372220132E+01  0.62310487529E+02  0.00000000000E+00 0.  1.
         14    1    6    6    0    0  0.15387312307E+01  0.29367288463E+02 -0.59360939011E+02  0.66245953882E+02  0.00000000000E+00 0. -1.
         -5    1    3    3    0  503  0.19194921321E+02 -0.26486480288E+02  0.36019472034E+02  0.48882215664E+02  0.47000000000E+01 0.  1.
         11    1    4    4    0    0  0.27601853326E+02 -0.41808906475E+02 -0.69771509065E+02  0.85894763780E+02  0.00000000000E+00 0. -1.
        -12    1    4    4    0    0 -0.27670234244E+02  0.17377816780E+02 -0.59095745482E+02  0.67527309389E+02  0.00000000000E+00 0.  1.
</event>
<event>
12    1  0.8417180E-002  0.1958991E+03  0.7818608E-02  0.1154314E+00
         21   -1    0    0  503  502  0.00000000000E+00  0.00000000000E+00  0.56245509077E+03  0.56245509077E+03  0.00000000000E+00 0.  1.
         21   -1    0    0  501  503 -0.00000000000E+00 -0.00000000000E+00 -0.14991011392E+03  0.14991011392E+03  0.00000000000E+00 0.  1.
          6    2    1    2  501    0  0.95819695206E+02  0.43835435934E+01 -0.58178099190E+02  0.20435547819E+03  0.17080936976E+03 0.  0.
         24    2    3    3    0    0  0.15320292782E+02 -0.36195400763E+02  0.10321004491E+02  0.91037246116E+02  0.81464339679E+02 0.  0.
         -6    2    1    2    0  502 -0.95819695206E+02 -0.43835435934E+01  0.47072307604E+03  0.50800972649E+03  0.16520604847E+03 0.  0.
        -24    2    5    5    0    0 -0.57808745110E+02  0.22108722500E+02  0.13660812920E+03  0.17066485816E+03  0.81449777318E+02 0.  0.
          5    1    3    3  501    0  0.80499402424E+02  0.40578944357E+02 -0.68499103681E+02  0.11331823208E+03  0.47000000000E+01 0. -1.
        -13    1    4    4    0    0  0.47808364081E+02 -0.10303307736E+02  0.54103416525E+01  0.49204365895E+02  0.00000000000E+00 0.  1.
         14    1    4    4    0    0 -0.32488071299E+02 -0.25892093027E+02  0.49106628383E+01  0.41832880220E+02  0.00000000000E+00 0. -1.
         -5    1    5    5    0  502 -0.38010950097E+02 -0.26492266093E+02  0.33411494684E+03  0.33734486833E+03  0.47000000000E+01 0.  1.
         13    1    6    6    0    0 -0.45409814749E+02 -0.25604587287E+02  0.81268795120E+02  0.96551868060E+02  0.00000000000E+00 0. -1.
        -14    1    6    6    0    0 -0.12398930361E+02  0.47713309787E+02  0.55339334080E+02  0.74112990099E+02  0.00000000000E+00 0.  1.
</event>
<event>
12    1  0.8417180E-002  0.2877685E+03  0.7818608E-02  0.1091685E+00
         21   -1    0    0  501  502  0.00000000000E+00  0.00000000000E+00  0.22982933842E+03  0.22982933842E+03  0.00000000000E+00 0. -1.
         21   -1    0    0  502  503 -0.00000000000E+00 -0.00000000000E+00 -0.37847386257E+03  0.37847386257E+03  0.00000000000E+00 0.  1.
         -6    2    1    2    0  503  0.22575500825E+03  0.45347738159E+02 -0.14360171591E+03  0.32049056041E+03  0.17050221521E+03 0.  0.
        -24    2    3    3    0    0  0.36120035285E+02  0.34772707677E+02 -0.62498237000E+02  0.11391583172E+03  0.80975236585E+02 0.  0.
          6    2    1    2  501    0 -0.22575500825E+03 -0.45347738159E+02 -0.50428082425E+01  0.28781264058E+03  0.17259474227E+03 0.  0.
         24    2    5    5    0    0 -0.82981001889E+02 -0.68172638040E+02  0.35208570848E+02  0.13765386973E+03  0.78584916733E+02 0.  0.
          5    1    5    5  501    0 -0.14277400636E+03  0.22824899881E+02 -0.40251379091E+02  0.15015877086E+03  0.47000000000E+01 0. -1.
        -13    1    6    6    0    0 -0.36646887918E+02 -0.20223757152E+02 -0.24200094355E+02  0.48349139746E+02  0.00000000000E+00 0.  1.
         14    1    6    6    0    0 -0.46334113971E+02 -0.47948880888E+02  0.59408665203E+02  0.89304729981E+02  0.00000000000E+00 0. -1.
         -5    1    3    3    0  503  0.18963497296E+03  0.10575030482E+02 -0.81103478910E+02  0.20657472869E+03  0.47000000000E+01 0.  1.
         11    1    4    4    0    0 -0.13344843913E+02 -0.79605940159E+01  0.82493073565E+01  0.17592810691E+02  0.00000000000E+00 0. -1.
        -12    1    4    4    0    0  0.49464879198E+02  0.42733301693E+02 -0.70747544357E+02  0.96323021029E+02  0.00000000000E+00 0.  1.
</event>
<event>
12    1  0.8417180E-002  0.2370328E+03  0.7818608E-02  0.1122151E+00
         21   -1    0    0  501  502  0.00000000000E+00  0.00000000000E+00  0.29275441030E+02  0.29275441030E+02  0.00000000000E+00 0. -1.
         21   -1    0    0  502  503 -0.00000000000E+00 -0.00000000000E+00 -0.19017852750E+04  0.19017852750E+04  0.00000000000E+00 0.  1.
         -6    2    1    2    0  503 -0.15408113664E+03 -0.50103522022E+02 -0.94124733782E+03  0.97063437432E+03  0.17301207495E+03 0.  0.
        -24    2    3    3    0    0 -0.10523349722E+03 -0.10128084708E+03 -0.65429376000E+03  0.67505078834E+03  0.79128651865E+02 0.  0.
          6    2    1    2  501    0  0.15408113664E+03  0.50103522022E+02 -0.93126249620E+03  0.96042634175E+03  0.17005164368E+03 0.  0.
         24    2    5    5    0    0  0.11370671586E+03  0.11958237131E+02 -0.35529551340E+03  0.38176822863E+03  0.80248750017E+02 0.  0.
          5    1    5    5  501    0  0.40374420784E+02  0.38145284891E+02 -0.57596698280E+03  0.57865811313E+03  0.47000000000E+01 0. -1.
        -13    1    6    6    0    0  0.12574940294E+03  0.13151909080E+02 -0.30782349357E+03  0.33277798642E+03  0.00000000000E+00 0.  1.
         14    1    6    6    0    0 -0.12042687078E+02 -0.11936719482E+01 -0.47472019827E+02  0.48990242204E+02  0.00000000000E+00 0. -1.
         -5    1    3    3    0  503 -0.48847639426E+02  0.51177325061E+02 -0.28695357782E+03  0.29558358598E+03  0.47000000000E+01 0.  1.
         11    1    4    4    0    0  0.75734049264E+01 -0.31627362112E+02 -0.10159246666E+03  0.10667087596E+03  0.00000000000E+00 0. -1.
        -12    1    4    4    0    0 -0.11280690214E+03 -0.69653484971E+02 -0.55270129333E+03  0.56837991238E+03  0.00000000000E+00 0.  1.
</event>
<event>
12    1  0.8417180E-002  0.2092176E+03  0.7818608E-02  0.1142474E+00
         21   -1    0    0  503  502  0.00000000000E+00  0.00000000000E+00  0.23848140917E+03  0.23848140917E+03  0.00000000000E+00 0. -1.
         21   -1    0    0  501  503 -0.00000000000E+00 -0.00000000000E+00 -0.30003596112E+03  0.30003596112E+03  0.00000000000E+00 0.  1.
          6    2    1    2  501    0  0.54171656630E+02  0.10274360217E+03 -0.19952206687E+03  0.28910388916E+03  0.17401490565E+03 0.  0.
         24    2    3    3    0    0 -0.90249688884E+01  0.10086299567E+02 -0.31948404162E+02  0.87405570777E+02  0.80223748180E+02 0.  0.
         -6    2    1    2    0  502 -0.54171656630E+02 -0.10274360217E+03  0.13796751493E+03  0.24941348113E+03  0.17228242285E+03 0.  0.
        -24    2    5    5    0    0  0.68497398767E+01 -0.84444507265E+02  0.14223494529E+03  0.18539185456E+03  0.83436001422E+02 0.  0.
          5    1    3    3  501    0  0.63196625518E+02  0.92657302604E+02 -0.16757366271E+03  0.20169831838E+03  0.47000000000E+01 0. -1.
        -13    1    4    4    0    0 -0.10916398762E+02  0.36898994349E+02 -0.43562906512E+02  0.58124266617E+02  0.00000000000E+00 0.  1.
         14    1    4    4    0    0  0.18914298740E+01 -0.26812694782E+02  0.11614502351E+02  0.29281304160E+02  0.00000000000E+00 0. -1.
         -5    1    5    5    0  502 -0.61021396506E+02 -0.18299094906E+02 -0.42674303631E+01  0.64021626564E+02  0.47000000000E+01 0.  1.
         11    1    6    6    0    0 -0.28719799784E+01 -0.70530004036E+01  0.92656728461E+02  0.92969147640E+02  0.00000000000E+00 0. -1.
        -12    1    6    6    0    0  0.97217198551E+01 -0.77391506862E+02  0.49578216829E+02  0.92422706924E+02  0.00000000000E+00 0.  1.
</event>
<event>
12    1  0.8417180E-002  0.2220330E+03  0.7818608E-02  0.1132788E+00
         21   -1    0    0  501  502  0.00000000000E+00  0.00000000000E+00  0.57977375849E+03  0.57977375849E+03  0.00000000000E+00 0. -1.
         21   -1    0    0  502  503 -0.00000000000E+00 -0.00000000000E+00 -0.85577460183E+02  0.85577460183E+02  0.00000000000E+00 0. -1.
         -6    2    1    2    0  503  0.12482762736E+03 -0.62514904778E+02  0.20582240365E+03  0.30275655708E+03  0.17265173367E+03 0.  0.
        -24    2    3    3    0    0  0.64978025568E+02  0.26584067197E+02  0.62720395286E+02  0.12381277697E+03  0.80417033777E+02 0.  0.
          6    2    1    2  501    0 -0.12482762736E+03  0.62514904778E+02  0.28837389466E+03  0.36259466159E+03  0.16978025687E+03 0.  0.
         24    2    5    5    0    0 -0.48170027154E+02  0.93554309752E+02  0.21320407606E+03  0.25073571489E+03  0.79621983656E+02 0.  0.
          5    1    5    5  501    0 -0.76657600205E+02 -0.31039404973E+02  0.75169818597E+02  0.11185894671E+03  0.47000000000E+01 0. -1.
        -11    1    6    6    0    0  0.19823267417E+02  0.32524415992E+02  0.42153809338E+02  0.56813230927E+02  0.00000000000E+00 0.  1.
         12    1    6    6    0    0 -0.67993294570E+02  0.61029893760E+02  0.17105026672E+03  0.19392248396E+03  0.00000000000E+00 0. -1.
         -5    1    3    3    0  503  0.59849601791E+02 -0.89098971975E+02  0.14310200836E+03  0.17894378010E+03  0.47000000000E+01 0.  1.
         13    1    4    4    0    0  0.36284004550E+02 -0.26488135670E+02  0.37111843495E+02  0.58270397673E+02  0.00000000000E+00 0. -1.
        -14    1    4    4    0    0  0.28694021018E+02  0.53072202867E+02  0.25608551792E+02  0.65542379300E+02  0.00000000000E+00 0.  1.
</event>
<event>
12    1  0.8417180E-002  0.1790372E+03  0.7818608E-02  0.1168802E+00
         21   -1    0    0  501  502  0.00000000000E+00  0.00000000000E+00  0.19884570690E+02  0.19884570690E+02  0.00000000000E+00 0.  1.
         21   -1    0    0  502  503 -0.00000000000E+00 -0.00000000000E+00 -0.23379535026E+04  0.23379535026E+04  0.00000000000E+00 0.  1.
         -6    2    1    2    0  503 -0.48671374137E+02 -0.51060569663E+01 -0.18164364172E+04  0.18252129866E+04  0.17194828974E+03 0.  0.
        -24    2    3    3    0    0 -0.19027346876E+02  0.43386116989E+02 -0.57111731359E+03  0.57858873726E+03  0.79658935023E+02 0.  0.
          6    2    1    2  501    0  0.48671374137E+02  0.51060569663E+01 -0.50163251468E+03  0.53262508663E+03  0.17221883941E+03 0.  0.
         24    2    5    5    0    0  0.98957878548E+02  0.51578306259E+01 -0.37484103070E+03  0.39614466453E+03  0.81274424011E+02 0.  0.
          5    1    5    5  501    0 -0.50286504411E+02 -0.51773659617E-01 -0.12679148397E+03  0.13648042209E+03  0.47000000000E+01 0. -1.
        -13    1    6    6    0    0  0.86749217997E+02  0.36655627025E+02 -0.28541839355E+03  0.30055402375E+03  0.00000000000E+00 0.  1.
         14    1    6    6    0    0  0.12208660551E+02 -0.31497796399E+02 -0.89422637148E+02  0.95590640781E+02  0.00000000000E+00 0. -1.
         -5    1    3    3    0  503 -0.29644027260E+02 -0.48492173955E+02 -0.12453191036E+04  0.12466242494E+04  0.47000000000E+01 0.  1.
         11    1    4    4    0    0 -0.49684223943E+01  0.27742179952E+01  0.16433398248E+00  0.56928474625E+01  0.00000000000E+00 0. -1.
        -12    1    4    4    0    0 -0.14058924482E+02  0.40611898994E+02 -0.57128164757E+03  0.57289588980E+03  0.00000000000E+00 0.  1.
</event>
<event>
12    1  0.8417180E-002  0.3340934E+03  0.7818608E-02  0.1069389E+00
         21   -1    0    0  501  502  0.00000000000E+00  0.00000000000E+00  0.42143573297E+03  0.42143573297E+03  0.00000000000E+00 0. -1.
         21   -1    0    0  502  503 -0.00000000000E+00 -0.00000000000E+00 -0.53064210737E+03  0.53064210737E+03  0.00000000000E+00 0.  1.
         -6    2    1    2    0  503 -0.26208677004E+03 -0.11328825871E+03 -0.39171925811E+03  0.51454846306E+03  0.17260486398E+03 0.  0.
        -24    2    3    3    0    0 -0.20135462677E+03 -0.95714914902E+02 -0.18627320245E+03  0.29954291098E+03  0.72960392757E+02 0.  0.
          6    2    1    2  501    0  0.26208677004E+03  0.11328825871E+03  0.28251288371E+03  0.43752937728E+03  0.17347830391E+03 0.  0.
         24    2    5    5    0    0  0.18307471749E+03  0.13501876948E+03  0.15842264228E+03  0.28874901041E+03  0.80819781820E+02 0.  0.
          5    1    5    5  501    0  0.79012052557E+02 -0.21730510763E+02  0.12409024143E+03  0.14878036687E+03  0.47000000000E+01 0. -1.
        -13    1    6    6    0    0  0.71405638572E+02  0.10042304915E+03  0.66418438814E+02  0.13998200968E+03  0.00000000000E+00 0.  1.
         14    1    6    6    0    0  0.11166907892E+03  0.34595720327E+02  0.92004203469E+02  0.14876700073E+03  0.00000000000E+00 0. -1.
         -5    1    3    3    0  503 -0.60732143273E+02 -0.17573343812E+02 -0.20544605566E+03  0.21500555208E+03  0.47000000000E+01 0.  1.
         11    1    4    4    0    0 -0.11696890830E+03 -0.91687087866E+02 -0.10229484589E+03  0.18042306695E+03  0.00000000000E+00 0. -1.
        -12    1    4    4    0    0 -0.84385718468E+02 -0.40278270360E+01 -0.83978356567E+02  0.11911984404E+03  0.00000000000E+00 0.  1.
</event>
<event>
12    1  0.8417180E-002  0.1740188E+03  0.7818608E-02  0.1175256E+00
         21   -1    0    0  501  502  0.00000000000E+00  0.00000000000E+00  0.41310099117E+03  0.41310099117E+03  0.00000000000E+00 0.  1.
         21   -1    0    0  502  503 -0.00000000000E+00 -0.00000000000E+00 -0.75194797213E+02  0.75194797213E+02  0.00000000000E+00 0.  1.
         -6    2    1    2    0  503 -0.16771968956E+01  0.32462777492E+02  0.11282018522E+03  0.20739079017E+03  0.17095584442E+03 0.  0.
        -24    2    3    3    0    0 -0.29663430087E+02  0.10911721776E+02  0.13913142967E+03  0.16309576973E+03  0.79017027441E+02 0.  0.
          6    2    1    2  501    0  0.16771968956E+01 -0.32462777492E+02  0.22508600873E+03  0.28090499821E+03  0.16488560211E+03 0.  0.
         24    2    5    5    0    0  0.39526409807E+02 -0.38341088917E+02  0.22160027274E+03  0.24215763935E+03  0.80630423843E+02 0.  0.
          5    1    5    5  501    0 -0.37849212912E+02  0.58783114246E+01  0.34857359983E+01  0.38747358861E+02  0.47000000000E+01 0. -1.
        -11    1    6    6    0    0 -0.17530943964E+02 -0.33608218599E+02  0.11598769342E+03  0.12202455236E+03  0.00000000000E+00 0.  1.
         12    1    6    6    0    0  0.57057353772E+02 -0.47328703177E+01  0.10561257931E+03  0.12013308699E+03  0.00000000000E+00 0. -1.
         -5    1    3    3    0  503  0.27986233191E+02  0.21551055716E+02 -0.26311244451E+02  0.44295020434E+02  0.47000000000E+01 0.  1.
         11    1    4    4    0    0 -0.36531898345E+02 -0.16720031287E+02  0.29543429670E+02  0.49869362133E+02  0.00000000000E+00 0. -1.
        -12    1    4    4    0    0  0.68684682581E+01  0.27631753064E+02  0.10958800000E+03  0.11322640760E+03  0.00000000000E+00 0.  1.
</event>
<event>
12    1  0.8417180E-002  0.2102831E+03  0.7818608E-02  0.1141524E+00
         21   -1    0    0  503  502  0.00000000000E+00  0.00000000000E+00  0.51314307977E+03  0.51314307977E+03  0.00000000000E+00 0. -1.
         21   -1    0    0  501  503 -0.00000000000E+00 -0.00000000000E+00 -0.11554041006E+03  0.11554041006E+03  0.00000000000E+00 0. -1.
          6    2    1    2  501    0  0.47016612399E+02  0.11014035636E+03  0.39635024375E+02  0.21398577826E+03  0.17285114463E+03 0.  0.
         24    2    3    3    0    0  0.55341342218E+02  0.28192222926E+02  0.74073529951E+02  0.12458276732E+03  0.78590791322E+02 0.  0.
         -6    2    1    2    0  502 -0.47016612399E+02 -0.11014035636E+03  0.35796764533E+03  0.41469771157E+03  0.17173204981E+03 0.  0.
        -24    2    5    5    0    0 -0.52059559220E+02 -0.54209094967E+02  0.33787103108E+03  0.35486710721E+03  0.78262420442E+02 0.  0.
          5    1    3    3  501    0 -0.83247298192E+01  0.81948133433E+02 -0.34438505576E+02  0.89403010945E+02  0.47000000000E+01 0. -1.
        -11    1    4    4    0    0  0.46002758092E+02 -0.19121440119E+02  0.24852604558E+02  0.55673469243E+02  0.00000000000E+00 0.  1.
         12    1    4    4    0    0  0.93385841261E+01  0.47313663046E+02  0.49220925393E+02  0.68909298072E+02  0.00000000000E+00 0. -1.
         -5    1    5    5    0  502  0.50429468214E+01 -0.55931261391E+02  0.20096614256E+02  0.59830604360E+02  0.47000000000E+01 0.  1.
         11    1    6    6    0    0  0.16779846027E+02 -0.28603418284E+02  0.13799146004E+03  0.14192026570E+03  0.00000000000E+00 0. -1.
        -12    1    6    6    0    0 -0.68839405247E+02 -0.25605676683E+02  0.19987957103E+03  0.21294684151E+03  0.00000000000E+00 0.  1.
</event>
<event>
12    1  0.8417180E-002  0.1763353E+03  0.7818608E-02  0.1172099E+00
         21   -1    0    0  501  502  0.00000000000E+00  0.00000000000E+00  0.36995609872E+03  0.36995609872E+03  0.00000000000E+00 0. -1.
         21   -1    0    0  502  503 -0.00000000000E+00 -0.00000000000E+00 -0.95769477249E+02  0.95769477249E+02  0.00000000000E+00 0. -1.
         -6    2    1    2    0  503 -0.27495470232E+02  0.18999956473E+01  0.22399779001E+03  0.28507746215E+03  0.17416813323E+03 0.  0.
        -24    2    3    3    0    0 -0.51659584726E+02  0.62917444308E+02  0.11726715083E+03  0.15969583347E+03  0.71581122327E+02 0.  0.
          6    2    1    2  501    0  0.27495470232E+02 -0.18999956473E+01  0.50188831458E+02  0.18064811381E+03  0.17133362587E+03 0.  0.
         24    2    5    5    0    0  0.64300246324E+02 -0.42223712545E+02  0.40026711747E+02  0.12491704201E+03  0.89915327679E+02 0.  0.
          5    1    5    5  501    0 -0.36804776092E+02  0.40323716898E+02  0.10162119712E+02  0.55731071807E+02  0.47000000000E+01 0. -1.
        -13    1    6    6    0    0  0.25461698037E+02  0.26454605245E+02  0.25468884892E+02  0.44685661048E+02  0.00000000000E+00 0.  1.
         14    1    6    6    0    0  0.38838548287E+02 -0.68678317791E+02  0.14557826854E+02  0.80231380958E+02  0.00000000000E+00 0. -1.
         -5    1    3    3    0  503  0.24164114495E+02 -0.61017448660E+02  0.10673063918E+03  0.12538162868E+03  0.47000000000E+01 0.  1.
         11    1    4    4    0    0 -0.49905964143E+02  0.24682205367E+02  0.10610628668E+03  0.11982637686E+03  0.00000000000E+00 0. -1.
        -12    1    4    4    0    0 -0.17536205831E+01  0.38235238941E+02  0.11160864147E+02  0.39869456612E+02  0.00000000000E+00 0.  1.
</event>
<event>
12    1  0.8417180E-002  0.1952826E+03  0.7818608E-02  0.1155421E+00
         21   -1    0    0  501  502  0.00000000000E+00  0.00000000000E+00  0.40319717848E+03  0.40319717848E+03  0.00000000000E+00 0.  1.
         21   -1    0    0  502  503 -0.00000000000E+00 -0.00000000000E+00 -0.11253305229E+03  0.11253305229E+03  0.00000000000E+00 0.  1.
         -6    2    1    2    0  503  0.20265576724E+01  0.73973404304E+02  0.30389763299E+02  0.19034116841E+03  0.17271378404E+03 0.  0.
        -24    2    3    3    0    0 -0.22348672784E+02  0.19850111324E+02 -0.45471297395E+02  0.93902207235E+02  0.76527743610E+02 0.  0.
          6    2    1    2  501    0 -0.20265576724E+01 -0.73973404304E+02  0.26027436289E+03  0.32538906236E+03  0.18071836221E+03 0.  0.
         24    2    5    5    0    0 -0.40491212265E+02  0.14083376131E+02  0.17431611997E+03  0.19637574615E+03  0.79620626962E+02 0.  0.
          5    1    5    5  501    0  0.38464654592E+02 -0.88056780436E+02  0.85958242922E+02  0.12901331621E+03  0.47000000000E+01 0. -1.
        -13    1    6    6    0    0  0.13249793532E+02 -0.21901054927E+02  0.54747911905E+02  0.60436306087E+02  0.00000000000E+00 0.  1.
         14    1    6    6    0    0 -0.53741005796E+02  0.35984431059E+02  0.11956820807E+03  0.13593944006E+03  0.00000000000E+00 0. -1.
         -5    1    3    3    0  503  0.24375230456E+02  0.54123292980E+02  0.75861060695E+02  0.96438961175E+02  0.47000000000E+01 0.  1.
         13    1    4    4    0    0  0.89139881871E+00 -0.15186794250E+02 -0.49386462085E+02  0.51676454490E+02  0.00000000000E+00 0. -1.
        -14    1    4    4    0    0 -0.23240071603E+02  0.35036905574E+02  0.39151646895E+01  0.42225752744E+02  0.00000000000E+00 0.  1.
</event>
<event>
12    1  0.8417180E-002  0.2475980E+03  0.7818608E-02  0.1115219E+00
         21   -1    0    0  501  502  0.00000000000E+00  0.00000000000E+00  0.23472942068E+03  0.23472942068E+03  0.00000000000E+00 0.  1.
         21   -1    0    0  502  503 -0.00000000000E+00 -0.00000000000E+00 -0.29719591814E+03  0.29719591814E+03  0.00000000000E+00 0.  1.
         -6    2    1    2    0  503 -0.14249104386E+03  0.10197960907E+03 -0.12689650843E+03  0.27608165043E+03  0.17150747973E+03 0.  0.
        -24    2    3    3    0    0 -0.42911010971E+02  0.78819777406E+02 -0.90582384162E+01  0.12000311689E+03  0.79150389805E+02 0.  0.
          6    2    1    2  501    0  0.14249104386E+03 -0.10197960907E+03  0.64430010966E+02  0.25584368839E+03  0.17493206775E+03 0.  0.
         24    2    5    5    0    0  0.63285510708E+02 -0.12598397523E+03  0.59916367127E+02  0.17282447942E+03  0.80008198063E+02 0.  0.
          5    1    5    5  501    0  0.79205533151E+02  0.24004366160E+02  0.45136438388E+01  0.83019208965E+02  0.47000000000E+01 0. -1.
        -13    1    6    6    0    0  0.17029132586E+02 -0.43902442908E+02  0.62882642816E+02  0.78559802810E+02  0.00000000000E+00 0.  1.
         14    1    6    6    0    0  0.46256378122E+02 -0.82081532323E+02 -0.29662756892E+01  0.94264676613E+02  0.00000000000E+00 0. -1.
         -5    1    3    3    0  503 -0.99580032888E+02  0.23159831665E+02 -0.11783827001E+03  0.15607853354E+03  0.47000000000E+01 0.  1.
         11    1    4    4    0    0 -0.61036342941E+02  0.54316847960E+02 -0.25214579252E+02  0.85507485864E+02  0.00000000000E+00 0. -1.
        -12    1    4    4    0    0  0.18125331969E+02  0.24502929446E+02  0.16156340835E+02  0.34495631022E+02  0.00000000000E+00 0.  1.
</event>
<event>
12    1  0.8417180E-002  0.1848957E+03  0.7818608E-02  0.1163255E+00
         21   -1    0    0  501  502  0.00000000000E+00  0.00000000000E+00  0.11838661609E+03  0.11838661609E+03  0.00000000000E+00 0. -1.
         21   -1    0    0  502  503 -0.00000000000E+00 -0.00000000000E+00 -0.55399645592E+03  0.55399645592E+03  0.00000000000E+00 0.  1.
         -6    2    1    2    0  503  0.16080643563E+02 -0.64578106364E+02 -0.45059551563E+03  0.48688112357E+03  0.17201160095E+03 0.  0.
        -24    2    3    3    0    0  0.26052946580E+02 -0.56786644757E+02 -0.12210127431E+03  0.15810960673E+03  0.78653973229E+02 0.  0.
          6    2    1    2  501    0 -0.16080643563E+02  0.64578106364E+02  0.14985675809E+02  0.18550194844E+03  0.17250357526E+03 0.  0.
         24    2    5    5    0    0 -0.36081705422E+02  0.84429567490E+02  0.57487928224E+02  0.13429009000E+03  0.79364507487E+02 0.  0.
          5    1    5    5  501    0  0.20001061859E+02 -0.19851461125E+02 -0.42502252415E+02  0.51211858438E+02  0.47000000000E+01 0. -1.
        -13    1    6    6    0    0  0.10843002720E+02 -0.10516361093E+02  0.39230221921E+01  0.15606237912E+02  0.00000000000E+00 0.  1.
         14    1    6    6    0    0 -0.46924708143E+02  0.94945928583E+02  0.53564906032E+02  0.11868385209E+03  0.00000000000E+00 0. -1.
         -5    1    3    3    0  503 -0.99723030174E+01 -0.77914616071E+01 -0.32849424133E+03  0.32877151684E+03  0.47000000000E+01 0.  1.
         13    1    4    4    0    0  0.29168469948E+02  0.11168430426E+02 -0.50236273909E+02  0.59154177313E+02  0.00000000000E+00 0. -1.
        -14    1    4    4    0    0 -0.31155233679E+01 -0.67955075183E+02 -0.71865000398E+02  0.98955429417E+02  0.00000000000E+00 0.  1.
</event>
<event>
12    1  0.8417180E-002  0.2484314E+03  0.7818608E-02  0.1114714E+00
         21   -1    0    0  503  502  0.00000000000E+00  0.00000000000E+00  0.14443024496E+03  0.14443024496E+03  0.00000000000E+00 0.  1.
         21   -1    0    0  501  503 -0.00000000000E+00 -0.00000000000E+00 -0.77919219089E+03  0.77919219089E+03  0.00000000000E+00 0.  1.
          6    2    1    2  501    0 -0.17176475303E+03 -0.76496210874E+01 -0.63056414857E+03  0.67773839148E+03  0.17932243234E+03 0.  0.
         24    2    3    3    0    0 -0.16592912183E+03 -0.23485132788E+02 -0.63353722889E+03  0.65996911381E+03  0.78139528173E+02 0.  0.
         -6    2    1    2    0  502  0.17176475303E+03  0.76496210874E+01 -0.41977973549E+01  0.24588404437E+03  0.17572619237E+03 0.  0.
        -24    2    5    5    0    0  0.75287307733E+02 -0.47361800510E+02  0.41330895604E+02  0.12576283126E+03  0.78719298401E+02 0.  0.
          5    1    3    3  501    0 -0.58356312007E+01  0.15835511701E+02  0.29730803196E+01  0.17769277670E+02  0.47000000000E+01 0. -1.
        -13    1    4    4    0    0 -0.10614387360E+03  0.23302694265E+02 -0.35379945958E+03  0.37011294906E+03  0.00000000000E+00 0.  1.
         14    1    4    4    0    0 -0.59785248231E+02 -0.46787827054E+02 -0.27973776931E+03  0.28985616475E+03  0.00000000000E+00 0. -1.
         -5    1    5    5    0  502  0.96477445299E+02  0.55011421597E+02 -0.45528692959E+02  0.12012121311E+03  0.47000000000E+01 0.  1.
         13    1    6    6    0    0  0.18504795811E+02  0.12760907161E+02  0.36572256243E+02  0.42927824849E+02  0.00000000000E+00 0. -1.
        -14    1    6    6    0    0  0.56782511922E+02 -0.60122707670E+02  0.47586393602E+01  0.82835006406E+02  0.00000000000E+00 0.  1.
</event>
<event>
12    1  0.8417180E-002  0.1851306E+03  0.7818608E-02  0.1165289E+00
         21   -1    0    0  503  502  0.00000000000E+00  0.00000000000E+00  0.78283289830E+02  0.78283289830E+02  0.00000000000E+00 0.  1.
         21   -1    0    0  501  503 -0.00000000000E+00 -0.00000000000E+00 -0.53658093093E+03  0.53658093093E+03  0.00000000000E+00 0.  1.
          6    2    1    2  501    0  0.10028195224E+02  0.33014947673E+02 -0.37069169021E+03  0.41005180860E+03  0.17187089652E+03 0.  0.
         24    2    3    3    0    0  0.41527649997E+01 -0.10434125937E+02 -0.34872974908E+03  0.36078965744E+03  0.91818421811E+02 0.  0.
         -6    2    1    2    0  502 -0.10028195224E+02 -0.33014947673E+02 -0.87605950891E+02  0.20481241217E+03  0.18188669571E+03 0.  0.
        -24    2    5    5    0    0 -0.91360242134E+01  0.19688571094E+02 -0.12346482487E+03  0.14088741156E+03  0.64300800825E+02 0.  0.
          5    1    3    3  501    0  0.58754302247E+01  0.43449073610E+02 -0.21961941132E+02  0.49262151153E+02  0.47000000000E+01 0. -1.
        -11    1    4    4    0    0 -0.39388626215E+02 -0.19727475434E+02 -0.12150901357E+03  0.12924812394E+03  0.00000000000E+00 0.  1.
         12    1    4    4    0    0  0.43541391214E+02  0.92933494970E+01 -0.22722073551E+03  0.23154153351E+03  0.00000000000E+00 0. -1.
         -5    1    5    5    0  502 -0.89217101101E+00 -0.52703518767E+02  0.35858873977E+02  0.63925000606E+02  0.47000000000E+01 0.  1.
         13    1    6    6    0    0  0.21568491567E+02  0.26107468024E+02 -0.44498110342E+02  0.55918525902E+02  0.00000000000E+00 0. -1.
        -14    1    6    6    0    0 -0.30704515781E+02 -0.64188969298E+01 -0.78966714527E+02  0.84968885660E+02  0.00000000000E+00 0.  1.
</event>
<event>
12    1  0.8417180E-002  0.2861549E+03  0.7818608E-02  0.1092420E+00
         21   -1    0    0  501  502  0.00000000000E+00  0.00000000000E+00  0.27127687443E+03  0.27127687443E+03  0.00000000000E+00 0.  1.
         21   -1    0    0  502  503 -0.00000000000E+00 -0.00000000000E+00 -0.65059184894E+03  0.65059184894E+03  0.00000000000E+00 0. -1.
         -6    2    1    2    0  503  0.22691636481E+03  0.28893627729E+02 -0.52725316967E+03  0.59973469013E+03  0.17134735273E+03 0.  0.
        -24    2    3    3    0    0  0.43390749658E+02  0.38844355789E+02 -0.21623096494E+03  0.23843485587E+03  0.81876181903E+02 0.  0.
          6    2    1    2  501    0 -0.22691636481E+03 -0.28893627729E+02  0.14793819515E+03  0.32213403324E+03  0.17192657573E+03 0.  0.
         24    2    5    5    0    0 -0.20985053517E+03 -0.74770973026E+02  0.12018936285E+03  0.26567111579E+03  0.80670399187E+02 0.  0.
          5    1    5    5  501    0 -0.17065829645E+02  0.45877345297E+02  0.27748832305E+02  0.56462917453E+02  0.47000000000E+01 0. -1.
        -11    1    6    6    0    0 -0.19550312090E+03 -0.40868736806E+02  0.10686185754E+03  0.22651971333E+03  0.00000000000E+00 0.  1.
         12    1    6    6    0    0 -0.14347414269E+02 -0.33902236220E+02  0.13327505309E+02  0.39151402461E+02  0.00000000000E+00 0. -1.
         -5    1    3    3    0  503  0.18352561515E+03 -0.99507280602E+01 -0.31102220472E+03  0.36129983426E+03  0.47000000000E+01 0.  1.
         11    1    4    4    0    0  0.59841190124E+02  0.11562796655E+02 -0.18075667493E+03  0.19075545034E+03  0.00000000000E+00 0. -1.
        -12    1    4    4    0    0 -0.16450440465E+02  0.27281559134E+02 -0.35474290008E+02  0.47679405531E+02  0.00000000000E+00 0.  1.
</event>
<event>
12    1  0.8417180E-002  0.1852592E+03  0.7818608E-02  0.1164530E+00
         21   -1    0    0  503  502  0.00000000000E+00  0.00000000000E+00  0.14171502214E+03  0.14171502214E+03  0.00000000000E+00 0.  1.
         21   -1    0    0  501  503 -0.00000000000E+00 -0.00000000000E+00 -0.26451870318E+03  0.26451870318E+03  0.00000000000E+00 0.  1.
          6    2    1    2  501    0 -0.20390855518E+02 -0.37590784905E+02 -0.13062802585E+03  0.22080933483E+03  0.17281269372E+03 0.  0.
         24    2    3    3    0    0 -0.29457801366E+02 -0.12174718362E+02 -0.15933761311E+03  0.18112915910E+03  0.80020694169E+02 0.  0.
         -6    2    1    2    0  502  0.20390855518E+02  0.37590784905E+02  0.78243448097E+01  0.18542439049E+03  0.18025573533E+03 0.  0.
        -24    2    5    5    0    0 -0.15202235564E+02  0.89308688543E+02 -0.63637955932E+01  0.12088755591E+03  0.79788178724E+02 0.  0.
          5    1    3    3  501    0  0.90669458473E+01 -0.25416066543E+02  0.28709587257E+02  0.39680175730E+02  0.47000000000E+01 0. -1.
        -11    1    4    4    0    0  0.24831259325E+02  0.51513258610E+01 -0.26994467584E+02  0.37038208352E+02  0.00000000000E+00 0.  1.
         12    1    4    4    0    0 -0.54289060690E+02 -0.17326044223E+02 -0.13234314553E+03  0.14409095075E+03  0.00000000000E+00 0. -1.
         -5    1    5    5    0  502  0.35593091082E+02 -0.51717903638E+02  0.14188140403E+02  0.64536834579E+02  0.47000000000E+01 0.  1.
         11    1    6    6    0    0 -0.36572758139E+02  0.52316310956E+02  0.24299209266E+02  0.68300912153E+02  0.00000000000E+00 0. -1.
        -12    1    6    6    0    0  0.21370522575E+02  0.36992377587E+02 -0.30663004859E+02  0.52586643757E+02  0.00000000000E+00 0.  1.
</event>
<event>
12    1  0.8417180E-002  0.2716622E+03  0.7818608E-02  0.1100393E+00
         21   -1    0    0  501  502  0.00000000000E+00  0.00000000000E+00  0.38490824532E+03  0.38490824532E+03  0.00000000000E+00 0.  1.
         21   -1    0    0  502  503 -0.00000000000E+00 -0.00000000000E+00 -0.20588080910E+03  0.20588080910E+03  0.00000000000E+00 0. -1.
         -6    2    1    2    0  503 -0.15717441442E+03 -0.13869401254E+03  0.16770136409E+03  0.31889087190E+03  0.17212732207E+03 0.  0.
        -24    2    3    3    0    0 -0.36689568900E+02 -0.23192745518E+02  0.10750190834E+03  0.14139944914E+03  0.80951318753E+02 0.  0.
          6    2    1    2  501    0  0.15717441442E+03  0.13869401254E+03  0.11326072134E+02  0.27189818251E+03  0.17280195625E+03 0.  0.
         24    2    5    5    0    0  0.47366173569E+02  0.97614498085E+02  0.57660638114E+02  0.14574605899E+03  0.78390177239E+02 0.  0.
          5    1    5    5  501    0  0.10980824085E+03  0.41079514452E+02 -0.46334565980E+02  0.12615212353E+03  0.47000000000E+01 0. -1.
        -11    1    6    6    0    0  0.58556909603E+02  0.34008114484E+02  0.40572012328E+02  0.78940177966E+02  0.00000000000E+00 0.  1.
         12    1    6    6    0    0 -0.11190736033E+02  0.63606383601E+02  0.17088625786E+02  0.66805881021E+02  0.00000000000E+00 0. -1.
         -5    1    3    3    0  503 -0.12048484552E+03 -0.11550126702E+03  0.60199455742E+02  0.17749142276E+03  0.47000000000E+01 0.  1.
         11    1    4    4    0    0 -0.48604396951E+01 -0.39493391990E+02  0.15520439155E+02  0.42711074869E+02  0.00000000000E+00 0. -1.
        -12    1    4    4    0    0 -0.31829129204E+02  0.16300646472E+02  0.91981469188E+02  0.98688374266E+02  0.00000000000E+00 0.  1.
</event>
<event>
12    1  0.8417180E-002  0.2056128E+03  0.7818608E-02  0.1145597E+00
         21   -1    0    0  501  502  0.00000000000E+00  0.00000000000E+00  0.12723526835E+04  0.12723526835E+04  0.00000000000E+00 0. -1.
         21   -1    0    0  502  503 -0.00000000000E+00 -0.00000000000E+00 -0.14116528535E+03  0.14116528535E+03  0.00000000000E+00 0. -1.
         -6    2    1    2    0  503  0.98255857750E+02 -0.54228743172E+02 -0.54358103858E+02  0.21027453648E+03  0.16930920550E+03 0.  0.
        -24    2    3    3    0    0 -0.11886235824E+02 -0.26111217485E+02 -0.46096781470E+02  0.96203438142E+02  0.79417315290E+02 0.  0.
          6    2    1    2  501    0 -0.98255857750E+02  0.54228743172E+02  0.11855455020E+04  0.12032434324E+04  0.17228363257E+03 0.  0.
         24    2    5    5    0    0 -0.62705123903E+02 -0.14593942719E+01  0.36373041130E+03  0.37876350136E+03  0.85017148050E+02 0.  0.
          5    1    5    5  501    0 -0.35550733847E+02  0.55688137444E+02  0.82181509074E+03  0.82447993104E+03  0.47000000000E+01 0. -1.
        -11    1    6    6    0    0 -0.15808493877E+02  0.39051818716E+02  0.11647886592E+03  0.12386395452E+03  0.00000000000E+00 0.  1.
         12    1    6    6    0    0 -0.46896630026E+02 -0.40511212988E+02  0.24725154538E+03  0.25489954684E+03  0.00000000000E+00 0. -1.
         -5    1    3    3    0  503  0.11014209357E+03 -0.28117525687E+02 -0.82613223883E+01  0.11407109833E+03  0.47000000000E+01 0.  1.
         13    1    4    4    0    0 -0.12682917732E+02 -0.54354363817E+02 -0.34798864384E+02  0.65773963166E+02  0.00000000000E+00 0. -1.
        -14    1    4    4    0    0  0.79668190789E+00  0.28243146332E+02 -0.11297917085E+02  0.30429474975E+02  0.00000000000E+00 0.  1.
</event>
<event>
12    1  0.8417180E-002  0.1924720E+03  0.7818608E-02  0.1156284E+00
         21   -1    0    0  503  502  0.00000000000E+00  0.00000000000E+00  0.15888417353E+04  0.15888417353E+04  0.00000000000E+00 0. -1.
         21   -1    0    0  501  503 -0.00000000000E+00 -0.00000000000E+00 -0.23574374926E+02  0.23574374926E+02  0.00000000000E+00 0. -1.
          6    2    1    2  501    0 -0.63362363084E+02 -0.58219761497E+02  0.69558880707E+03  0.72172659398E+03  0.17216607752E+03 0.  0.
         24    2    3    3    0    0 -0.73919389280E+02 -0.14111204160E+02  0.64335195406E+03  0.65238833293E+03  0.77753443399E+02 0.  0.
         -6    2    1    2    0  502  0.63362363084E+02  0.58219761497E+02  0.86967855331E+03  0.89068951626E+03  0.17199621680E+03 0.  0.
        -24    2    5    5    0    0  0.10083967465E+03  0.76743173100E+02  0.70698667852E+03  0.72264665927E+03  0.79560517537E+02 0.  0.
          5    1    3    3  501    0  0.10557026196E+02 -0.44108557337E+02  0.52236853012E+02  0.69338261047E+02  0.47000000000E+01 0. -1.
        -13    1    4    4    0    0 -0.75551774457E+01  0.76100791287E+01  0.37331631031E+03  0.37347029541E+03  0.00000000000E+00 0.  1.
         14    1    4    4    0    0 -0.66364211834E+02 -0.21721283289E+02  0.27003564375E+03  0.27891803752E+03  0.00000000000E+00 0. -1.
         -5    1    5    5    0  502 -0.37477311570E+02 -0.18523411603E+02  0.16269187479E+03  0.16804285699E+03  0.47000000000E+01 0.  1.
         13    1    6    6    0    0  0.79720537438E+02  0.36482926076E+02  0.28401732345E+03  0.29724099314E+03  0.00000000000E+00 0. -1.
        -14    1    6    6    0    0  0.21119137216E+02  0.40260247024E+02  0.42296935507E+03  0.42540566613E+03  0.00000000000E+00 0.  1.
</event>
<event>
12    1  0.8417180E-002  0.1864392E+03  0.7818608E-02  0.1162457E+00
         21   -1    0    0  503  502  0.00000000000E+00  0.00000000000E+00  0.14913529465E+04  0.14913529465E+04  0.00000000000E+00 0. -1.
         21   -1    0    0  501  503 -0.00000000000E+00 -0.00000000000E+00 -0.30918988388E+02  0.30918988388E+02  0.00000000000E+00 0. -1.
          6    2    1    2  501    0 -0.14604988042E+02 -0.60373216400E+02  0.34752118191E+03  0.39437359226E+03  0.17578773412E+03 0.  0.
         24    2    3    3    0    0  0.11249292879E+02  0.33896789145E+02  0.13580264961E+03  0.16113100459E+03  0.79027223752E+02 0.  0.
         -6    2    1    2    0  502  0.14604988042E+02  0.60373216400E+02  0.11129127762E+04  0.11278983426E+04  0.17239951542E+03 0.  0.
        -24    2    5    5    0    0  0.71342785978E+02  0.63312312498E+02  0.84041211609E+03  0.84949842207E+03  0.79099950720E+02 0.  0.
          5    1    3    3  501    0 -0.25854280921E+02 -0.94270005545E+02  0.21171853230E+03  0.23324258768E+03  0.47000000000E+01 0. -1.
        -11    1    4    4    0    0  0.34397378114E+02  0.37619259539E+02  0.47172951805E+02  0.69452686711E+02  0.00000000000E+00 0.  1.
         12    1    4    4    0    0 -0.23148085235E+02 -0.37224703933E+01  0.88629697803E+02  0.91678317876E+02  0.00000000000E+00 0. -1.
         -5    1    5    5    0  502 -0.56737797936E+02 -0.29390960980E+01  0.27250066008E+03  0.27839992052E+03  0.47000000000E+01 0.  1.
         13    1    6    6    0    0  0.62931606658E+02  0.27424768073E+02  0.29668709403E+03  0.30452542880E+03  0.00000000000E+00 0. -1.
        -14    1    6    6    0    0  0.84111793205E+01  0.35887544426E+02  0.54372502206E+03  0.54497299327E+03  0.00000000000E+00 0.  1.
</event>
<event>
12    1  0.8417180E-002  0.2049319E+03  0.7818608E-02  0.1146663E+00
         21   -1    0    0  501  502  0.00000000000E+00  0.00000000000E+00  0.72588572301E+03  0.72588572301E+03  0.00000000000E+00 0. -1.
         21   -1    0    0  502  503 -0.00000000000E+00 -0.00000000000E+00 -0.56487807359E+02  0.56487807359E+02  0.00000000000E+00 0. -1.
         -6    2    1    2    0  503 -0.41515723370E+02  0.94317873048E+02  0.32466532116E+03  0.38132784527E+03  0.17141743888E+03 0.  0.
        -24    2    3    3    0    0  0.33496805832E+02  0.43154560114E+01  0.79916492337E+02  0.10993994241E+03  0.67523966326E+02 0.  0.
          6    2    1    2  501    0  0.41515723370E+02 -0.94317873048E+02  0.34473259450E+03  0.40104568510E+03  0.17713741380E+03 0.  0.
         24    2    5    5    0    0 -0.43993448837E+02 -0.42988821280E+02  0.11289497774E+03  0.14862290358E+03  0.74565603157E+02 0.  0.
          5    1    5    5  501    0  0.85509172207E+02 -0.51329051768E+02  0.23183761676E+03  0.25242278152E+03  0.47000000000E+01 0. -1.
        -13    1    6    6    0    0 -0.11293585963E+02 -0.18796031877E+02 -0.61880338279E+01  0.22784373173E+02  0.00000000000E+00 0.  1.
         14    1    6    6    0    0 -0.32699862874E+02 -0.24192789403E+02  0.11908301157E+03  0.12583853041E+03  0.00000000000E+00 0. -1.
         -5    1    3    3    0  503 -0.75012529202E+02  0.90002417036E+02  0.24474882882E+03  0.27138790286E+03  0.47000000000E+01 0.  1.
         13    1    4    4    0    0  0.17841477052E+02  0.35281907649E+02  0.52471629627E+02  0.65699339619E+02  0.00000000000E+00 0. -1.
        -14    1    4    4    0    0  0.15655328779E+02 -0.30966451637E+02  0.27444862710E+02  0.44240602792E+02  0.00000000000E+00 0.  1.
</event>
<event>
12    1  0.8417180E-002  0.2303891E+03  0.7818608E-02  0.1126495E+00
         21   -1    0    0  503  502  0.00000000000E+00  0.00000000000E+00  0.62259832053E+03  0.62259832053E+03  0.00000000000E+00 0. -1.
         21   -1    0    0  501  503 -0.00000000000E+00 -0.00000000000E+00 -0.20813288973E+03  0.20813288973E+03  0.00000000000E+00 0.  1.
          6    2    1    2  501    0  0.90573570519E+02  0.12336857507E+03 -0.11213662004E+03  0.25622992656E+03  0.17220852686E+03 0.  0.
         24    2    3    3    0    0  0.11971370544E+03  0.13364527106E+03 -0.85934843084E+02  0.21544535768E+03  0.82701119346E+02 0.  0.
         -6    2    1    2    0  502 -0.90573570519E+02 -0.12336857507E+03  0.52660205083E+03  0.57450128370E+03  0.17122683214E+03 0.  0.
        -24    2    5    5    0    0 -0.68311259864E+02 -0.51182798139E+01  0.30169337207E+03  0.31938416043E+03  0.79339310382E+02 0.  0.
          5    1    3    3  501    0 -0.29140134921E+02 -0.10276695995E+02 -0.26201776953E+02  0.40784568887E+02  0.47000000000E+01 0. -1.
        -13    1    4    4    0    0  0.92479095020E+02  0.14155780457E+03 -0.76140324001E+02  0.18544094475E+03  0.00000000000E+00 0.  1.
         14    1    4    4    0    0  0.27234610420E+02 -0.79125335055E+01 -0.97945190827E+01  0.30004412929E+02  0.00000000000E+00 0. -1.
         -5    1    5    5    0  502 -0.22262310655E+02 -0.11825029525E+03  0.22490867877E+03  0.25511712327E+03  0.47000000000E+01 0.  1.
         13    1    6    6    0    0 -0.30995526576E+02 -0.29025455185E+02  0.23819135890E+03  0.24194694288E+03  0.00000000000E+00 0. -1.
        -14    1    6    6    0    0 -0.37315733288E+02  0.23907175371E+02  0.63502013170E+02  0.77437217549E+02  0.00000000000E+00 0.  1.
</event>
<event>
12    1  0.8417180E-002  0.1803359E+03  0.7818608E-02  0.1168751E+00
         21   -1    0    0  501  502  0.00000000000E+00  0.00000000000E+00  0.13770838062E+03  0.13770838062E+03  0.00000000000E+00 0. -1.
         21   -1    0    0  502  503 -0.00000000000E+00 -0.00000000000E+00 -0.24094619926E+03  0.24094619926E+03  0.00000000000E+00 0. -1.
         -6    2    1    2    0  503  0.13598260943E+02 -0.30853449252E+02 -0.93759259806E+02  0.20325311987E+03  0.17715581815E+03 0.  0.
        -24    2    3    3    0    0 -0.23797436184E+00 -0.87160501564E+02 -0.43020882402E+02  0.12606245664E+03  0.80274136482E+02 0.  0.
          6    2    1    2  501    0 -0.13598260943E+02  0.30853449252E+02 -0.94785588306E+01  0.17540146000E+03  0.17186908117E+03 0.  0.
         24    2    5    5    0    0 -0.14947516334E+01  0.19960435004E+02 -0.72475004582E+02  0.11016500644E+03  0.80517383873E+02 0.  0.
          5    1    5    5  501    0 -0.12103509310E+02  0.10893014248E+02  0.62996445751E+02  0.65236453569E+02  0.47000000000E+01 0. -1.
        -13    1    6    6    0    0  0.29895925695E+02 -0.16764449659E+02 -0.35325337022E+02  0.49220855145E+02  0.00000000000E+00 0.  1.
         14    1    6    6    0    0 -0.31390677328E+02  0.36724884663E+02 -0.37149667560E+02  0.60944151290E+02  0.00000000000E+00 0. -1.
         -5    1    3    3    0  503  0.13836235305E+02  0.56307052312E+02 -0.50738377404E+02  0.77190663225E+02  0.47000000000E+01 0.  1.
         11    1    4    4    0    0 -0.34246540860E+02 -0.74818846295E+02 -0.28536558671E+02  0.87092023186E+02  0.00000000000E+00 0. -1.
        -12    1    4    4    0    0  0.34008566498E+02 -0.12341655269E+02 -0.14484323731E+02  0.38970433459E+02  0.00000000000E+00 0.  1.
</event>
<event>
12    1  0.8417180E-002  0.1873489E+03  0.7818608E-02  0.1161120E+00
         21   -1    0    0  503  502  0.00000000000E+00  0.00000000000E+00  0.38769058498E+03  0.38769058498E+03  0.00000000000E+00 0. -1.
         21   -1    0    0  501  503 -0.00000000000E+00 -0.00000000000E+00 -0.10399304854E+03  0.10399304854E+03  0.00000000000E+00 0. -1.
          6    2    1    2  501    0  0.72834787680E+02  0.17048414301E+02  0.52083415184E+02  0.19445385789E+03  0.17176747650E+03 0.  0.
         24    2    3    3    0    0 -0.10156531606E+02 -0.10200941647E+01  0.70367216695E+02  0.10744571187E+03  0.80553336914E+02 0.  0.
         -6    2    1    2    0  502 -0.72834787680E+02 -0.17048414301E+02  0.23161412126E+03  0.29722977563E+03  0.17060153467E+03 0.  0.
        -24    2    5    5    0    0  0.34258279105E+01 -0.34165274954E+02  0.18905820384E+03  0.20811319740E+03  0.79931822100E+02 0.  0.
          5    1    3    3  501    0  0.82991319286E+02  0.18068508466E+02 -0.18283801511E+02  0.87008146013E+02  0.47000000000E+01 0. -1.
        -11    1    4    4    0    0  0.18710541867E+02  0.16265255273E+02  0.69498315288E+02  0.73787930814E+02  0.00000000000E+00 0.  1.
         12    1    4    4    0    0 -0.28867073473E+02 -0.17285349438E+02  0.86890140712E+00  0.33657781058E+02  0.00000000000E+00 0. -1.
         -5    1    5    5    0  502 -0.76260615590E+02  0.17116860652E+02  0.42555917420E+02  0.89116578235E+02  0.47000000000E+01 0.  1.
         11    1    6    6    0    0 -0.26078880884E+02 -0.21788231369E+02  0.16396986280E+03  0.16745432500E+03  0.00000000000E+00 0. -1.
        -12    1    6    6    0    0  0.29504708795E+02 -0.12377043585E+02  0.25088341041E+02  0.40658872404E+02  0.00000000000E+00 0.  1.
</event>
<event>
12    1  0.8417180E-002  0.3776310E+03  0.7818608E-02  0.1052062E+00
         21   -1    0    0  503  502  0.00000000000E+00  0.00000000000E+00  0.36345046695E+03  0.36345046695E+03  0.00000000000E+00 0.  1.
         21   -1    0    0  501  503 -0.00000000000E+00 -0.00000000000E+00 -0.49042991931E+03  0.49042991931E+03  0.00000000000E+00 0. -1.
          6    2    1    2  501    0  0.30307315798E+03  0.14562131039E+03 -0.25689754604E+03  0.45452605234E+03  0.16594781699E+03 0.  0.
         24    2    3    3    0    0  0.13862319473E+03  0.80223320678E+01 -0.98533691880E+02  0.18792059562E+03  0.79526812417E+02 0.  0.
         -6    2    1    2    0  502 -0.30307315798E+03 -0.14562131039E+03  0.12991809368E+03  0.39935433393E+03  0.17189027848E+03 0.  0.
        -24    2    5    5    0    0 -0.93859410532E+02 -0.99221030177E+02  0.87460049457E+02  0.18084082486E+03  0.79998386926E+02 0.  0.
          5    1    3    3  501    0  0.16444996325E+03  0.13759897832E+03 -0.15836385416E+03  0.26660545672E+03  0.47000000000E+01 0. -1.
        -11    1    4    4    0    0  0.98913838387E+02 -0.52006737788E+01 -0.23184125698E+02  0.10172756812E+03  0.00000000000E+00 0.  1.
         12    1    4    4    0    0  0.39709356343E+02  0.13223005847E+02 -0.75349566182E+02  0.86193027494E+02  0.00000000000E+00 0. -1.
         -5    1    5    5    0  502 -0.20921374745E+03 -0.46400280210E+02  0.42458044219E+02  0.21851350907E+03  0.47000000000E+01 0.  1.
         11    1    6    6    0    0 -0.16954008097E+02 -0.57591124757E+02  0.43410944563E+01  0.60191537133E+02  0.00000000000E+00 0. -1.
        -12    1    6    6    0    0 -0.76905402435E+02 -0.41629905420E+02  0.83118955000E+02  0.12064928773E+03  0.00000000000E+00 0.  1.
</event>
<event>
12    1  0.8417180E-002  0.1999943E+03  0.7818608E-02  0.1149805E+00
         21   -1    0    0  501  502  0.00000000000E+00  0.00000000000E+00  0.97358111177E+03  0.97358111177E+03  0.00000000000E+00 0.  1.
         21   -1    0    0  502  503 -0.00000000000E+00 -0.00000000000E+00 -0.72616711533E+02  0.72616711533E+02  0.00000000000E+00 0.  1.
         -6    2    1    2    0  503 -0.79532202834E+02  0.61470865607E+02  0.10563275351E+03  0.22617689612E+03  0.17289786326E+03 0.  0.
        -24    2    3    3    0    0 -0.40033446951E+02  0.44877250740E+02  0.13962165273E+03  0.17128759807E+03  0.78921421895E+02 0.  0.
          6    2    1    2  501    0  0.79532202834E+02 -0.61470865607E+02  0.79533164673E+03  0.82002092718E+03  0.17256260926E+03 0.  0.
         24    2    5    5    0    0 -0.11368330998E+02  0.57564480527E+01  0.19973050804E+03  0.21376584459E+03  0.75107821352E+02 0.  0.
          5    1    5    5  501    0  0.90900533832E+02 -0.67227313660E+02  0.59560113870E+03  0.60625508259E+03  0.47000000000E+01 0. -1.
        -11    1    6    6    0    0  0.13231945891E+02 -0.27867337918E+02  0.11881538186E+03  0.12275490980E+03  0.00000000000E+00 0.  1.
         12    1    6    6    0    0 -0.24600276889E+02  0.33623785971E+02  0.80915126176E+02  0.91010934783E+02  0.00000000000E+00 0. -1.
         -5    1    3    3    0  503 -0.39498755883E+02  0.16593614867E+02 -0.33988899220E+02  0.54889298054E+02  0.47000000000E+01 0.  1.
         11    1    4    4    0    0  0.16271522959E+02  0.19250990385E+02  0.90132834777E+01  0.26769429752E+02  0.00000000000E+00 0. -1.
        -12    1    4    4    0    0 -0.56304969910E+02  0.25626260355E+02  0.13060836925E+03  0.14451816832E+03  0.00000000000E+00 0.  1.
</event>
<event>
12    1  0.8417180E-002  0.1918959E+03  0.7818608E-02  0.1157300E+00
         21   -1    0    0  501  502  0.00000000000E+00  0.00000000000E+00  0.46578361286E+02  0.46578361286E+02  0.00000000000E+00 0. -1.
         21   -1    0    0  502  503 -0.00000000000E+00 -0.00000000000E+00 -0.85105856238E+03  0.85105856238E+03  0.00000000000E+00 0. -1.
         -6    2    1    2    0  503 -0.55596479519E+02 -0.66964859281E+02 -0.27089616462E+03  0.33059550159E+03  0.16832525881E+03 0.  0.
        -24    2    3    3    0    0 -0.70159470348E+01  0.11231732906E+02 -0.69054199909E+02  0.10870128381E+03  0.82898198052E+02 0.  0.
          6    2    1    2  501    0  0.55596479519E+02  0.66964859281E+02 -0.53358403648E+03  0.56704142208E+03  0.17102277467E+03 0.  0.
         24    2    5    5    0    0  0.71809254882E+01  0.91328728220E+01 -0.16746331126E+03  0.19320311483E+03  0.95647832729E+02 0.  0.
          5    1    5    5  501    0  0.48415554031E+02  0.57831986459E+02 -0.36612072522E+03  0.37383830725E+03  0.47000000000E+01 0. -1.
        -11    1    6    6    0    0  0.34502398215E+01 -0.37309415078E+02 -0.29815796021E+02  0.47884008820E+02  0.00000000000E+00 0.  1.
         12    1    6    6    0    0  0.37306856667E+01  0.46442287900E+02 -0.13764751523E+03  0.14531910601E+03  0.00000000000E+00 0. -1.
         -5    1    3    3    0  503 -0.48580532484E+02 -0.78196592187E+02 -0.20184196471E+03  0.22189421778E+03  0.47000000000E+01 0.  1.
         13    1    4    4    0    0  0.33878744395E+02 -0.19446133851E+01 -0.94499776447E+01  0.35225742299E+02  0.00000000000E+00 0. -1.
        -14    1    4    4    0    0 -0.40894691430E+02  0.13176346291E+02 -0.59604222264E+02  0.73475541512E+02  0.00000000000E+00 0.  1.
</event>
<event>
12    1  0.8417180E-002  0.1761001E+03  0.7818608E-02  0.1172265E+00
         21   -1    0    0  503  502  0.00000000000E+00  0.00000000000E+00  0.95269955438E+03  0.95269955438E+03  0.00000000000E+00 0.  1.
         21   -1    0    0  501  503 -0.00000000000E+00 -0.00000000000E+00 -0.43642699176E+02  0.43642699176E+02  0.00000000000E+00 0.  1.
          6    2    1    2  501    0 -0.24733925955E+02 -0.10960418213E+02  0.19577257169E+03  0.26164115643E+03  0.17145639987E+03 0.  0.
         24    2    3    3    0    0 -0.17458503619E+02 -0.43006942496E+02  0.20790706355E+03  0.22629646261E+03  0.76356698878E+02 0.  0.
         -6    2    1    2    0  502  0.24733925955E+02  0.10960418213E+02  0.71328428352E+03  0.73470109712E+03  0.17400958346E+03 0.  0.
        -24    2    5    5    0    0  0.64088874118E+02  0.28528506157E+02  0.62983828924E+03  0.64066507413E+03  0.93990463171E+02 0.  0.
          5    1    3    3  501    0 -0.72754223360E+01  0.32046524283E+02 -0.12134491865E+02  0.35344693826E+02  0.47000000000E+01 0. -1.
        -13    1    4    4    0    0 -0.38572919866E+02 -0.52074319789E+02  0.13306937393E+03  0.14801034831E+03  0.00000000000E+00 0.  1.
         14    1    4    4    0    0  0.21114416247E+02  0.90673772924E+01  0.74837689620E+02  0.78286114299E+02  0.00000000000E+00 0. -1.
         -5    1    5    5    0  502 -0.39354948163E+02 -0.17568087944E+02  0.83445994276E+02  0.94036022989E+02  0.47000000000E+01 0.  1.
         11    1    6    6    0    0  0.66502439377E+02 -0.96408021083E+01  0.24889041174E+03  0.25780216556E+03  0.00000000000E+00 0. -1.
        -12    1    6    6    0    0 -0.24135652595E+01  0.38169308266E+02  0.38094787750E+03  0.38286290857E+03  0.00000000000E+00 0.  1.
</event>
<event>
12    1  0.8417180E-002  0.2154828E+03  0.7818608E-02  0.1137711E+00
         21   -1    0    0  503  502  0.00000000000E+00  0.00000000000E+00  0.20940730301E+03  0.20940730301E+03  0.00000000000E+00 0.  1.
         21   -1    0    0  501  503 -0.00000000000E+00 -0.00000000000E+00 -0.47459098796E+03  0.47459098796E+03  0.00000000000E+00 0.  1.
          6    2    1    2  501    0  0.97724538526E+02  0.81175180792E+02 -0.38300521902E+03  0.43840771430E+03  0.17137336652E+03 0.  0.
         24    2    3    3    0    0  0.49063144237E+02  0.46727736978E+02 -0.35875377548E+03  0.37387260608E+03  0.80534344395E+02 0.  0.
         -6    2    1    2    0  502 -0.97724538526E+02 -0.81175180792E+02  0.11782153407E+03  0.24559057667E+03  0.17404976889E+03 0.  0.
        -24    2    5    5    0    0 -0.11597615430E+03 -0.11068545150E+03  0.10856332854E+03  0.20937204653E+03  0.79680110608E+02 0.  0.
          5    1    3    3  501    0  0.48661394289E+02  0.34447443815E+02 -0.24251443539E+02  0.64535108223E+02  0.47000000000E+01 0. -1.
        -13    1    4    4    0    0  0.30934967704E+02 -0.15559984155E+02 -0.72295559162E+02  0.80160671207E+02  0.00000000000E+00 0.  1.
         14    1    4    4    0    0  0.18128176532E+02  0.62287721132E+02 -0.28645821632E+03  0.29371193487E+03  0.00000000000E+00 0. -1.
         -5    1    5    5    0  502  0.18251615771E+02  0.29510270708E+02  0.92582055260E+01  0.36218530134E+02  0.47000000000E+01 0.  1.
         13    1    6    6    0    0 -0.31033191844E+02 -0.42505567262E+02  0.81705799531E+02  0.97188579171E+02  0.00000000000E+00 0. -1.
        -14    1    6    6    0    0 -0.84942962453E+02 -0.68179884239E+02  0.26857529011E+02  0.11218346736E+03  0.00000000000E+00 0.  1.
</event>
<event>
12    1  0.8417180E-002  0.2111267E+03  0.7818608E-02  0.1140900E+00
         21   -1    0    0  501  502  0.00000000000E+00  0.00000000000E+00  0.13381445979E+04  0.13381445979E+04  0.00000000000E+00 0.  1.
         21   -1    0    0  502  503 -0.00000000000E+00 -0.00000000000E+00 -0.38080904991E+02  0.38080904991E+02  0.00000000000E+00 0.  1.
         -6    2    1    2    0  503 -0.20138521578E+02 -0.12002264902E+03  0.40045074952E+03  0.45217034824E+03  0.17113218489E+03 0.  0.
        -24    2    3    3    0    0 -0.41779617264E+02 -0.12867643226E+03  0.40150127659E+03  0.42837079795E+03  0.63206841361E+02 0.  0.
          6    2    1    2  501    0  0.20138521578E+02  0.12002264902E+03  0.89961294337E+03  0.92405515464E+03  0.17252096858E+03 0.  0.
         24    2    5    5    0    0 -0.31909016495E+02  0.90845468876E+02  0.78582046368E+03  0.79548193622E+03  0.77502420348E+02 0.  0.
          5    1    5    5  501    0  0.52047538074E+02  0.29177180142E+02  0.11379247969E+03  0.12857321842E+03  0.47000000000E+01 0. -1.
        -13    1    6    6    0    0 -0.52757838130E+02  0.43440381019E+02  0.35124464564E+03  0.35783132517E+03  0.00000000000E+00 0.  1.
         14    1    6    6    0    0  0.20848821634E+02  0.47405087857E+02  0.43457581804E+03  0.43765061104E+03  0.00000000000E+00 0. -1.
         -5    1    3    3    0  503  0.21641095686E+02  0.86537832454E+01 -0.10505270658E+01  0.23799550291E+02  0.47000000000E+01 0.  1.
         13    1    4    4    0    0 -0.48466980812E+02 -0.47540941263E+02  0.17872155061E+03  0.19118206500E+03  0.00000000000E+00 0. -1.
        -14    1    4    4    0    0  0.66873635475E+01 -0.81135491000E+02  0.22277972598E+03  0.23718873295E+03  0.00000000000E+00 0.  1.
</event>
<event>
12    1  0.8417180E-002  0.1868064E+03  0.7818608E-02  0.1162285E+00
         21   -1    0    0  503  502  0.00000000000E+00  0.00000000000E+00  0.56653885825E+03  0.56653885825E+03  0.00000000000E+00 0.  1.
         21   -1    0    0  501  503 -0.00000000000E+00 -0.00000000000E+00 -0.60458204615E+02  0.60458204615E+02  0.00000000000E+00 0.  1.
          6    2    1    2  501    0 -0.29996477866E+02  0.57879940782E+02  0.24042618883E+03  0.30446902721E+03  0.17506216047E+03 0.  0.
         24    2    3    3    0    0 -0.20155547623E+02  0.10609291810E+03  0.19776093499E+03  0.23917163848E+03  0.80198078983E+02 0.  0.
         -6    2    1    2    0  502  0.29996477866E+02 -0.57879940782E+02  0.26565446481E+03  0.32252803565E+03  0.17088640344E+03 0.  0.
        -24    2    5    5    0    0 -0.29333803643E+02 -0.57674053753E+02  0.23274050319E+03  0.25451668687E+03  0.80148821324E+02 0.  0.
          5    1    3    3  501    0 -0.98409302429E+01 -0.48212977322E+02  0.42665253833E+02  0.65297388729E+02  0.47000000000E+01 0. -1.
        -13    1    4    4    0    0  0.11563144024E+02  0.96237743858E+01  0.89428194107E+02  0.90684757453E+02  0.00000000000E+00 0.  1.
         14    1    4    4    0    0 -0.31718691647E+02  0.96469143718E+02  0.10833274089E+03  0.14848688103E+03  0.00000000000E+00 0. -1.
         -5    1    5    5    0  502  0.59330281508E+02 -0.20588702834E+00  0.32913961619E+02  0.68011348779E+02  0.47000000000E+01 0.  1.
         11    1    6    6    0    0 -0.23460362965E+02 -0.76041772428E+02  0.15276920373E+03  0.17225321301E+03  0.00000000000E+00 0. -1.
        -12    1    6    6    0    0 -0.58734406773E+01  0.18367718674E+02  0.79971299455E+02  0.82263473858E+02  0.00000000000E+00 0.  1.
</event>
<event>
12    1  0.8417180E-002  0.2098799E+03  0.7818608E-02  0.1141802E+00
         21   -1    0    0  503  502  0.00000000000E+00  0.00000000000E+00  0.36490031888E+03  0.36490031888E+03  0.00000000000E+00 0. -1.
         21   -1    0    0  501  503 -0.00000000000E+00 -0.00000000000E+00 -0.14701217391E+03  0.14701217391E+03  0.00000000000E+00 0. -1.
          6    2    1    2  501    0  0.15862876871E+02  0.11879175885E+03  0.21787900743E+03  0.30203254882E+03  0.17143303601E+03 0.  0.
         24    2    3    3    0    0  0.13488790366E+02 -0.80571451255E+01  0.93300136760E+02  0.12416106222E+03  0.80400179102E+02 0.  0.
         -6    2    1    2    0  502 -0.15862876871E+02 -0.11879175885E+03  0.91375411250E-02  0.20987994397E+03  0.17229764352E+03 0.  0.
        -24    2    5    5    0    0  0.28961993176E+02 -0.10279167642E+03  0.45714253930E+02  0.14372618915E+03  0.84631546400E+02 0.  0.
          5    1    3    3  501    0  0.23740865052E+01  0.12684890398E+03  0.12457887067E+03  0.17787148660E+03  0.47000000000E+01 0. -1.
        -13    1    4    4    0    0 -0.27566928843E+02  0.18340846512E+02  0.37831756946E+02  0.50274884885E+02  0.00000000000E+00 0.  1.
         14    1    4    4    0    0  0.41055719208E+02 -0.26397991638E+02  0.55468379814E+02  0.73886177337E+02  0.00000000000E+00 0. -1.
         -5    1    5    5    0  502 -0.44824870047E+02 -0.16000082439E+02 -0.45705116389E+02  0.66153754821E+02  0.47000000000E+01 0.  1.
         11    1    6    6    0    0 -0.29322553439E+02 -0.23145382554E+02  0.90135864751E+01  0.38428708213E+02  0.00000000000E+00 0. -1.
        -12    1    6    6    0    0  0.58284546615E+02 -0.79646293862E+02  0.36700667455E+02  0.10529748094E+03  0.00000000000E+00 0.  1.
</event>
<event>
12    1  0.8417180E-002  0.1836033E+03  0.7818608E-02  0.1164363E+00
         21   -1    0    0  503  502  0.00000000000E+00  0.00000000000E+00  0.22739372708E+02  0.22739372708E+02  0.00000000000E+00 0. -1.
         21   -1    0    0  501  503 -0.00000000000E+00 -0.00000000000E+00 -0.18942019701E+04  0.18942019701E+04  0.00000000000E+00 0. -1.
          6    2    1    2  501    0  0.42265055050E+02  0.50438897087E+02 -0.13826673543E+04  0.13948043484E+04  0.17140519320E+03 0.  0.
         24    2    3    3    0    0 -0.51971830642E+01 -0.15860568484E+02 -0.10104434423E+04  0.10137255981E+04  0.79781388159E+02 0.  0.
         -6    2    1    2    0  502 -0.42265055050E+02 -0.50438897087E+02 -0.48879524305E+03  0.52213699444E+03  0.17139379835E+03 0.  0.
        -24    2    5    5    0    0 -0.57056676843E+01 -0.13776259704E+02 -0.96232617094E+02  0.12614678865E+03  0.80187004669E+02 0.  0.
          5    1    3    3  501    0  0.47462238114E+02  0.66299465571E+02 -0.37222391209E+03  0.38107875028E+03  0.47000000000E+01 0. -1.
        -13    1    4    4    0    0 -0.15163027437E+02 -0.13330627802E+02 -0.61555726561E+02  0.64782177418E+02  0.00000000000E+00 0.  1.
         14    1    4    4    0    0  0.99658443724E+01 -0.25299406823E+01 -0.94888771570E+03  0.94894342068E+03  0.00000000000E+00 0. -1.
         -5    1    5    5    0  502 -0.36559387365E+02 -0.36662637383E+02 -0.39256262596E+03  0.39599020579E+03  0.47000000000E+01 0.  1.
         13    1    6    6    0    0  0.17916175784E+02 -0.32225888565E+02 -0.87463028401E+02  0.94917219647E+02  0.00000000000E+00 0. -1.
        -14    1    6    6    0    0 -0.23621843469E+02  0.18449628861E+02 -0.87695886931E+01  0.31229568998E+02  0.00000000000E+00 0.  1.
</event>
<event>
12    1  0.8417180E-002  0.1816062E+03  0.7818608E-02  0.1166292E+00
         21   -1    0    0  501  502  0.00000000000E+00  0.00000000000E+00  0.27444124989E+02  0.27444124989E+02  0.00000000000E+00 0.  1.
         21   -1    0    0  502  503 -0.00000000000E+00 -0.00000000000E+00 -0.14042304352E+04  0.14042304352E+04  0.00000000000E+00 0.  1.
         -6    2    1    2    0  503 -0.54848944874E+02  0.29522076655E+02 -0.96062909995E+03  0.97761771040E+03  0.17043520834E+03 0.  0.
        -24    2    3    3    0    0  0.18471627707E+02  0.18322803033E+02 -0.73524125086E+03  0.74029282208E+03  0.82321560509E+02 0.  0.
          6    2    1    2  501    0  0.54848944874E+02 -0.29522076655E+02 -0.41615721027E+03  0.45405684980E+03  0.17058968149E+03 0.  0.
         24    2    5    5    0    0 -0.70573951995E+01 -0.76096108078E+01 -0.87782008352E+02  0.11914654191E+03  0.79890578007E+02 0.  0.
          5    1    5    5  501    0  0.61906340073E+02 -0.21912465847E+02 -0.32837520192E+03  0.33491030789E+03  0.47000000000E+01 0. -1.
        -11    1    6    6    0    0  0.45521949671E+01  0.30366717154E+02 -0.68361237339E+02  0.74940768346E+02  0.00000000000E+00 0.  1.
         12    1    6    6    0    0 -0.11609590167E+02 -0.37976327962E+02 -0.19420771012E+02  0.44205773560E+02  0.00000000000E+00 0. -1.
         -5    1    3    3    0  503 -0.73320572581E+02  0.11199273622E+02 -0.22538784910E+03  0.23732488831E+03  0.47000000000E+01 0.  1.
         13    1    4    4    0    0  0.24087808310E+02  0.42608411432E+02 -0.27112275394E+03  0.27550543903E+03  0.00000000000E+00 0. -1.
        -14    1    4    4    0    0 -0.56161806031E+01 -0.24285608399E+02 -0.46411849692E+03  0.46478738305E+03  0.00000000000E+00 0.  1.
</event>
<event>
12    1  0.8417180E-002  0.1897032E+03  0.7818608E-02  0.1158769E+00
         21   -1    0    0  503  502  0.00000000000E+00  0.00000000000E+00  0.21282795705E+03  0.21282795705E+03  0.00000000000E+00 0.  1.
         21   -1    0    0  501  503 -0.00000000000E+00 -0.00000000000E+00 -0.16992911771E+03  0.16992911771E+03  0.00000000000E+00 0.  1.
          6    2    1    2  501    0 -0.52762965294E+02 -0.43327417840E+02  0.36098789262E+02  0.19310731554E+03  0.17699185598E+03 0.  0.
         24    2    3    3    0    0 -0.16089132395E+01 -0.63511174184E+02  0.75217716250E+02  0.12545747067E+03  0.77753548221E+02 0.  0.
         -6    2    1    2    0  502  0.52762965294E+02  0.43327417840E+02  0.68000500859E+01  0.18964975923E+03  0.17680383155E+03 0.  0.
        -24    2    5    5    0    0 -0.95197566636E+01  0.28177878612E+02  0.61602521438E+02  0.10518647217E+03  0.79904347008E+02 0.  0.
          5    1    3    3  501    0 -0.51154052055E+02  0.20183756344E+02 -0.39118926988E+02  0.67649844866E+02  0.47000000000E+01 0. -1.
        -13    1    4    4    0    0  0.11534126874E+01  0.89467055678E+01  0.46663228512E+02  0.47527158515E+02  0.00000000000E+00 0.  1.
         14    1    4    4    0    0 -0.27623259270E+01 -0.72457879752E+02  0.28554487738E+02  0.77930312155E+02  0.00000000000E+00 0. -1.
         -5    1    5    5    0  502  0.62282721958E+02  0.15149539227E+02 -0.54802471352E+02  0.84463287051E+02  0.47000000000E+01 0.  1.
         11    1    6    6    0    0 -0.17397934128E+02  0.43090838375E+02  0.57283690654E+01  0.46822245524E+02  0.00000000000E+00 0. -1.
        -12    1    6    6    0    0  0.78781774644E+01 -0.14912959763E+02  0.55874152372E+02  0.58364226649E+02  0.00000000000E+00 0.  1.
</event>
<event>
12    1  0.8417180E-002  0.2034858E+03  0.7818608E-02  0.1147054E+00
         21   -1    0    0  503  502  0.00000000000E+00  0.00000000000E+00  0.10027316438E+03  0.10027316438E+03  0.00000000000E+00 0. -1.
         21   -1    0    0  501  503 -0.00000000000E+00 -0.00000000000E+00 -0.42547046487E+03  0.42547046487E+03  0.00000000000E+00 0. -1.
          6    2    1    2  501    0  0.91934672185E+02 -0.58232075443E+02 -0.21191760058E+03  0.29379505352E+03  0.17194041258E+03 0.  0.
         24    2    3    3    0    0  0.54633369100E+02  0.34664341061E+02 -0.11125324604E+03  0.15175092768E+03  0.80402970942E+02 0.  0.
         -6    2    1    2    0  502 -0.91934672185E+02  0.58232075443E+02 -0.11327969991E+03  0.23194857573E+03  0.17066016761E+03 0.  0.
        -24    2    5    5    0    0 -0.11753088582E+03  0.66408537734E+02 -0.65916954209E+02  0.17729200825E+03  0.94147800448E+02 0.  0.
          5    1    3    3  501    0  0.37301303085E+02 -0.92896416504E+02 -0.10066435454E+03  0.14204412584E+03  0.47000000000E+01 0. -1.
        -13    1    4    4    0    0 -0.27783295477E+01 -0.46491685024E+01  0.10330569573E+02  0.11664242390E+02  0.00000000000E+00 0.  1.
         14    1    4    4    0    0  0.57411698647E+02  0.39313509564E+02 -0.12158381562E+03  0.14008668529E+03  0.00000000000E+00 0. -1.
         -5    1    5    5    0  502  0.25596213638E+02 -0.81764622914E+01 -0.47362745706E+02  0.54656567483E+02  0.47000000000E+01 0.  1.
         13    1    6    6    0    0 -0.97297513973E+02  0.15360187614E+02 -0.72046956947E+02  0.12203895114E+03  0.00000000000E+00 0. -1.
        -14    1    6    6    0    0 -0.20233371851E+02  0.51048350121E+02  0.61300027384E+01  0.55253057110E+02  0.00000000000E+00 0.  1.
</event>
<event>
12    1  0.8417180E-002  0.2727706E+03  0.7818608E-02  0.1099741E+00
         21   -1    0    0  501  502  0.00000000000E+00  0.00000000000E+00  0.44181713338E+03  0.44181713338E+03  0.00000000000E+00 0.  1.
         21   -1    0    0  502  503 -0.00000000000E+00 -0.00000000000E+00 -0.25978557343E+03  0.25978557343E+03  0.00000000000E+00 0. -1.
         -6    2    1    2    0  503 -0.93555548594E+02  0.18969378746E+03 -0.11725081686E+03  0.29666600125E+03  0.17183302526E+03 0.  0.
        -24    2    3    3    0    0 -0.41198275511E+02  0.91723706710E+02 -0.13291787030E+03  0.18438524898E+03  0.78868393654E+02 0.  0.
          6    2    1    2  501    0  0.93555548594E+02 -0.18969378746E+03  0.29928237681E+03  0.40493670555E+03  0.17224233151E+03 0.  0.
         24    2    5    5    0    0  0.62725184635E+02 -0.18141295024E+03  0.30594775254E+03  0.37198824822E+03  0.89028771937E+02 0.  0.
          5    1    5    5  501    0  0.30830363959E+02 -0.82808372219E+01 -0.66653757259E+01  0.32948457332E+02  0.47000000000E+01 0. -1.
        -13    1    6    6    0    0  0.50241404372E+02 -0.40552434803E+02  0.13854404460E+03  0.15285009315E+03  0.00000000000E+00 0.  1.
         14    1    6    6    0    0  0.12483780263E+02 -0.14086051543E+03  0.16740370794E+03  0.21913815507E+03  0.00000000000E+00 0. -1.
         -5    1    3    3    0  503 -0.52357273084E+02  0.97970080748E+02  0.15667053444E+02  0.11228075227E+03  0.47000000000E+01 0.  1.
         11    1    4    4    0    0 -0.21041816537E+02  0.93286968901E+02 -0.70594018968E+02  0.11886434337E+03  0.00000000000E+00 0. -1.
        -12    1    4    4    0    0 -0.20156458973E+02 -0.15632621913E+01 -0.62323851336E+02  0.65520905613E+02  0.00000000000E+00 0.  1.
</event>
<event>
12    1  0.8417180E-002  0.2285357E+03  0.7818608E-02  0.1128041E+00
         21   -1    0    0  501  502  0.00000000000E+00  0.00000000000E+00  0.10057239123E+04  0.10057239123E+04  0.00000000000E+00 0. -1.
         21   -1    0    0  502  503 -0.00000000000E+00 -0.00000000000E+00 -0.12757404699E+03  0.12757404699E+03  0.00000000000E+00 0.  1.
         -6    2    1    2    0  503 -0.14851332988E+02 -0.14808518914E+03  0.22040236906E+01  0.22854635386E+03  0.17343238685E+03 0.  0.
        -24    2    3    3    0    0  0.14529320712E+01 -0.17066324443E+02  0.22473780591E+02  0.94887366094E+02  0.90582398890E+02 0.  0.
          6    2    1    2  501    0  0.14851332988E+02  0.14808518914E+03  0.87594584157E+03  0.90475160538E+03  0.17071779270E+03 0.  0.
         24    2    5    5    0    0  0.28987053217E+02  0.25464223457E+02  0.21928894335E+03  0.23657790656E+03  0.79954920225E+02 0.  0.
          5    1    5    5  501    0 -0.14135720229E+02  0.12262096568E+03  0.65665689822E+03  0.66817369882E+03  0.47000000000E+01 0. -1.
        -11    1    6    6    0    0 -0.12092010075E+01  0.40525127620E+02  0.52092971803E+02  0.66010800987E+02  0.00000000000E+00 0.  1.
         12    1    6    6    0    0  0.30196254224E+02 -0.15060904163E+02  0.16719597155E+03  0.17056710558E+03  0.00000000000E+00 0. -1.
         -5    1    3    3    0  503 -0.16304265059E+02 -0.13101886470E+03 -0.20269756901E+02  0.13365898776E+03  0.47000000000E+01 0.  1.
         11    1    4    4    0    0  0.66158504957E+01 -0.49474726600E+02  0.33673874526E+02  0.60211692183E+02  0.00000000000E+00 0. -1.
        -12    1    4    4    0    0 -0.51629184245E+01  0.32408402157E+02 -0.11200093935E+02  0.34675673911E+02  0.00000000000E+00 0.  1.
</event>
<event>
12    1  0.8417180E-002  0.2152933E+03  0.7818608E-02  0.1137509E+00
         21   -1    0    0  503  502  0.00000000000E+00  0.00000000000E+00  0.52628588711E+02  0.52628588711E+02  0.00000000000E+00 0.  1.
         21   -1    0    0  501  503 -0.00000000000E+00 -0.00000000000E+00 -0.17535477929E+04  0.17535477929E+04  0.00000000000E+00 0. -1.
          6    2    1    2  501    0 -0.75496675483E+02  0.10445009433E+03 -0.14884759049E+04  0.15039653386E+04  0.17245767633E+03 0.  0.
         24    2    3    3    0    0 -0.97764327158E+02  0.12320108375E+03 -0.10575041949E+04  0.10719859957E+04  0.78118384570E+02 0.  0.
         -6    2    1    2    0  502  0.75496675483E+02 -0.10445009433E+03 -0.21244329935E+03  0.30221104304E+03  0.17201682732E+03 0.  0.
        -24    2    5    5    0    0  0.86845755951E+02 -0.11589499123E+03 -0.22586328307E+03  0.28071747993E+03  0.82548449878E+02 0.  0.
          5    1    3    3  501    0  0.22267651675E+02 -0.18750989417E+02 -0.43097170996E+03  0.43197934291E+03  0.47000000000E+01 0. -1.
        -13    1    4    4    0    0 -0.83323126680E+01 -0.80638372644E+01 -0.28076347228E+02  0.30376539953E+02  0.00000000000E+00 0.  1.
         14    1    4    4    0    0 -0.89432014490E+02  0.13126492101E+03 -0.10294278477E+04  0.10416094557E+04  0.00000000000E+00 0. -1.
         -5    1    5    5    0  502 -0.11349080468E+02  0.11444896900E+02  0.13419983717E+02  0.21493563117E+02  0.47000000000E+01 0.  1.
         11    1    6    6    0    0 -0.12145478597E+02 -0.40404263861E+02 -0.55495042084E+02  0.69711669642E+02  0.00000000000E+00 0. -1.
        -12    1    6    6    0    0  0.98991234548E+02 -0.75490727372E+02 -0.17036824099E+03  0.21100581028E+03  0.00000000000E+00 0.  1.
</event>
<event>
12    1  0.8417180E-002  0.2145172E+03  0.7818608E-02  0.1138659E+00
         21   -1    0    0  501  502  0.00000000000E+00  0.00000000000E+00  0.21196244428E+03  0.21196244428E+03  0.00000000000E+00 0.  1.
         21   -1    0    0  502  503 -0.00000000000E+00 -0.00000000000E+00 -0.37948179473E+03  0.37948179473E+03  0.00000000000E+00 0.  1.
         -6    2    1    2    0  503 -0.40347862838E+02  0.11966787072E+03 -0.27946517462E+03  0.35230444228E+03  0.17340497948E+03 0.  0.
        -24    2    3    3    0    0  0.20112046138E+02  0.12396085350E+03 -0.16156639283E+03  0.21965436485E+03  0.79834535800E+02 0.  0.
          6    2    1    2  501    0  0.40347862838E+02 -0.11966787072E+03  0.11194582416E+03  0.23913979672E+03  0.16943324795E+03 0.  0.
         24    2    5    5    0    0  0.28035677907E+02 -0.10767785256E+03  0.20533247578E+02  0.14600709789E+03  0.92281846599E+02 0.  0.
          5    1    5    5  501    0  0.12312184931E+02 -0.11990018159E+02  0.91412576586E+02  0.93132698830E+02  0.47000000000E+01 0. -1.
        -13    1    6    6    0    0 -0.35123911709E+01 -0.76604269655E+02  0.51144093990E+02  0.92175210177E+02  0.00000000000E+00 0.  1.
         14    1    6    6    0    0  0.31548069078E+02 -0.31073582904E+02 -0.30610846413E+02  0.53831887716E+02  0.00000000000E+00 0. -1.
         -5    1    3    3    0  503 -0.60459908976E+02 -0.42929827839E+01 -0.11789878179E+03  0.13265007743E+03  0.47000000000E+01 0.  1.
         13    1    4    4    0    0  0.25947482532E+02  0.65866208591E+02 -0.32299788818E+02  0.77813274200E+02  0.00000000000E+00 0. -1.
        -14    1    4    4    0    0 -0.58354363942E+01  0.58094644910E+02 -0.12926660401E+03  0.14184109066E+03  0.00000000000E+00 0.  1.
</event>
<event>
12    1  0.8417180E-002  0.2240475E+03  0.7818608E-02  0.1132863E+00
         21   -1    0    0  501  502  0.00000000000E+00  0.00000000000E+00  0.40333464467E+03  0.40333464467E+03  0.00000000000E+00 0.  1.
         21   -1    0    0  502  503 -0.00000000000E+00 -0.00000000000E+00 -0.44168687330E+03  0.44168687330E+03  0.00000000000E+00 0.  1.
         -6    2    1    2    0  503  0.12710647123E+03  0.19254646805E+02 -0.38058195063E+03  0.44163321808E+03  0.18349518174E+03 0.  0.
        -24    2    3    3    0    0  0.31324805416E+02 -0.23062349133E+02 -0.68593275934E+02  0.11250728658E+03  0.80247969747E+02 0.  0.
          6    2    1    2  501    0 -0.12710647123E+03 -0.19254646805E+02  0.34222972199E+03  0.40338829988E+03  0.17051141137E+03 0.  0.
         24    2    5    5    0    0 -0.20308245896E+01 -0.35022262834E+02  0.14553714509E+03  0.16971631844E+03  0.79949265176E+02 0.  0.
          5    1    5    5  501    0 -0.12507564665E+03  0.15767616028E+02  0.19669257691E+03  0.23367198144E+03  0.47000000000E+01 0. -1.
        -13    1    6    6    0    0  0.60115564597E+01  0.10080652569E+02  0.11279660512E+03  0.11340561051E+03  0.00000000000E+00 0.  1.
         14    1    6    6    0    0 -0.80423810493E+01 -0.45102915402E+02  0.32740539964E+02  0.56310707933E+02  0.00000000000E+00 0. -1.
         -5    1    3    3    0  503  0.95781665818E+02  0.42316995938E+02 -0.31198867469E+03  0.32912593150E+03  0.47000000000E+01 0.  1.
         13    1    4    4    0    0 -0.27187307303E+02 -0.31433231880E+01 -0.21254173162E+02  0.34652128879E+02  0.00000000000E+00 0. -1.
        -14    1    4    4    0    0  0.58512112719E+02 -0.19919025945E+02 -0.47339102772E+02  0.77855157702E+02  0.00000000000E+00 0.  1.
</event>
<event>
12    1  0.8417180E-002  0.1733494E+03  0.7818608E-02  0.1174986E+00
         21   -1    0    0  501  502  0.00000000000E+00  0.00000000000E+00  0.23007924780E+03  0.23007924780E+03  0.00000000000E+00 0.  1.
         21   -1    0    0  502  503 -0.00000000000E+00 -0.00000000000E+00 -0.12929691164E+03  0.12929691164E+03  0.00000000000E+00 0.  1.
         -6    2    1    2    0  503  0.26545762614E+01  0.43236180111E+01  0.60189872317E+02  0.18133755165E+03  0.17098171382E+03 0.  0.
        -24    2    3    3    0    0  0.60477788161E+02  0.30420401483E+02  0.48548103180E+02  0.11666772306E+03  0.81679101329E+02 0.  0.
          6    2    1    2  501    0 -0.26545762614E+01 -0.43236180111E+01  0.40592463849E+02  0.17803860779E+03  0.17327509138E+03 0.  0.
         24    2    5    5    0    0 -0.42115399967E+01  0.10251772286E+02  0.93430601705E+02  0.12300384650E+03  0.79232777397E+02 0.  0.
          5    1    5    5  501    0  0.15569637353E+01 -0.14575390297E+02 -0.52838137856E+02  0.55034761292E+02  0.47000000000E+01 0. -1.
        -13    1    6    6    0    0  0.24280161035E+02  0.37186966667E+01 -0.56309858035E+00  0.24569737581E+02  0.00000000000E+00 0.  1.
         14    1    6    6    0    0 -0.28491701032E+02  0.65330756188E+01  0.93993700285E+02  0.98434108916E+02  0.00000000000E+00 0. -1.
         -5    1    3    3    0  503 -0.57823211899E+02 -0.26096783472E+02  0.11641769137E+02  0.64669828596E+02  0.47000000000E+01 0.  1.
         13    1    4    4    0    0  0.53533748147E+02  0.36874936628E+02  0.68588044543E+02  0.94498375628E+02  0.00000000000E+00 0. -1.
        -14    1    4    4    0    0  0.69440400135E+01 -0.64545351448E+01 -0.20039941363E+02  0.22169347430E+02  0.00000000000E+00 0.  1.
</event>
<event>
12    1  0.8417180E-002  0.1948463E+03  0.7818608E-02  0.1154342E+00
         21   -1    0    0  503  502  0.00000000000E+00  0.00000000000E+00  0.11164615906E+03  0.11164615906E+03  0.00000000000E+00 0. -1.
         21   -1    0    0  501  503 -0.00000000000E+00 -0.00000000000E+00 -0.49590467127E+03  0.49590467127E+03  0.00000000000E+00 0. -1.
          6    2    1    2  501    0  0.48058294301E+02  0.70032867943E+02 -0.36293644954E+03  0.41154139185E+03  0.17443981356E+03 0.  0.
         24    2    3    3    0    0  0.77756544570E+02  0.94595971451E+02 -0.22608925764E+03  0.26929310168E+03  0.80049635586E+02 0.  0.
         -6    2    1    2    0  502 -0.48058294301E+02 -0.70032867943E+02 -0.21322062666E+02  0.19600943848E+03  0.17535925232E+03 0.  0.
        -24    2    5    5    0    0  0.15195707604E+02  0.11179223480E+02 -0.34350209048E+02  0.92142720285E+02  0.83393401854E+02 0.  0.
          5    1    3    3  501    0 -0.29698250268E+02 -0.24563103508E+02 -0.13684719191E+03  0.14224829017E+03  0.47000000000E+01 0. -1.
        -13    1    4    4    0    0 -0.72042860375E+01  0.49650548073E+02 -0.76173551733E+02  0.91211230914E+02  0.00000000000E+00 0.  1.
         14    1    4    4    0    0  0.84960830607E+02  0.44945423378E+02 -0.14991570590E+03  0.17808187077E+03  0.00000000000E+00 0. -1.
         -5    1    5    5    0  502 -0.63254001905E+02 -0.81212091423E+02  0.13028146382E+02  0.10386671819E+03  0.47000000000E+01 0.  1.
         11    1    6    6    0    0 -0.20720001792E+02 -0.75856423407E+00  0.18059235115E+02  0.27495997288E+02  0.00000000000E+00 0. -1.
        -12    1    6    6    0    0  0.35915709395E+02  0.11937787714E+02 -0.52409444162E+02  0.64646722997E+02  0.00000000000E+00 0.  1.
</event>
<event>
12    1  0.8417180E-002  0.1974120E+03  0.7818608E-02  0.1152255E+00
         21   -1    0    0  501  502  0.00000000000E+00  0.00000000000E+00  0.17073440286E+03  0.17073440286E+03  0.00000000000E+00 0. -1.
         21   -1    0    0  502  503 -0.00000000000E+00 -0.00000000000E+00 -0.35255670003E+03  0.35255670003E+03  0.00000000000E+00 0. -1.
         -6    2    1    2    0  503 -0.84572889777E+02 -0.44639061471E+02 -0.24753136178E+03  0.31661218102E+03  0.17270286221E+03 0.  0.
        -24    2    3    3    0    0 -0.73580937305E+02  0.24972950705E+02 -0.20799475071E+03  0.23566844209E+03  0.78993643232E+02 0.  0.
          6    2    1    2  501    0  0.84572889777E+02  0.44639061471E+02  0.65709064609E+02  0.20667892187E+03  0.17103589121E+03 0.  0.
         24    2    5    5    0    0  0.80601085604E+02  0.14233877673E+02 -0.20727231524E+02  0.11484443097E+03  0.77849129244E+02 0.  0.
          5    1    5    5  501    0  0.39718041729E+01  0.30405183799E+02  0.86436296133E+02  0.91834490903E+02  0.47000000000E+01 0. -1.
        -11    1    6    6    0    0  0.35535831577E+02  0.31152156847E+02 -0.41047239412E+02  0.62594952396E+02  0.00000000000E+00 0.  1.
         12    1    6    6    0    0  0.45065254026E+02 -0.16918279174E+02  0.20320007888E+02  0.52249478574E+02  0.00000000000E+00 0. -1.
         -5    1    3    3    0  503 -0.10991952471E+02 -0.69612012177E+02 -0.39536611073E+02  0.80943738939E+02  0.47000000000E+01 0.  1.
         11    1    4    4    0    0 -0.81730751481E+02  0.71440369100E+01 -0.19650995896E+03  0.21294862519E+03  0.00000000000E+00 0. -1.
        -12    1    4    4    0    0  0.81498141755E+01  0.17828913795E+02 -0.11484791752E+02  0.22719816896E+02  0.00000000000E+00 0.  1.
</event>
<event>
12    1  0.8417180E-002  0.1874026E+03  0.7818608E-02  0.1162192E+00
         21   -1    0    0  501  502  0.00000000000E+00  0.00000000000E+00  0.10602670568E+02  0.10602670568E+02  0.00000000000E+00 0. -1.
         21   -1    0    0  502  503 -0.00000000000E+00 -0.00000000000E+00 -0.32189489929E+04  0.32189489929E+04  0.00000000000E+00 0. -1.
         -6    2    1    2    0  503 -0.57307911676E+02  0.77684386062E+01 -0.15428314674E+04  0.15541713801E+04  0.17825598624E+03 0.  0.
        -24    2    3    3    0    0 -0.10655141751E+03  0.94170956703E+01 -0.91677647488E+03  0.92616295296E+03  0.76529891374E+02 0.  0.
          6    2    1    2  501    0  0.57307911676E+02 -0.77684386062E+01 -0.16655148549E+04  0.16753802833E+04  0.17208955931E+03 0.  0.
         24    2    5    5    0    0  0.99720793367E+02  0.27574843388E+01 -0.90044638397E+03  0.90905039168E+03  0.74947207176E+02 0.  0.
          5    1    5    5  501    0 -0.42412881691E+02 -0.10525922945E+02 -0.76506847093E+03  0.76632989162E+03  0.47000000000E+01 0. -1.
        -11    1    6    6    0    0  0.15022520802E+02 -0.18535242153E+02 -0.42367347632E+03  0.42434472527E+03  0.00000000000E+00 0.  1.
         12    1    6    6    0    0  0.84698272564E+02  0.21292726492E+02 -0.47677290765E+03  0.48470566641E+03  0.00000000000E+00 0. -1.
         -5    1    3    3    0  503  0.49243505837E+02 -0.16486570641E+01 -0.62605499253E+03  0.62800842718E+03  0.47000000000E+01 0.  1.
         11    1    4    4    0    0 -0.19285903278E+02 -0.22266310805E+02 -0.10368024240E+03  0.10778370622E+03  0.00000000000E+00 0. -1.
        -12    1    4    4    0    0 -0.87265514235E+02  0.31683406475E+02 -0.81309623248E+03  0.81837924674E+03  0.00000000000E+00 0.  1.
</event>
<event>
12    1  0.8417180E-002  0.1781569E+03  0.7818608E-02  0.1170014E+00
         21   -1    0    0  501  502  0.00000000000E+00  0.00000000000E+00  0.10744775226E+03  0.10744775226E+03  0.00000000000E+00 0. -1.
         21   -1    0    0  502  503 -0.00000000000E+00 -0.00000000000E+00 -0.32029561031E+03  0.32029561031E+03  0.00000000000E+00 0. -1.
         -6    2    1    2    0  503  0.23953937831E+02  0.41036046826E+02 -0.16883549262E+03  0.24423054474E+03  0.16995701556E+03 0.  0.
        -24    2    3    3    0    0  0.48722916303E+02  0.60661058039E+02 -0.55318519698E+02  0.12630329385E+03  0.82696413952E+02 0.  0.
          6    2    1    2  501    0 -0.23953937831E+02 -0.41036046826E+02 -0.44012365419E+02  0.18351281783E+03  0.17170357516E+03 0.  0.
         24    2    5    5    0    0  0.46002555327E+02 -0.41437539941E+02 -0.51211328988E+02  0.11302886783E+03  0.79496037217E+02 0.  0.
          5    1    5    5  501    0 -0.69956493158E+02  0.40149311502E+00  0.71989635687E+01  0.70483950004E+02  0.47000000000E+01 0. -1.
        -13    1    6    6    0    0  0.34186374934E+02 -0.19674731774E+02  0.15107132672E+02  0.42237764608E+02  0.00000000000E+00 0.  1.
         14    1    6    6    0    0  0.11816180392E+02 -0.21762808167E+02 -0.66318461660E+02  0.70791103222E+02  0.00000000000E+00 0. -1.
         -5    1    3    3    0  503 -0.24768978472E+02 -0.19625011213E+02 -0.11351697293E+03  0.11792725089E+03  0.47000000000E+01 0.  1.
         13    1    4    4    0    0  0.31029397035E+02 -0.15849386922E+02 -0.13825421264E+02  0.37485581485E+02  0.00000000000E+00 0. -1.
        -14    1    4    4    0    0  0.17693519268E+02  0.76510444961E+02 -0.41493098434E+02  0.88817712366E+02  0.00000000000E+00 0.  1.
</event>
<event>
12    1  0.8417180E-002  0.1719180E+03  0.7818608E-02  0.1175890E+00
         21   -1    0    0  503  502  0.00000000000E+00  0.00000000000E+00  0.35266515992E+02  0.35266515992E+02  0.00000000000E+00 0.  1.
         21   -1    0    0  501  503 -0.00000000000E+00 -0.00000000000E+00 -0.15062917891E+04  0.15062917891E+04  0.00000000000E+00 0.  1.
          6    2    1    2  501    0 -0.10303929820E+02 -0.76351132491E+01 -0.12489621317E+04  0.12607240930E+04  0.17133115986E+03 0.  0.
         24    2    3    3    0    0 -0.15046349001E+02  0.37968358223E+02 -0.11235685736E+04  0.11271284286E+04  0.79650273105E+02 0.  0.
         -6    2    1    2    0  502  0.10303929820E+02  0.76351132491E+01 -0.22206314137E+03  0.28083421205E+03  0.17143905616E+03 0.  0.
        -24    2    5    5    0    0 -0.15943189010E+02  0.51127258731E+02 -0.20599156115E+03  0.22734717010E+03  0.79912643731E+02 0.  0.
          5    1    3    3  501    0  0.47424191802E+01 -0.45603471472E+02 -0.12539355812E+03  0.13359566448E+03  0.47000000000E+01 0. -1.
        -11    1    4    4    0    0 -0.28848666386E+02 -0.88211447887E+01 -0.19897968741E+03  0.20125350717E+03  0.00000000000E+00 0.  1.
         12    1    4    4    0    0  0.13802317385E+02  0.46789503011E+02 -0.92458888620E+03  0.92587492139E+03  0.00000000000E+00 0. -1.
         -5    1    5    5    0  502  0.26247118830E+02 -0.43492145482E+02 -0.16071580223E+02  0.53487041948E+02  0.47000000000E+01 0.  1.
         11    1    6    6    0    0 -0.20240108593E+02 -0.17785544597E+02 -0.64733998653E+02  0.70117602455E+02  0.00000000000E+00 0. -1.
        -12    1    6    6    0    0  0.42969195832E+01  0.68912803328E+02 -0.14125756250E+03  0.15722956765E+03  0.00000000000E+00 0.  1.
</event>
<event>
12    1  0.8417180E-002  0.2017229E+03  0.7818608E-02  0.1150208E+00
         21   -1    0    0  501  502  0.00000000000E+00  0.00000000000E+00  0.82394740063E+03  0.82394740063E+03  0.00000000000E+00 0.  1.
         21   -1    0    0  502  503 -0.00000000000E+00 -0.00000000000E+00 -0.56135699875E+02  0.56135699875E+02  0.00000000000E+00 0.  1.
         -6    2    1    2    0  503  0.27673095611E+02  0.84905957729E+02  0.20122435484E+03  0.27865700413E+03  0.17083226595E+03 0.  0.
        -24    2    3    3    0    0 -0.12001551790E+02  0.10295078139E+03  0.85659540410E+02  0.15505680331E+03  0.77214990480E+02 0.  0.
          6    2    1    2  501    0 -0.27673095611E+02 -0.84905957729E+02  0.56658734591E+03  0.60142609638E+03  0.18087926076E+03 0.  0.
         24    2    5    5    0    0  0.29909847166E+02 -0.10181149550E+03  0.33837940017E+03  0.36541222177E+03  0.88120904356E+02 0.  0.
          5    1    5    5  501    0 -0.57582942777E+02  0.16905537776E+02  0.22820794574E+03  0.23601387460E+03  0.47000000000E+01 0. -1.
        -11    1    6    6    0    0  0.26146135876E+02 -0.58415910351E+02  0.30186050718E+03  0.30857058317E+03  0.00000000000E+00 0.  1.
         12    1    6    6    0    0  0.37637112899E+01 -0.43395585153E+02  0.36518892995E+02  0.56841638603E+02  0.00000000000E+00 0. -1.
         -5    1    3    3    0  503  0.39674647401E+02 -0.18044823666E+02  0.11556481443E+03  0.12360020081E+03  0.47000000000E+01 0.  1.
         13    1    4    4    0    0 -0.16801855404E+02 -0.60262385572E+01  0.27906353588E+01  0.18066697038E+02  0.00000000000E+00 0. -1.
        -14    1    4    4    0    0  0.48003036145E+01  0.10897701995E+03  0.82868905051E+02  0.13699010627E+03  0.00000000000E+00 0.  1.
</event>
<event>
12    1  0.8417180E-002  0.5163153E+03  0.7818608E-02  0.1009931E+00
         21   -1    0    0  503  502  0.00000000000E+00  0.00000000000E+00  0.19964861302E+03  0.19964861302E+03  0.00000000000E+00 0. -1.
         21   -1    0    0  501  503 -0.00000000000E+00 -0.00000000000E+00 -0.15629295518E+04  0.15629295518E+04  0.00000000000E+00 0.  1.
          6    2    1    2  501    0 -0.23270926321E+03  0.42108396104E+03 -0.10247999386E+04  0.11452040056E+04  0.17266150947E+03 0.  0.
         24    2    3    3    0    0 -0.64637253099E+02  0.23539951405E+03 -0.59154298795E+03  0.64474362782E+03  0.78615096012E+02 0.  0.
         -6    2    1    2    0  502  0.23270926321E+03 -0.42108396104E+03 -0.33848100017E+03  0.61737415922E+03  0.18739306701E+03 0.  0.
        -24    2    5    5    0    0  0.74874761508E+02 -0.68344435217E+02 -0.67508785955E+02  0.14537316994E+03  0.79364542588E+02 0.  0.
          5    1    3    3  501    0 -0.16807201011E+03  0.18568444699E+03 -0.43325695065E+03  0.50046037778E+03  0.47000000000E+01 0. -1.
        -11    1    4    4    0    0 -0.17972899630E+02  0.14668855990E+03 -0.42939577551E+03  0.45411594418E+03  0.00000000000E+00 0.  1.
         12    1    4    4    0    0 -0.46664353469E+02  0.88710954151E+02 -0.16214721244E+03  0.19062768364E+03  0.00000000000E+00 0. -1.
         -5    1    5    5    0  502  0.15783450170E+03 -0.35273952582E+03 -0.27097221422E+03  0.47200098928E+03  0.47000000000E+01 0.  1.
         11    1    6    6    0    0  0.21675352863E+02  0.13592693719E+02 -0.33018410283E+02  0.41770775213E+02  0.00000000000E+00 0. -1.
        -12    1    6    6    0    0  0.53199408645E+02 -0.81937128936E+02 -0.34490375672E+02  0.10360239472E+03  0.00000000000E+00 0.  1.
</event>
<event>
12    1  0.8417180E-002  0.2232582E+03  0.7818608E-02  0.1131528E+00
         21   -1    0    0  503  502  0.00000000000E+00  0.00000000000E+00  0.25159543867E+03  0.25159543867E+03  0.00000000000E+00 0. -1.
         21   -1    0    0  501  503 -0.00000000000E+00 -0.00000000000E+00 -0.32184088875E+03  0.32184088875E+03  0.00000000000E+00 0.  1.
          6    2    1    2  501    0 -0.11044370999E+03  0.88855987654E+02 -0.21308855357E+03  0.30862756635E+03  0.17248490784E+03 0.  0.
         24    2    3    3    0    0 -0.10405117150E+02 -0.93336748830E+01 -0.10218992813E+03  0.12982732863E+03  0.78847764061E+02 0.  0.
         -6    2    1    2    0  502  0.11044370999E+03 -0.88855987654E+02  0.14284310349E+03  0.26480876107E+03  0.17212300284E+03 0.  0.
        -24    2    5    5    0    0  0.11850672595E+03 -0.59680463661E+02  0.17020820796E+03  0.22373367897E+03  0.58994264231E+02 0.  0.
          5    1    3    3  501    0 -0.10003859284E+03  0.98189662537E+02 -0.11089862544E+03  0.17880023773E+03  0.47000000000E+01 0. -1.
        -13    1    4    4    0    0 -0.18899558923E+02  0.30943227286E+02 -0.64617452574E+02  0.74095153819E+02  0.00000000000E+00 0.  1.
         14    1    4    4    0    0  0.84944417734E+01 -0.40276902169E+02 -0.37572475554E+02  0.55732174806E+02  0.00000000000E+00 0. -1.
         -5    1    5    5    0  502 -0.80630159676E+01 -0.29175523993E+02 -0.27365104464E+02  0.41075082095E+02  0.47000000000E+01 0.  1.
         13    1    6    6    0    0  0.88849801785E+02 -0.70517331290E+02  0.12813575065E+03  0.17113080344E+03  0.00000000000E+00 0. -1.
        -14    1    6    6    0    0  0.29656924170E+02  0.10836867629E+02  0.42072457305E+02  0.52602875538E+02  0.00000000000E+00 0.  1.
</event>
<event>
12    1  0.8417180E-002  0.3528811E+03  0.7818608E-02  0.1061664E+00
         21   -1    0    0  501  502  0.00000000000E+00  0.00000000000E+00  0.60148280736E+03  0.60148280736E+03  0.00000000000E+00 0. -1.
         21   -1    0    0  502  503 -0.00000000000E+00 -0.00000000000E+00 -0.28923588607E+03  0.28923588607E+03  0.00000000000E+00 0.  1.
         -6    2    1    2    0  503  0.18114643352E+02 -0.30514365990E+03  0.39576067560E+03  0.53023728145E+03  0.17630731354E+03 0.  0.
        -24    2    3    3    0    0  0.10196098904E+02 -0.32272238028E+03  0.37837610518E+03  0.50385493802E+03  0.80297113430E+02 0.  0.
          6    2    1    2  501    0 -0.18114643352E+02  0.30514365990E+03 -0.83513754304E+02  0.36048141198E+03  0.17184733848E+03 0.  0.
         24    2    5    5    0    0 -0.38916878426E+02  0.25960090349E+03 -0.14718766336E+02  0.27526570911E+03  0.81531687150E+02 0.  0.
          5    1    5    5  501    0  0.20802235075E+02  0.45542756409E+02 -0.68794987968E+02  0.85215702866E+02  0.47000000000E+01 0. -1.
        -11    1    6    6    0    0 -0.47662254100E+02  0.11991861181E+03  0.21202795831E+02  0.13077355419E+03  0.00000000000E+00 0.  1.
         12    1    6    6    0    0  0.87453756735E+01  0.13968229169E+03 -0.35921562167E+02  0.14449215492E+03  0.00000000000E+00 0. -1.
         -5    1    3    3    0  503  0.79185444480E+01  0.17578720380E+02  0.17384570420E+02  0.26382343434E+02  0.47000000000E+01 0.  1.
         11    1    4    4    0    0  0.27330243625E+01 -0.78852276604E+02  0.15087943992E+03  0.17026378458E+03  0.00000000000E+00 0. -1.
        -12    1    4    4    0    0  0.74630745412E+01 -0.24387010368E+03  0.22749666526E+03  0.33359115344E+03  0.00000000000E+00 0.  1.
</event>
<event>
12    1  0.8417180E-002  0.1832347E+03  0.7818608E-02  0.1164734E+00
         21   -1    0    0  503  502  0.00000000000E+00  0.00000000000E+00  0.37387825478E+03  0.37387825478E+03  0.00000000000E+00 0. -1.
         21   -1    0    0  501  503 -0.00000000000E+00 -0.00000000000E+00 -0.92602060212E+02  0.92602060212E+02  0.00000000000E+00 0. -1.
          6    2    1    2  501    0  0.38132367763E+02  0.46000254328E+02  0.18153902872E+03  0.25785995882E+03  0.17310470399E+03 0.  0.
         24    2    3    3    0    0 -0.13488366321E+02  0.74048509713E+02  0.16433918266E+03  0.19646509322E+03  0.76980829297E+02 0.  0.
         -6    2    1    2    0  502 -0.38132367763E+02 -0.46000254328E+02  0.99737165846E+02  0.20862035617E+03  0.17321908062E+03 0.  0.
        -24    2    5    5    0    0 -0.55951816079E+02 -0.44251327824E+02  0.24829716333E+01  0.10962005428E+03  0.83196186310E+02 0.  0.
          5    1    3    3  501    0  0.51620734083E+02 -0.28048255385E+02  0.17199846061E+02  0.61394865599E+02  0.47000000000E+01 0. -1.
        -13    1    4    4    0    0 -0.28395376394E+01  0.78347770529E+00  0.94950321283E+02  0.94996001616E+02  0.00000000000E+00 0.  1.
         14    1    4    4    0    0 -0.10648828681E+02  0.73265032008E+02  0.69388861377E+02  0.10146909160E+03  0.00000000000E+00 0. -1.
         -5    1    5    5    0  502  0.17819448316E+02 -0.17489265035E+01  0.97254194213E+02  0.99000301889E+02  0.47000000000E+01 0.  1.
         11    1    6    6    0    0 -0.30438066317E+02 -0.59946197238E+02  0.25436603233E+02  0.71882148190E+02  0.00000000000E+00 0. -1.
        -12    1    6    6    0    0 -0.25513749762E+02  0.15694869414E+02 -0.22953631600E+02  0.37737906095E+02  0.00000000000E+00 0.  1.
</event>
<event>
12    1  0.8417180E-002  0.2996810E+03  0.7818608E-02  0.1085484E+00
         21   -1    0    0  503  502  0.00000000000E+00  0.00000000000E+00  0.14314688928E+04  0.14314688928E+04  0.00000000000E+00 0. -1.
         21   -1    0    0  501  503 -0.00000000000E+00 -0.00000000000E+00 -0.64890742614E+02  0.64890742614E+02  0.00000000000E+00 0.  1.
          6    2    1    2  501    0 -0.21600799940E+03  0.11422053819E+03  0.82314851712E+03  0.87577568464E+03  0.17234785008E+03 0.  0.
         24    2    3    3    0    0 -0.75057355742E+02  0.74302733186E+02  0.23481200986E+03  0.26945691462E+03  0.79472297399E+02 0.  0.
         -6    2    1    2    0  502  0.21600799940E+03 -0.11422053819E+03  0.54342963308E+03  0.62058395078E+03  0.17350183490E+03 0.  0.
        -24    2    5    5    0    0  0.17153495348E+03 -0.12266696289E+02  0.34981091616E+03  0.39723951895E+03  0.76530034926E+02 0.  0.
          5    1    3    3  501    0 -0.14095064366E+03  0.39917805001E+02  0.58833650726E+03  0.60631877002E+03  0.47000000000E+01 0. -1.
        -13    1    4    4    0    0 -0.21003988704E+02 -0.16355984192E+02  0.48186146607E+02  0.55050799133E+02  0.00000000000E+00 0.  1.
         14    1    4    4    0    0 -0.54053367038E+02  0.90658717377E+02  0.18662586325E+03  0.21440611549E+03  0.00000000000E+00 0. -1.
         -5    1    5    5    0  502  0.44473045923E+02 -0.10195384190E+03  0.19361871692E+03  0.22334443184E+03  0.47000000000E+01 0.  1.
         11    1    6    6    0    0  0.24359503057E+02 -0.24650995167E+02  0.11253936259E+03  0.11775468180E+03  0.00000000000E+00 0. -1.
        -12    1    6    6    0    0  0.14717545042E+03  0.12384298878E+02  0.23727155357E+03  0.27948483715E+03  0.00000000000E+00 0.  1.
</event>
<event>
12    1  0.8417180E-002  0.2189113E+03  0.7818608E-02  0.1134799E+00
         21   -1    0    0  503  502  0.00000000000E+00  0.00000000000E+00  0.14507359892E+03  0.14507359892E+03  0.00000000000E+00 0.  1.
         21   -1    0    0  501  503 -0.00000000000E+00 -0.00000000000E+00 -0.12964524510E+04  0.12964524510E+04  0.00000000000E+00 0. -1.
          6    2    1    2  501    0  0.13374955915E+03 -0.19364569028E+02 -0.11983355266E+04  0.12181667372E+04  0.17221566182E+03 0.  0.
         24    2    3    3    0    0  0.10087203407E+03  0.49097562963E+02 -0.64062576804E+03  0.65528996562E+03  0.80111337697E+02 0.  0.
         -6    2    1    2    0  502 -0.13374955915E+03  0.19364569028E+02  0.46956674523E+02  0.22335931273E+03  0.17152411549E+03 0.  0.
        -24    2    5    5    0    0 -0.14228649173E+03  0.60199965265E+02  0.24892764568E+02  0.17593236969E+03  0.80393205137E+02 0.  0.
          5    1    3    3  501    0  0.32877525081E+02 -0.68462131991E+02 -0.55770975856E+03  0.56287677157E+03  0.47000000000E+01 0. -1.
        -13    1    4    4    0    0  0.57021922145E+02  0.56287237512E+02 -0.53083584755E+03  0.53684862834E+03  0.00000000000E+00 0.  1.
         14    1    4    4    0    0  0.43850111923E+02 -0.71896745487E+01 -0.10978992049E+03  0.11844133728E+03  0.00000000000E+00 0. -1.
         -5    1    5    5    0  502  0.85369325759E+01 -0.40835396237E+02  0.22063909956E+02  0.47426943041E+02  0.47000000000E+01 0.  1.
         13    1    6    6    0    0 -0.86748816053E+02  0.75006524527E+02  0.29060103988E+02  0.11830395366E+03  0.00000000000E+00 0. -1.
        -14    1    6    6    0    0 -0.55537675672E+02 -0.14806559262E+02 -0.41673394207E+01  0.57628416030E+02  0.00000000000E+00 0.  1.
</event>
<event>
12    1  0.8417180E-002  0.1773248E+03  0.7818608E-02  0.1170440E+00
         21   -1    0    0  501  502  0.00000000000E+00  0.00000000000E+00  0.12060708329E+04  0.12060708329E+04  0.00000000000E+00 0.  1.
         21   -1    0    0  502  503 -0.00000000000E+00 -0.00000000000E+00 -0.29681942385E+02  0.29681942385E+02  0.00000000000E+00 0.  1.
         -6    2    1    2    0  503 -0.86652852295E+01  0.40344534138E+02  0.37243771082E+03  0.41249717210E+03  0.17245666108E+03 0.  0.
        -24    2    3    3    0    0  0.61291676792E+02  0.24308547720E+02  0.16571775114E+03  0.19362195394E+03  0.75362542875E+02 0.  0.
          6    2    1    2  501    0  0.86652852295E+01 -0.40344534138E+02  0.80395117968E+03  0.82325560317E+03  0.17236449819E+03 0.  0.
         24    2    5    5    0    0  0.48467233964E+02  0.25296780642E+02  0.49275156807E+03  0.50269318242E+03  0.83110335923E+02 0.  0.
          5    1    5    5  501    0 -0.39801948735E+02 -0.65641314780E+02  0.31119961162E+03  0.32056242075E+03  0.47000000000E+01 0. -1.
        -13    1    6    6    0    0  0.16174844172E+02 -0.20354116641E+01  0.40446500946E+03  0.40479341937E+03  0.00000000000E+00 0.  1.
         14    1    6    6    0    0  0.32292389792E+02  0.27332192307E+02  0.88286558606E+02  0.97899763050E+02  0.00000000000E+00 0. -1.
         -5    1    3    3    0  503 -0.69956962021E+02  0.16035986418E+02  0.20671995968E+03  0.21887521816E+03  0.47000000000E+01 0.  1.
         13    1    4    4    0    0  0.48996632682E+02 -0.15525548913E+02  0.12584039641E+03  0.13593203468E+03  0.00000000000E+00 0. -1.
        -14    1    4    4    0    0  0.12295044110E+02  0.39834096633E+02  0.39877354733E+02  0.57689919265E+02  0.00000000000E+00 0.  1.
</event>
<event>
12    1  0.8417180E-002  0.1987621E+03  0.7818608E-02  0.1151877E+00
         21   -1    0    0  503  502  0.00000000000E+00  0.00000000000E+00  0.13615840485E+03  0.13615840485E+03  0.00000000000E+00 0.  1.
         21   -1    0    0  501  503 -0.00000000000E+00 -0.00000000000E+00 -0.86413078865E+03  0.86413078865E+03  0.00000000000E+00 0. -1.
          6    2    1    2  501    0 -0.74049923774E+02 -0.46771868922E+02 -0.77265426923E+03  0.79656669874E+03  0.17277987976E+03 0.  0.
         24    2    3    3    0    0  0.16273352212E+02 -0.66372103279E+01 -0.20916028246E+03  0.22445075933E+03  0.79506257935E+02 0.  0.
         -6    2    1    2    0  502  0.74049923774E+02  0.46771868922E+02  0.44681885428E+02  0.20372249476E+03  0.17842473218E+03 0.  0.
        -24    2    5    5    0    0  0.10329636823E+03 -0.89175760238E+01  0.94466816648E+01  0.13147100083E+03  0.80285250287E+02 0.  0.
          5    1    3    3  501    0 -0.90323275986E+02 -0.40134658594E+02 -0.56349398677E+03  0.57211593942E+03  0.47000000000E+01 0. -1.
        -13    1    4    4    0    0  0.29766195679E+02  0.21085780128E+02 -0.17357419080E+03  0.17736582603E+03  0.00000000000E+00 0.  1.
         14    1    4    4    0    0 -0.13492843466E+02 -0.27722990456E+02 -0.35586091655E+02  0.47084933300E+02  0.00000000000E+00 0. -1.
         -5    1    5    5    0  502 -0.29246444452E+02  0.55689444946E+02  0.35235203763E+02  0.72251493934E+02  0.47000000000E+01 0.  1.
         11    1    6    6    0    0 -0.32323534571E+01  0.19251813657E+01 -0.20052869435E+02  0.20402745030E+02  0.00000000000E+00 0. -1.
        -12    1    6    6    0    0  0.10652872168E+03 -0.10842757389E+02  0.29499551100E+02  0.11106825580E+03  0.00000000000E+00 0.  1.
</event>
<event>
12    1  0.8417180E-002  0.2355720E+03  0.7818608E-02  0.1123107E+00
         21   -1    0    0  503  502  0.00000000000E+00  0.00000000000E+00  0.84365730735E+02  0.84365730735E+02  0.00000000000E+00 0. -1.
         21   -1    0    0  501  503 -0.00000000000E+00 -0.00000000000E+00 -0.92569539436E+03  0.92569539436E+03  0.00000000000E+00 0. -1.
          6    2    1    2  501    0 -0.71725028099E+02  0.14036070086E+03 -0.69627030442E+03  0.73504182325E+03  0.17506724166E+03 0.  0.
         24    2    3    3    0    0 -0.97303493248E+01  0.43993071137E+01 -0.32510005340E+03  0.33489399303E+03  0.79686311533E+02 0.  0.
         -6    2    1    2    0  502  0.71725028099E+02 -0.14036070086E+03 -0.14505935920E+03  0.27501930185E+03  0.17247548433E+03 0.  0.
        -24    2    5    5    0    0  0.30070858730E+02  0.30062801620E+00 -0.67717194149E+02  0.10911396811E+03  0.80099267986E+02 0.  0.
          5    1    3    3  501    0 -0.61994678774E+02  0.13596139374E+03 -0.37117025102E+03  0.40014783022E+03  0.47000000000E+01 0. -1.
        -13    1    4    4    0    0 -0.15684336547E+02 -0.76626153957E+01 -0.32005028048E+03  0.32052596794E+03  0.00000000000E+00 0.  1.
         14    1    4    4    0    0  0.59539872225E+01  0.12061922509E+02 -0.50497729195E+01  0.14368025091E+02  0.00000000000E+00 0. -1.
         -5    1    5    5    0  502  0.41654169369E+02 -0.14066132887E+03 -0.77342165055E+02  0.16590533373E+03  0.47000000000E+01 0.  1.
         11    1    6    6    0    0  0.28987557891E+02  0.42964236159E+01  0.10243829191E+02  0.31043095929E+02  0.00000000000E+00 0. -1.
        -12    1    6    6    0    0  0.10833008388E+01 -0.39957955997E+01 -0.77961023340E+02  0.78070872183E+02  0.00000000000E+00 0.  1.
</event>
<event>
12    1  0.8417180E-002  0.1933442E+03  0.7818608E-02  0.1156259E+00
         21   -1    0    0  501  502  0.00000000000E+00  0.00000000000E+00  0.13241257400E+04  0.13241257400E+04  0.00000000000E+00 0. -1.
         21   -1    0    0  502  503 -0.00000000000E+00 -0.00000000000E+00 -0.53911943894E+02  0.53911943894E+02  0.00000000000E+00 0.  1.
         -6    2    1    2    0  503 -0.86733790668E+02  0.59900768010E+01  0.15190055264E+03  0.24313394801E+03  0.16876524322E+03 0.  0.
        -24    2    3    3    0    0 -0.26984795763E+02  0.34641539492E+02  0.15183735041E+03  0.17670396456E+03  0.79003130633E+02 0.  0.
          6    2    1    2  501    0  0.86733790668E+02 -0.59900768010E+01  0.11183132435E+04  0.11349037359E+04  0.17269437674E+03 0.  0.
         24    2    5    5    0    0  0.93686536040E+01 -0.89474867128E+01  0.89040898088E+03  0.89416206187E+03  0.80807242638E+02 0.  0.
          5    1    5    5  501    0  0.77365137064E+02  0.29574099119E+01  0.22790426263E+03  0.24074167406E+03  0.47000000000E+01 0. -1.
        -11    1    6    6    0    0 -0.93530375238E+01  0.33187060150E+02  0.30579090529E+03  0.30772867599E+03  0.00000000000E+00 0.  1.
         12    1    6    6    0    0  0.18721691128E+02 -0.42134546863E+02  0.58461807559E+03  0.58643338588E+03  0.00000000000E+00 0. -1.
         -5    1    3    3    0  503 -0.59748994904E+02 -0.28651462691E+02  0.63202228707E-01  0.66429983448E+02  0.47000000000E+01 0.  1.
         11    1    4    4    0    0 -0.16356673240E+02  0.14504205261E+02  0.15236757301E+03  0.15392787283E+03  0.00000000000E+00 0. -1.
        -12    1    4    4    0    0 -0.10628122523E+02  0.20137334231E+02 -0.53022259772E+00  0.22776091726E+02  0.00000000000E+00 0.  1.
</event>
<event>
12    1  0.8417180E-002  0.1810720E+03  0.7818608E-02  0.1167333E+00
         21   -1    0    0  501  502  0.00000000000E+00  0.00000000000E+00  0.22945841839E+03  0.22945841839E+03  0.00000000000E+00 0. -1.
         21   -1    0    0  502  503 -0.00000000000E+00 -0.00000000000E+00 -0.18252067178E+03  0.18252067178E+03  0.00000000000E+00 0. -1.
         -6    2    1    2    0  503 -0.51409519992E+02  0.31751724235E+02 -0.74592166042E+02  0.19583425268E+03  0.17069256736E+03 0.  0.
        -24    2    3    3    0    0 -0.97750208611E+01 -0.30395708120E+02  0.19301288347E+01  0.88719890995E+02  0.82752906631E+02 0.  0.
          6    2    1    2  501    0  0.51409519992E+02 -0.31751724235E+02  0.12152991266E+03  0.21614483749E+03  0.16821997612E+03 0.  0.
         24    2    5    5    0    0  0.82419213947E+02 -0.56991174195E+02  0.55305626485E+02  0.13864401793E+03  0.78246601357E+02 0.  0.
          5    1    5    5  501    0 -0.31009693955E+02  0.25239449960E+02  0.66224286171E+02  0.77500819559E+02  0.47000000000E+01 0. -1.
        -11    1    6    6    0    0  0.40808850753E+02 -0.46133796940E+02 -0.80034337837E+01  0.62110743613E+02  0.00000000000E+00 0.  1.
         12    1    6    6    0    0  0.41610363194E+02 -0.10857377255E+02  0.63309060268E+02  0.76533274320E+02  0.00000000000E+00 0. -1.
         -5    1    3    3    0  503 -0.41634499131E+02  0.62147432355E+02 -0.76522294877E+02  0.10711436169E+03  0.47000000000E+01 0.  1.
         11    1    4    4    0    0  0.25703551964E+02  0.16011194403E+02  0.43789289414E+00  0.30285684407E+02  0.00000000000E+00 0. -1.
        -12    1    4    4    0    0 -0.35478572826E+02 -0.46406902523E+02  0.14922359406E+01  0.58434206588E+02  0.00000000000E+00 0.  1.
</event>
<event>
12    1  0.8417180E-002  0.2183203E+03  0.7818608E-02  0.1135610E+00
         21   -1    0    0  501  502  0.00000000000E+00  0.00000000000E+00  0.40148531643E+03  0.40148531643E+03  0.00000000000E+00 0.  1.
         21   -1    0    0  502  503 -0.00000000000E+00 -0.00000000000E+00 -0.17289760564E+03  0.17289760564E+03  0.00000000000E+00 0.  1.
         -6    2    1    2    0  503  0.11251147025E+03  0.64217784162E+02 -0.48005146642E+02  0.22353573797E+03  0.17572984182E+03 0.  0.
        -24    2    3    3    0    0  0.73389782047E+02 -0.27315567342E+02  0.42637920712E+01  0.11100577361E+03  0.78561450622E+02 0.  0.
          6    2    1    2  501    0 -0.11251147025E+03 -0.64217784162E+02  0.27659285743E+03  0.35084718410E+03  0.17264814819E+03 0.  0.
         24    2    5    5    0    0 -0.18348234061E+02  0.17531440323E+02  0.15814725288E+03  0.17879747620E+03  0.79460523585E+02 0.  0.
          5    1    5    5  501    0 -0.94163236187E+02 -0.81749224485E+02  0.11844560455E+03  0.17204970790E+03  0.47000000000E+01 0. -1.
        -11    1    6    6    0    0 -0.15428634114E+02  0.15584703689E+02  0.16743701204E+03  0.16886704456E+03  0.00000000000E+00 0.  1.
         12    1    6    6    0    0 -0.29195999470E+01  0.19467366333E+01 -0.92897591540E+01  0.99304316376E+01  0.00000000000E+00 0. -1.
         -5    1    3    3    0  503  0.39121688200E+02  0.91533351504E+02 -0.52268938713E+02  0.11252996436E+03  0.47000000000E+01 0.  1.
         11    1    4    4    0    0  0.53428424992E+02 -0.37462504296E+02  0.34159370720E+02  0.73653909831E+02  0.00000000000E+00 0. -1.
        -12    1    4    4    0    0  0.19961357055E+02  0.10146936955E+02 -0.29895578649E+02  0.37351863779E+02  0.00000000000E+00 0.  1.
</event>
<event>
12    1  0.8417180E-002  0.2721730E+03  0.7818608E-02  0.1100653E+00
         21   -1    0    0  503  502  0.00000000000E+00  0.00000000000E+00  0.90669303594E+03  0.90669303594E+03  0.00000000000E+00 0.  1.
         21   -1    0    0  501  503 -0.00000000000E+00 -0.00000000000E+00 -0.90891525977E+02  0.90891525977E+02  0.00000000000E+00 0. -1.
          6    2    1    2  501    0  0.21075605941E+03 -0.17787985529E+02  0.23577636786E+03  0.35687611723E+03  0.16442487159E+03 0.  0.
         24    2    3    3    0    0  0.68365227547E+02 -0.22870768632E+00  0.16812935727E+03  0.19818873500E+03  0.79608022578E+02 0.  0.
         -6    2    1    2    0  502 -0.21075605941E+03  0.17787985529E+02  0.58002514210E+03  0.64070844469E+03  0.17129978581E+03 0.  0.
        -24    2    5    5    0    0 -0.65522443983E+02  0.75324019041E+02  0.28291575198E+03  0.30500131354E+03  0.54932504359E+02 0.  0.
          5    1    3    3  501    0  0.14239083187E+03 -0.17559277842E+02  0.67647010590E+02  0.15868738223E+03  0.47000000000E+01 0. -1.
        -11    1    4    4    0    0  0.65065788806E+02  0.31949140463E+02  0.11216290672E+03  0.13354707819E+03  0.00000000000E+00 0.  1.
         12    1    4    4    0    0  0.32994387415E+01 -0.32177848149E+02  0.55966450555E+02  0.64641656811E+02  0.00000000000E+00 0. -1.
         -5    1    5    5    0  502 -0.14523361543E+03 -0.57536033513E+02  0.29710939013E+03  0.33570713115E+03  0.47000000000E+01 0.  1.
         13    1    6    6    0    0 -0.45989147603E+02  0.30761166576E+02  0.86756271639E+02  0.10289753027E+03  0.00000000000E+00 0. -1.
        -14    1    6    6    0    0 -0.19533296380E+02  0.44562852465E+02  0.19615948034E+03  0.20210378327E+03  0.00000000000E+00 0.  1.
</event>
<event>
12    1  0.8417180E-002  0.1999529E+03  0.7818608E-02  0.1150969E+00
         21   -1    0    0  503  502  0.00000000000E+00  0.00000000000E+00  0.79412823279E+02  0.79412823279E+02  0.00000000000E+00 0.  1.
         21   -1    0    0  501  503 -0.00000000000E+00 -0.00000000000E+00 -0.50693093853E+03  0.50693093853E+03  0.00000000000E+00 0.  1.
          6    2    1    2  501    0 -0.62353599467E+02 -0.75348948426E+02 -0.15660264855E+03  0.24962970512E+03  0.16800346647E+03 0.  0.
         24    2    3    3    0    0  0.22640378885E+02 -0.53435198175E+02 -0.11854730226E+03  0.15384615649E+03  0.79039672530E+02 0.  0.
         -6    2    1    2    0  502  0.62353599467E+02  0.75348948426E+02 -0.27091546670E+03  0.33671405669E+03  0.17440106216E+03 0.  0.
        -24    2    5    5    0    0  0.58432794016E+02 -0.11738626144E+02 -0.20252982526E+03  0.22581633663E+03  0.80140507917E+02 0.  0.
          5    1    3    3  501    0 -0.84993978353E+02 -0.21913750251E+02 -0.38055346295E+02  0.95783548629E+02  0.47000000000E+01 0. -1.
        -11    1    4    4    0    0  0.21856703332E+02 -0.63253714151E+02 -0.12519734318E+03  0.14196169404E+03  0.00000000000E+00 0.  1.
         12    1    4    4    0    0  0.78367555307E+00  0.98185159767E+01  0.66500409262E+01  0.11884462448E+02  0.00000000000E+00 0. -1.
         -5    1    5    5    0  502  0.39208054514E+01  0.87087574569E+02 -0.68385641436E+02  0.11089772006E+03  0.47000000000E+01 0.  1.
         11    1    6    6    0    0  0.15366829243E+02 -0.42211630235E+02 -0.11696320813E+03  0.12529306934E+03  0.00000000000E+00 0. -1.
        -12    1    6    6    0    0  0.43065964773E+02  0.30473004091E+02 -0.85566617131E+02  0.10052326729E+03  0.00000000000E+00 0.  1.
</event>
<event>
12    1  0.8417180E-002  0.1856657E+03  0.7818608E-02  0.1162575E+00
         21   -1    0    0  501  502  0.00000000000E+00  0.00000000000E+00  0.28119134783E+03  0.28119134783E+03  0.00000000000E+00 0. -1.
         21   -1    0    0  502  503 -0.00000000000E+00 -0.00000000000E+00 -0.14037748647E+03  0.14037748647E+03  0.00000000000E+00 0. -1.
         -6    2    1    2    0  503 -0.41847178053E+02 -0.55533564481E+02 -0.53838689072E+01  0.18574375437E+03  0.17215281916E+03 0.  0.
        -24    2    3    3    0    0 -0.16196569695E+02 -0.57675486688E+02 -0.59009121401E+02  0.12607551118E+03  0.93937039959E+02 0.  0.
          6    2    1    2  501    0  0.41847178053E+02  0.55533564481E+02  0.14619773026E+03  0.23582507993E+03  0.17147748802E+03 0.  0.
         24    2    5    5    0    0  0.15897523322E+02  0.65081287255E+01  0.15837635499E+03  0.17884010970E+03  0.81275014800E+02 0.  0.
          5    1    5    5  501    0  0.25949654731E+02  0.49025435755E+02 -0.12178624730E+02  0.56984970229E+02  0.47000000000E+01 0. -1.
        -13    1    6    6    0    0 -0.18358313286E+02  0.77627024923E+01  0.13699981937E+03  0.13844218188E+03  0.00000000000E+00 0.  1.
         14    1    6    6    0    0  0.34255836608E+02 -0.12545737668E+01  0.21376535621E+02  0.40397927821E+02  0.00000000000E+00 0. -1.
         -5    1    3    3    0  503 -0.25650608358E+02  0.21419222076E+01  0.53625252493E+02  0.59668243186E+02  0.47000000000E+01 0.  1.
         11    1    4    4    0    0 -0.49779581907E+02 -0.42217310951E+02 -0.12156391172E+02  0.66393418085E+02  0.00000000000E+00 0. -1.
        -12    1    4    4    0    0  0.33583012211E+02 -0.15458175738E+02 -0.46852730228E+02  0.59682093095E+02  0.00000000000E+00 0.  1.
</event>
<event>
12    1  0.8417180E-002  0.1883165E+03  0.7818608E-02  0.1160162E+00
         21   -1    0    0  501  502  0.00000000000E+00  0.00000000000E+00  0.88930195369E+02  0.88930195369E+02  0.00000000000E+00 0.  1.
         21   -1    0    0  502  503 -0.00000000000E+00 -0.00000000000E+00 -0.62588668884E+03  0.62588668884E+03  0.00000000000E+00 0.  1.
         -6    2    1    2    0  503 -0.66165257207E+02  0.36550318253E+02 -0.48418964408E+03  0.51924731223E+03  0.17165195250E+03 0.  0.
        -24    2    3    3    0    0  0.31455132315E+02  0.11190892829E+02 -0.25457872928E+03  0.26841648656E+03  0.78245890794E+02 0.  0.
          6    2    1    2  501    0  0.66165257207E+02 -0.36550318253E+02 -0.52766849389E+02  0.19556957198E+03  0.17247999903E+03 0.  0.
         24    2    5    5    0    0 -0.86682506846E+01  0.26382720664E+02 -0.37355358626E+01  0.86085413322E+02  0.81397528459E+02 0.  0.
          5    1    5    5  501    0  0.74833507892E+02 -0.62933038916E+02 -0.49031313526E+02  0.10948415866E+03  0.47000000000E+01 0. -1.
        -11    1    6    6    0    0 -0.38816906903E+02 -0.86637037074E+01 -0.13978199169E+01  0.39796556685E+02  0.00000000000E+00 0.  1.
         12    1    6    6    0    0  0.30148656218E+02  0.35046424371E+02 -0.23377159457E+01  0.46288856638E+02  0.00000000000E+00 0. -1.
         -5    1    3    3    0  503 -0.97620389522E+02  0.25359425423E+02 -0.22961091480E+03  0.25083082566E+03  0.47000000000E+01 0.  1.
         13    1    4    4    0    0  0.24246778918E+02 -0.20437372341E+02 -0.38325315230E+02  0.49743565047E+02  0.00000000000E+00 0. -1.
        -14    1    4    4    0    0  0.72083533974E+01  0.31628265171E+02 -0.21625341405E+03  0.21867292152E+03  0.00000000000E+00 0.  1.
</event>
<event>
12    1  0.8417180E-002  0.1798868E+03  0.7818608E-02  0.1168073E+00
         21   -1    0    0  501  502  0.00000000000E+00  0.00000000000E+00  0.30250792854E+03  0.30250792854E+03  0.00000000000E+00 0.  1.
         21   -1    0    0  502  503 -0.00000000000E+00 -0.00000000000E+00 -0.10964074528E+03  0.10964074528E+03  0.00000000000E+00 0.  1.
         -6    2    1    2    0  503  0.51751055289E+02 -0.15673645850E+02  0.61817889126E+02  0.18958818011E+03  0.17087536898E+03 0.  0.
        -24    2    3    3    0    0  0.50535703511E+02 -0.30397690916E+02  0.10447939540E+03  0.14419689570E+03  0.79993272988E+02 0.  0.
          6    2    1    2  501    0 -0.51751055289E+02  0.15673645850E+02  0.13104929414E+03  0.22256049370E+03  0.17156754054E+03 0.  0.
         24    2    5    5    0    0 -0.87692325868E+02  0.48946207346E+02  0.72768871661E+02  0.14628772056E+03  0.77582944476E+02 0.  0.
          5    1    5    5  501    0  0.35941270579E+02 -0.33272561496E+02  0.58280422475E+02  0.76272773145E+02  0.47000000000E+01 0. -1.
        -13    1    6    6    0    0 -0.43016996338E+02  0.54827093569E+02  0.73413198810E+02  0.10122237857E+03  0.00000000000E+00 0.  1.
         14    1    6    6    0    0 -0.44675329530E+02 -0.58808862230E+01 -0.64432714836E+00  0.45065341992E+02  0.00000000000E+00 0. -1.
         -5    1    3    3    0  503  0.12153517777E+01  0.14724045066E+02 -0.42661506276E+02  0.45391284414E+02  0.47000000000E+01 0.  1.
         13    1    4    4    0    0  0.77312926921E+01  0.21744982071E+02  0.43859320133E+01  0.23491562988E+02  0.00000000000E+00 0. -1.
        -14    1    4    4    0    0  0.42804410819E+02 -0.52142672987E+02  0.10009346339E+03  0.12070533271E+03  0.00000000000E+00 0.  1.
</event>
<event>
12    1  0.8417180E-002  0.2681962E+03  0.7818608E-02  0.1102631E+00
         21   -1    0    0  501  502  0.00000000000E+00  0.00000000000E+00  0.20419471804E+04  0.20419471804E+04  0.00000000000E+00 0.  1.
         21   -1    0    0  502  503 -0.00000000000E+00 -0.00000000000E+00 -0.12056162315E+03  0.12056162315E+03  0.00000000000E+00 0. -1.
         -6    2    1    2    0  503 -0.19398092960E+03 -0.60507765740E+02  0.50630468157E+02  0.27293336673E+03  0.17504110262E+03 0.  0.
        -24    2    3    3    0    0 -0.21530143218E+03 -0.51682425398E+02  0.67887183119E+02  0.24373859539E+03  0.75987192716E+02 0.  0.
          6    2    1    2  501    0  0.19398092960E+03  0.60507765740E+02  0.18707550891E+04  0.18895754368E+04  0.17170013765E+03 0.  0.
         24    2    5    5    0    0  0.11644704969E+03  0.63226458177E+02  0.16173801514E+04  0.16245474328E+04  0.75354542724E+02 0.  0.
          5    1    5    5  501    0  0.77533879912E+02 -0.27186924370E+01  0.25337493775E+03  0.26502800400E+03  0.47000000000E+01 0. -1.
        -11    1    6    6    0    0  0.69645602133E+02  0.23422714385E+02  0.48836463401E+03  0.49386146762E+03  0.00000000000E+00 0.  1.
         12    1    6    6    0    0  0.46801447555E+02  0.39803743791E+02  0.11290155174E+04  0.11306859652E+04  0.00000000000E+00 0. -1.
         -5    1    3    3    0  503  0.21320502582E+02 -0.88253403415E+01 -0.17256714962E+02  0.29194771343E+02  0.47000000000E+01 0.  1.
         13    1    4    4    0    0 -0.14985518746E+03  0.13022353542E+01  0.45245149162E+02  0.15654199612E+03  0.00000000000E+00 0. -1.
        -14    1    4    4    0    0 -0.65446244721E+02 -0.52984660752E+02  0.22642033956E+02  0.87196599273E+02  0.00000000000E+00 0.  1.
</event>
<event>
12    1  0.8417180E-002  0.2151317E+03  0.7818608E-02  0.1138220E+00
         21   -1    0    0  503  502  0.00000000000E+00  0.00000000000E+00  0.23194433344E+03  0.23194433344E+03  0.00000000000E+00 0. -1.
         21   -1    0    0  501  503 -0.00000000000E+00 -0.00000000000E+00 -0.24007637034E+03  0.24007637034E+03  0.00000000000E+00 0.  1.
          6    2    1    2  501    0 -0.11451221262E+03  0.49817455808E+02 -0.10468755311E+03  0.23621441130E+03  0.17100566829E+03 0.  0.
         24    2    3    3    0    0 -0.12057897317E+03  0.73158544202E+02 -0.31821142599E+02  0.15931697460E+03  0.66916753633E+02 0.  0.
         -6    2    1    2    0  502  0.11451221262E+03 -0.49817455808E+02  0.96555516210E+02  0.23580629249E+03  0.17517652275E+03 0.  0.
        -24    2    5    5    0    0  0.67613392951E+02 -0.39656627219E+02 -0.16437367955E+02  0.11295588103E+03  0.79653154389E+02 0.  0.
          5    1    3    3  501    0  0.60667605493E+01 -0.23341088394E+02 -0.72866410512E+02  0.76897436706E+02  0.47000000000E+01 0. -1.
        -11    1    4    4    0    0 -0.59765282001E+02  0.54986438611E+02 -0.47305004112E+02  0.93984896542E+02  0.00000000000E+00 0.  1.
         12    1    4    4    0    0 -0.60813691171E+02  0.18172105590E+02  0.15483861513E+02  0.65332078054E+02  0.00000000000E+00 0. -1.
         -5    1    5    5    0  502  0.46898819672E+02 -0.10160828589E+02  0.11299288416E+03  0.12285041146E+03  0.47000000000E+01 0.  1.
         13    1    6    6    0    0  0.50581735646E+02  0.13034948921E+02  0.72340190447E+01  0.52732844659E+02  0.00000000000E+00 0. -1.
        -14    1    6    6    0    0  0.17031657306E+02 -0.52691576140E+02 -0.23671387000E+02  0.60223036366E+02  0.00000000000E+00 0.  1.
</event>
<event>
12    1  0.8417180E-002  0.1753726E+03  0.7818608E-02  0.1172596E+00
         21   -1    0    0  501  502  0.00000000000E+00  0.00000000000E+00  0.33881205793E+03  0.33881205793E+03  0.00000000000E+00 0.  1.
         21   -1    0    0  502  503 -0.00000000000E+00 -0.00000000000E+00 -0.95987129142E+02  0.95987129142E+02  0.00000000000E+00 0.  1.
         -6    2    1    2    0  503  0.21811523739E+02 -0.21022191913E+02  0.17409283365E+03  0.24643874783E+03  0.17177329997E+03 0.  0.
        -24    2    3    3    0    0  0.39471777173E+02  0.49836013317E+02  0.10065872118E+03  0.14276894184E+03  0.78798116653E+02 0.  0.
          6    2    1    2  501    0 -0.21811523739E+02  0.21022191913E+02  0.68732095137E+02  0.18836043924E+03  0.17273644389E+03 0.  0.
         24    2    5    5    0    0  0.42479946611E+01  0.73638753840E+02  0.14384772288E+02  0.10821480562E+03  0.77864054319E+02 0.  0.
          5    1    5    5  501    0 -0.26059518400E+02 -0.52616561927E+02  0.54347322849E+02  0.80145633625E+02  0.47000000000E+01 0. -1.
        -11    1    6    6    0    0  0.79857905263E+01  0.46681668444E+02  0.46327270075E+02  0.66250788460E+02  0.00000000000E+00 0.  1.
         12    1    6    6    0    0 -0.37377958652E+01  0.26957085396E+02 -0.31942497787E+02  0.41964017156E+02  0.00000000000E+00 0. -1.
         -5    1    3    3    0  503 -0.17660253434E+02 -0.70858205230E+02  0.73434112471E+02  0.10366980599E+03  0.47000000000E+01 0.  1.
         13    1    4    4    0    0  0.12237248771E+02  0.55293508168E+02  0.10007422277E+03  0.11498683562E+03  0.00000000000E+00 0. -1.
        -14    1    4    4    0    0  0.27234528402E+02 -0.54574948514E+01  0.58449840354E+00  0.27782106214E+02  0.00000000000E+00 0.  1.
</event>
<event>
12    1  0.8417180E-002  0.2461272E+03  0.7818608E-02  0.1115917E+00
         21   -1    0    0  501  502  0.00000000000E+00  0.00000000000E+00  0.85981812624E+03  0.85981812624E+03  0.00000000000E+00 0. -1.
         21   -1    0    0  502  503 -0.00000000000E+00 -0.00000000000E+00 -0.52264331905E+03  0.52264331905E+03  0.00000000000E+00 0. -1.
         -6    2    1    2    0  503 -0.25928917967E+02 -0.17256562347E+03 -0.47450304097E+03  0.53453881010E+03  0.17357246445E+03 0.  0.
        -24    2    3    3    0    0 -0.30698131393E+02 -0.68601219733E+02 -0.37683282154E+03  0.39173508324E+03  0.76189877470E+02 0.  0.
          6    2    1    2  501    0  0.25928917967E+02  0.17256562347E+03  0.81167784817E+03  0.84792263519E+03  0.17233880258E+03 0.  0.
         24    2    5    5    0    0 -0.48492717230E+02  0.74846346390E+02  0.41198594039E+03  0.42975598415E+03  0.83691526716E+02 0.  0.
          5    1    5    5  501    0  0.74421635196E+02  0.97719277079E+02  0.39969190778E+03  0.41816665104E+03  0.47000000000E+01 0. -1.
        -13    1    6    6    0    0 -0.53718377420E+01  0.71205884994E+02  0.17776981989E+03  0.19157568625E+03  0.00000000000E+00 0.  1.
         14    1    6    6    0    0 -0.43120879488E+02  0.36404613962E+01  0.23421612050E+03  0.23818029790E+03  0.00000000000E+00 0. -1.
         -5    1    3    3    0  503  0.47692134265E+01 -0.10396440374E+03 -0.97670219435E+02  0.14280372686E+03  0.47000000000E+01 0.  1.
         11    1    4    4    0    0  0.10984090355E+02 -0.36064685169E+02 -0.26906843973E+03  0.27169677403E+03  0.00000000000E+00 0. -1.
        -12    1    4    4    0    0 -0.41682221749E+02 -0.32536534564E+02 -0.10776438181E+03  0.12003830921E+03  0.00000000000E+00 0.  1.
</event>
<event>
12    1  0.8417180E-002  0.2064859E+03  0.7818608E-02  0.1146371E+00
         21   -1    0    0  503  502  0.00000000000E+00  0.00000000000E+00  0.45927184556E+03  0.45927184556E+03  0.00000000000E+00 0.  1.
         21   -1    0    0  501  503 -0.00000000000E+00 -0.00000000000E+00 -0.22651489332E+03  0.22651489332E+03  0.00000000000E+00 0.  1.
          6    2    1    2  501    0  0.41538018039E+02  0.92242853641E+02 -0.15225867668E+03  0.24889606382E+03  0.16891534854E+03 0.  0.
         24    2    3    3    0    0  0.74927670657E+02  0.11108465410E+03 -0.10520969271E+03  0.18802259473E+03  0.79557906469E+02 0.  0.
         -6    2    1    2    0  502 -0.41538018039E+02 -0.92242853641E+02  0.38501562893E+03  0.43689067506E+03  0.18000632333E+03 0.  0.
        -24    2    5    5    0    0 -0.16704553822E+02 -0.28418927981E+02  0.59569912033E+02  0.10428400182E+03  0.78993044193E+02 0.  0.
          5    1    3    3  501    0 -0.33389652618E+02 -0.18841800460E+02 -0.47048983978E+02  0.60873469097E+02  0.47000000000E+01 0. -1.
        -11    1    4    4    0    0 -0.77784358374E+01  0.55811169174E+02 -0.37334500630E+02  0.67596269172E+02  0.00000000000E+00 0.  1.
         12    1    4    4    0    0  0.82706106494E+02  0.55273484927E+02 -0.67875192076E+02  0.12042632556E+03  0.00000000000E+00 0. -1.
         -5    1    5    5    0  502 -0.24833464217E+02 -0.63823925660E+02  0.32544571690E+03  0.33260667323E+03  0.47000000000E+01 0.  1.
         11    1    6    6    0    0 -0.25333996198E+02  0.17539228696E+02  0.46407714184E+02  0.55705581789E+02  0.00000000000E+00 0. -1.
        -12    1    6    6    0    0  0.86294423763E+01 -0.45958156678E+02  0.13162197849E+02  0.48578420036E+02  0.00000000000E+00 0.  1.
</event>
<event>
12    1  0.8417180E-002  0.1766161E+03  0.7818608E-02  0.1171722E+00
         21   -1    0    0  503  502  0.00000000000E+00  0.00000000000E+00  0.10675087956E+03  0.10675087956E+03  0.00000000000E+00 0.  1.
         21   -1    0    0  501  503 -0.00000000000E+00 -0.00000000000E+00 -0.37514111668E+03  0.37514111668E+03  0.00000000000E+00 0.  1.
          6    2    1    2  501    0 -0.26251297912E+01  0.29874339004E+02 -0.25087843402E+03  0.30681138428E+03  0.17405134136E+03 0.  0.
         24    2    3    3    0    0 -0.44803432936E+01  0.80678303139E+02 -0.21746081842E+03  0.24579243951E+03  0.81213630002E+02 0.  0.
         -6    2    1    2    0  502  0.26251297912E+01 -0.29874339004E+02 -0.17511803094E+02  0.17508061195E+03  0.17160183564E+03 0.  0.
        -24    2    5    5    0    0 -0.15990237537E+02 -0.80369279209E+02 -0.32135278839E+02  0.11911448889E+03  0.80253825960E+02 0.  0.
          5    1    3    3  501    0  0.18552135025E+01 -0.50803964134E+02 -0.33417615605E+02  0.61018944776E+02  0.47000000000E+01 0. -1.
        -11    1    4    4    0    0 -0.27510412371E+02  0.80524624042E+02 -0.19846586773E+03  0.21593920098E+03  0.00000000000E+00 0.  1.
         12    1    4    4    0    0  0.23030069077E+02  0.15367909626E+00 -0.18994950693E+02  0.29853238531E+02  0.00000000000E+00 0. -1.
         -5    1    5    5    0  502  0.18615367329E+02  0.50494940205E+02  0.14623475745E+02  0.55966123056E+02  0.47000000000E+01 0.  1.
         13    1    6    6    0    0 -0.20444020202E+02 -0.82965343700E+01 -0.40802756503E+02  0.46385939495E+02  0.00000000000E+00 0. -1.
        -14    1    6    6    0    0  0.44537826650E+01 -0.72072744839E+02  0.86674776636E+01  0.72728549399E+02  0.00000000000E+00 0.  1.
</event>
<event>
12    1  0.8417180E-002  0.1740516E+03  0.7818608E-02  0.1173735E+00
         21   -1    0    0  501  502  0.00000000000E+00  0.00000000000E+00  0.54640884995E+02  0.54640884995E+02  0.00000000000E+00 0.  1.
         21   -1    0    0  502  503 -0.00000000000E+00 -0.00000000000E+00 -0.11074379896E+04  0.11074379896E+04  0.00000000000E+00 0.  1.
         -6    2    1    2    0  503  0.38388522187E+01 -0.26110288849E+02 -0.93736056009E+03  0.95338280912E+03  0.17203917328E+03 0.  0.
        -24    2    3    3    0    0 -0.45150043467E+02 -0.49091804048E+02 -0.75374602645E+03  0.76190317860E+03  0.88965440022E+02 0.  0.
          6    2    1    2  501    0 -0.38388522187E+01  0.26110288849E+02 -0.11543654448E+03  0.20869606543E+03  0.17184867750E+03 0.  0.
         24    2    5    5    0    0  0.33265489318E+02  0.39641709974E+02 -0.10930600848E+02  0.96877400750E+02  0.81164615394E+02 0.  0.
          5    1    5    5  501    0 -0.37104341536E+02 -0.13531421124E+02 -0.10450594363E+03  0.11181866468E+03  0.47000000000E+01 0. -1.
        -11    1    6    6    0    0  0.16196176707E+02  0.11316410873E+02  0.35052241402E+02  0.40237257887E+02  0.00000000000E+00 0.  1.
         12    1    6    6    0    0  0.17069312610E+02  0.28325299101E+02 -0.45982842250E+02  0.56640142863E+02  0.00000000000E+00 0. -1.
         -5    1    3    3    0  503  0.48988895686E+02  0.22981515199E+02 -0.18361453364E+03  0.19147963052E+03  0.47000000000E+01 0.  1.
         11    1    4    4    0    0  0.22881457515E+02 -0.34329624349E+02 -0.25311720253E+03  0.25645740859E+03  0.00000000000E+00 0. -1.
        -12    1    4    4    0    0 -0.68031500982E+02 -0.14762179698E+02 -0.50062882393E+03  0.50544577001E+03  0.00000000000E+00 0.  1.
</event>
<event>
12    1  0.8417180E-002  0.2062190E+03  0.7818608E-02  0.1144740E+00
         21   -1    0    0  501  502  0.00000000000E+00  0.00000000000E+00  0.60413309141E+02  0.60413309141E+02  0.00000000000E+00 0.  1.
         21   -1    0    0  502  503 -0.00000000000E+00 -0.00000000000E+00 -0.82327872842E+03  0.82327872842E+03  0.00000000000E+00 0. -1.
         -6    2    1    2    0  503 -0.11176433732E+03 -0.21613245442E+02 -0.55192708627E+03  0.58919418425E+03  0.17195312942E+03 0.  0.
        -24    2    3    3    0    0 -0.62398306581E+02 -0.71594473679E+02 -0.24750401798E+03  0.27673519065E+03  0.79402830595E+02 0.  0.
          6    2    1    2  501    0  0.11176433732E+03  0.21613245442E+02 -0.21093833301E+03  0.29449785331E+03  0.17110115663E+03 0.  0.
         24    2    5    5    0    0  0.10301749987E+03 -0.38815532976E+02 -0.10229282053E+03  0.16978184869E+03  0.79011417747E+02 0.  0.
          5    1    5    5  501    0  0.87468374532E+01  0.60428778418E+02 -0.10864551248E+03  0.12471600462E+03  0.47000000000E+01 0. -1.
        -13    1    6    6    0    0  0.90052871562E+02 -0.60631325023E+02 -0.92344046833E+02  0.14252403389E+03  0.00000000000E+00 0.  1.
         14    1    6    6    0    0  0.12964628306E+02  0.21815792047E+02 -0.99487736929E+01  0.27257814801E+02  0.00000000000E+00 0. -1.
         -5    1    3    3    0  503 -0.49366030740E+02  0.49981228237E+02 -0.30442306829E+03  0.31245899359E+03  0.47000000000E+01 0.  1.
         11    1    4    4    0    0 -0.55535815068E+02 -0.38175748815E+01 -0.11162893194E+03  0.12473900384E+03  0.00000000000E+00 0. -1.
        -12    1    4    4    0    0 -0.68624915132E+01 -0.67776898797E+02 -0.13587508604E+03  0.15199618681E+03  0.00000000000E+00 0.  1.
</event>
<event>
12    1  0.8417180E-002  0.1809933E+03  0.7818608E-02  0.1166877E+00
         21   -1    0    0  503  502  0.00000000000E+00  0.00000000000E+00  0.94459563849E+02  0.94459563849E+02  0.00000000000E+00 0. -1.
         21   -1    0    0  501  503 -0.00000000000E+00 -0.00000000000E+00 -0.37426690850E+03  0.37426690850E+03  0.00000000000E+00 0. -1.
          6    2    1    2  501    0  0.42803876492E+02  0.38762899643E+02 -0.20364225882E+03  0.27236021575E+03  0.17139189980E+03 0.  0.
         24    2    3    3    0    0  0.56193901858E+02 -0.33647327618E+02 -0.84744724853E+02  0.13242720544E+03  0.77880672113E+02 0.  0.
         -6    2    1    2    0  502 -0.42803876492E+02 -0.38762899643E+02 -0.76165085832E+02  0.19636625660E+03  0.17153382232E+03 0.  0.
        -24    2    5    5    0    0 -0.22606223156E+02  0.43829168859E+02 -0.59503409428E+02  0.10959589046E+03  0.77708211296E+02 0.  0.
          5    1    3    3  501    0 -0.13390025366E+02  0.72410227261E+02 -0.11889753397E+03  0.13993301031E+03  0.47000000000E+01 0. -1.
        -13    1    4    4    0    0  0.12317276428E+02 -0.13911072531E+02  0.13545588494E+02  0.22993829720E+02  0.00000000000E+00 0.  1.
         14    1    4    4    0    0  0.43876625430E+02 -0.19736255087E+02 -0.98290313346E+02  0.10943337572E+03  0.00000000000E+00 0. -1.
         -5    1    5    5    0  502 -0.20197653336E+02 -0.82592068502E+02 -0.16661676403E+02  0.86770366141E+02  0.47000000000E+01 0.  1.
         11    1    6    6    0    0 -0.16774320910E+02 -0.18922757188E+02 -0.39696630430E+01  0.25597007760E+02  0.00000000000E+00 0. -1.
        -12    1    6    6    0    0 -0.58319022469E+01  0.62751926047E+02 -0.55533746385E+02  0.83998882695E+02  0.00000000000E+00 0.  1.
</event>
<event>
12    1  0.8417180E-002  0.2062180E+03  0.7818608E-02  0.1145803E+00
         21   -1    0    0  503  502  0.00000000000E+00  0.00000000000E+00  0.21116302043E+04  0.21116302043E+04  0.00000000000E+00 0. -1.
         21   -1    0    0  501  503 -0.00000000000E+00 -0.00000000000E+00 -0.25967690439E+02  0.25967690439E+02  0.00000000000E+00 0.  1.
          6    2    1    2  501    0 -0.88994829247E+02 -0.54164019614E+02  0.15619470797E+04  0.15747447090E+04  0.17113853445E+03 0.  0.
         24    2    3    3    0    0 -0.27191114430E+02 -0.26856069438E+02  0.35778399432E+03  0.36867827236E+03  0.80334779205E+02 0.  0.
         -6    2    1    2    0  502  0.88994829247E+02  0.54164019614E+02  0.52371543414E+03  0.56285318576E+03  0.17796637914E+03 0.  0.
        -24    2    5    5    0    0  0.20305931976E+02  0.64843789140E+02  0.43846241910E+03  0.45275146615E+03  0.90097443244E+02 0.  0.
          5    1    3    3  501    0 -0.61803714817E+02 -0.27307950175E+02  0.12041630854E+04  0.12060664366E+04  0.47000000000E+01 0. -1.
        -13    1    4    4    0    0 -0.50946548349E+02 -0.12504780498E+02  0.14709887048E+03  0.15617297468E+03  0.00000000000E+00 0.  1.
         14    1    4    4    0    0  0.23755433919E+02 -0.14351288941E+02  0.21068512384E+03  0.21250529768E+03  0.00000000000E+00 0. -1.
         -5    1    5    5    0  502  0.68688897271E+02 -0.10679769526E+02  0.85253015047E+02  0.11010171961E+03  0.47000000000E+01 0.  1.
         13    1    6    6    0    0  0.26722076346E+02 -0.14127229967E+02  0.77283899162E+02  0.82984631471E+02  0.00000000000E+00 0. -1.
        -14    1    6    6    0    0 -0.64161443700E+01  0.78971019106E+02  0.36117851993E+03  0.36976683468E+03  0.00000000000E+00 0.  1.
</event>
<event>
12    1  0.8417180E-002  0.1804366E+03  0.7818608E-02  0.1168040E+00
         21   -1    0    0  501  502  0.00000000000E+00  0.00000000000E+00  0.29694305221E+03  0.29694305221E+03  0.00000000000E+00 0.  1.
         21   -1    0    0  502  503 -0.00000000000E+00 -0.00000000000E+00 -0.11173842656E+03  0.11173842656E+03  0.00000000000E+00 0.  1.
         -6    2    1    2    0  503  0.52100056237E+02  0.77367958308E+01  0.12928880742E+03  0.21977953802E+03  0.16974444244E+03 0.  0.
        -24    2    3    3    0    0  0.73233021773E+02 -0.33061006213E+02  0.41706246283E+02  0.12076510524E+03  0.79929306610E+02 0.  0.
          6    2    1    2  501    0 -0.52100056237E+02 -0.77367958308E+01  0.55915818231E+02  0.18890194076E+03  0.17257778137E+03 0.  0.
         24    2    5    5    0    0  0.21446232232E+02 -0.32104936195E+02  0.66339159805E+02  0.11058464470E+03  0.79607862138E+02 0.  0.
          5    1    5    5  501    0 -0.73546288468E+02  0.24368140364E+02 -0.10423341574E+02  0.78317296058E+02  0.47000000000E+01 0. -1.
        -13    1    6    6    0    0  0.18485697310E+02 -0.22294559972E+02 -0.12166331596E+02  0.31413182486E+02  0.00000000000E+00 0.  1.
         14    1    6    6    0    0  0.29605349221E+01 -0.98103762230E+01  0.78505491401E+02  0.79171462212E+02  0.00000000000E+00 0. -1.
         -5    1    3    3    0  503 -0.21132965536E+02  0.40797802043E+02  0.87582561135E+02  0.99014432781E+02  0.47000000000E+01 0.  1.
         11    1    4    4    0    0  0.47866235403E+02  0.21926847601E+02  0.22268137671E+02  0.57164963856E+02  0.00000000000E+00 0. -1.
        -12    1    4    4    0    0  0.25366786370E+02 -0.54987853813E+02  0.19438108611E+02  0.63600141384E+02  0.00000000000E+00 0.  1.
</event>
<event>
12    1  0.8417180E-002  0.2434778E+03  0.7818608E-02  0.1117807E+00
         21   -1    0    0  503  502  0.00000000000E+00  0.00000000000E+00  0.12036575831E+04  0.12036575831E+04  0.00000000000E+00 0. -1.
         21   -1    0    0  501  503 -0.00000000000E+00 -0.00000000000E+00 -0.55067634500E+02  0.55067634500E+02  0.00000000000E+00 0.  1.
          6    2    1    2  501    0 -0.15709452767E+03 -0.65592704219E+02  0.36514926847E+03  0.43887972813E+03  0.17406991133E+03 0.  0.
         24    2    3    3    0    0 -0.11532033445E+02 -0.40390806436E+02  0.16925543209E+03  0.19348196834E+03  0.83806119964E+02 0.  0.
         -6    2    1    2    0  502  0.15709452767E+03  0.65592704219E+02  0.78344068014E+03  0.81984548948E+03  0.17142413438E+03 0.  0.
        -24    2    5    5    0    0  0.68724388026E+02 -0.71589104877E+01  0.20198692258E+03  0.22721352847E+03  0.77800894074E+02 0.  0.
          5    1    3    3  501    0 -0.14556249422E+03 -0.25201897783E+02  0.19589383638E+03  0.24539775979E+03  0.47000000000E+01 0. -1.
        -13    1    4    4    0    0  0.27181965823E+02  0.24344058241E+01  0.21162656263E+02  0.34534672690E+02  0.00000000000E+00 0.  1.
         14    1    4    4    0    0 -0.38713999268E+02 -0.42825212260E+02  0.14809277582E+03  0.15894729565E+03  0.00000000000E+00 0. -1.
         -5    1    5    5    0  502  0.88370139644E+02  0.72751614707E+02  0.58145375756E+03  0.59263196101E+03  0.47000000000E+01 0.  1.
         11    1    6    6    0    0  0.20037391333E+02 -0.94953408976E+01  0.16379800090E+03  0.16529199512E+03  0.00000000000E+00 0. -1.
        -12    1    6    6    0    0  0.48686996692E+02  0.23364304099E+01  0.38188921673E+02  0.61921533351E+02  0.00000000000E+00 0.  1.
</event>
<event>
12    1  0.8417180E-002  0.1926114E+03  0.7818608E-02  0.1156300E+00
         21   -1    0    0  503  502  0.00000000000E+00  0.00000000000E+00  0.98755362499E+02  0.98755362499E+02  0.00000000000E+00 0.  1.
         21   -1    0    0  501  503 -0.00000000000E+00 -0.00000000000E+00 -0.61829516438E+03  0.61829516438E+03  0.00000000000E+00 0.  1.
          6    2    1    2  501    0 -0.52713855518E+02 -0.67228197861E+02 -0.48538047868E+03  0.52220049721E+03  0.17262899250E+03 0.  0.
         24    2    3    3    0    0 -0.62501766987E+01 -0.31044814098E+02 -0.43839197311E+03  0.44671460207E+03  0.79771977659E+02 0.  0.
         -6    2    1    2    0  502  0.52713855518E+02  0.67228197861E+02 -0.34159323199E+02  0.19485002967E+03  0.17175940600E+03 0.  0.
        -24    2    5    5    0    0  0.37052859932E+01 -0.21590813495E+00  0.33247238071E+02  0.87536089181E+02  0.80891361152E+02 0.  0.
          5    1    3    3  501    0 -0.46463678820E+02 -0.36183383763E+02 -0.46988505568E+02  0.75485895143E+02  0.47000000000E+01 0. -1.
        -11    1    4    4    0    0 -0.23202248293E+02  0.20642760093E+02 -0.13976480857E+03  0.14317356454E+03  0.00000000000E+00 0.  1.
         12    1    4    4    0    0  0.16952071594E+02 -0.51687574191E+02 -0.29862716455E+03  0.30354103752E+03  0.00000000000E+00 0. -1.
         -5    1    5    5    0  502  0.49008569525E+02  0.67444105996E+02 -0.67406561270E+02  0.10731394049E+03  0.47000000000E+01 0.  1.
         13    1    6    6    0    0  0.37066063807E+02 -0.10291330165E+02 -0.12658945416E+01  0.38489051063E+02  0.00000000000E+00 0. -1.
        -14    1    6    6    0    0 -0.33360777814E+02  0.10075422030E+02  0.34513132613E+02  0.49047038118E+02  0.00000000000E+00 0.  1.
</event>
<event>
12    1  0.8417180E-002  0.1891805E+03  0.7818608E-02  0.1159228E+00
         21   -1    0    0  501  502  0.00000000000E+00  0.00000000000E+00  0.33613552438E+02  0.33613552438E+02  0.00000000000E+00 0. -1.
         21   -1    0    0  502  503 -0.00000000000E+00 -0.00000000000E+00 -0.10831380304E+04  0.10831380304E+04  0.00000000000E+00 0. -1.
         -6    2    1    2    0  503 -0.19420519806E+02 -0.74077612415E+02 -0.45057172288E+03  0.48863242159E+03  0.17286444607E+03 0.  0.
        -24    2    3    3    0    0  0.21139357662E+02 -0.40617671185E+01 -0.34953952578E+03  0.35910668243E+03  0.79475523835E+02 0.  0.
          6    2    1    2  501    0  0.19420519806E+02  0.74077612415E+02 -0.59895275505E+03  0.62811916122E+03  0.17298736561E+03 0.  0.
         24    2    5    5    0    0  0.45318765486E+02 -0.13792221572E+02 -0.23473237027E+03  0.25252575667E+03  0.80162062395E+02 0.  0.
          5    1    5    5  501    0 -0.25898245680E+02  0.87869833987E+02 -0.36422038478E+03  0.37559340455E+03  0.47000000000E+01 0. -1.
        -13    1    6    6    0    0  0.59588338458E+01 -0.32209280474E+02 -0.34266683373E+02  0.47404124702E+02  0.00000000000E+00 0.  1.
         14    1    6    6    0    0  0.39359931640E+02  0.18417058901E+02 -0.20046568690E+03  0.20512163197E+03  0.00000000000E+00 0. -1.
         -5    1    3    3    0  503 -0.40559877468E+02 -0.70015845296E+02 -0.10103219710E+03  0.12952573915E+03  0.47000000000E+01 0.  1.
         11    1    4    4    0    0 -0.26715503322E+02 -0.17394428054E+02 -0.16146179816E+03  0.16457884588E+03  0.00000000000E+00 0. -1.
        -12    1    4    4    0    0  0.47854860984E+02  0.13332660935E+02 -0.18807772762E+03  0.19452783656E+03  0.00000000000E+00 0.  1.
</event>
<event>
12    1  0.8417180E-002  0.2178369E+03  0.7818608E-02  0.1135553E+00
         21   -1    0    0  501  502  0.00000000000E+00  0.00000000000E+00  0.67704505326E+02  0.67704505326E+02  0.00000000000E+00 0. -1.
         21   -1    0    0  502  503 -0.00000000000E+00 -0.00000000000E+00 -0.86255566945E+03  0.86255566945E+03  0.00000000000E+00 0. -1.
         -6    2    1    2    0  503  0.13204223827E+03  0.19668249832E+02 -0.59948026206E+03  0.63783188005E+03  0.17213636998E+03 0.  0.
        -24    2    3    3    0    0  0.90347790801E+02  0.40764199534E+02 -0.56593085019E+03  0.58011603231E+03  0.80202496733E+02 0.  0.
          6    2    1    2  501    0 -0.13204223827E+03 -0.19668249832E+02 -0.19537090206E+03  0.29242829473E+03  0.17182120197E+03 0.  0.
         24    2    5    5    0    0 -0.46767505915E+02 -0.51466547398E+01 -0.18377153270E+02  0.95371110605E+02  0.80896485160E+02 0.  0.
          5    1    5    5  501    0 -0.85274732352E+02 -0.14521595093E+02 -0.17699374879E+03  0.19705718412E+03  0.47000000000E+01 0. -1.
        -11    1    6    6    0    0  0.16753324878E+02 -0.12282600470E+02  0.12646154286E+02  0.24319979173E+02  0.00000000000E+00 0.  1.
         12    1    6    6    0    0 -0.63520830793E+02  0.71359457298E+01 -0.31023307555E+02  0.71051131432E+02  0.00000000000E+00 0. -1.
         -5    1    3    3    0  503  0.41694447466E+02 -0.21095949702E+02 -0.33549411873E+02  0.57715847740E+02  0.47000000000E+01 0.  1.
         13    1    4    4    0    0  0.29140199857E+02 -0.37632932337E+01 -0.35136086522E+03  0.35258725336E+03  0.00000000000E+00 0. -1.
        -14    1    4    4    0    0  0.61207590944E+02  0.44527492768E+02 -0.21456998497E+03  0.22752877895E+03  0.00000000000E+00 0.  1.
</event>
<event>
12    1  0.8417180E-002  0.2071324E+03  0.7818608E-02  0.1144018E+00
         21   -1    0    0  503  502  0.00000000000E+00  0.00000000000E+00  0.21602068845E+03  0.21602068845E+03  0.00000000000E+00 0.  1.
         21   -1    0    0  501  503 -0.00000000000E+00 -0.00000000000E+00 -0.23782817585E+03  0.23782817585E+03  0.00000000000E+00 0.  1.
          6    2    1    2  501    0 -0.95487250961E+01 -0.11480323115E+03 -0.10392598526E+03  0.23103218122E+03  0.17118498273E+03 0.  0.
         24    2    3    3    0    0 -0.15032790161E+02  0.99062842020E+01 -0.48415172038E+02  0.94335149155E+02  0.78936507624E+02 0.  0.
         -6    2    1    2    0  502  0.95487250961E+01  0.11480323115E+03  0.82118497865E+02  0.22281668309E+03  0.17214199527E+03 0.  0.
        -24    2    5    5    0    0  0.91843743891E+01 -0.54157988703E+01  0.63709116300E+02  0.10110496113E+03  0.77779676367E+02 0.  0.
          5    1    3    3  501    0  0.54840650650E+01 -0.12470951535E+03 -0.55510813227E+02  0.13669703206E+03  0.47000000000E+01 0. -1.
        -11    1    4    4    0    0 -0.13892255779E+02 -0.11114043936E+02 -0.65091452551E+02  0.67478988867E+02  0.00000000000E+00 0.  1.
         12    1    4    4    0    0 -0.11405343816E+01  0.21020328137E+02  0.16676280513E+02  0.26856160288E+02  0.00000000000E+00 0. -1.
         -5    1    5    5    0  502  0.36435070702E+00  0.12021903002E+03  0.18409381565E+02  0.12171172195E+03  0.47000000000E+01 0.  1.
         11    1    6    6    0    0  0.38773153061E+02 -0.13381993547E+02  0.56163991775E+02  0.69547315704E+02  0.00000000000E+00 0. -1.
        -12    1    6    6    0    0 -0.29588778672E+02  0.79661946767E+01  0.75451245259E+01  0.31557645429E+02  0.00000000000E+00 0.  1.
</event>
<event>
12    1  0.8417180E-002  0.2159936E+03  0.7818608E-02  0.1136930E+00
         21   -1    0    0  501  502  0.00000000000E+00  0.00000000000E+00  0.14785858498E+03  0.14785858498E+03  0.00000000000E+00 0.  1.
         21   -1    0    0  502  503 -0.00000000000E+00 -0.00000000000E+00 -0.31616133399E+03  0.31616133399E+03  0.00000000000E+00 0.  1.
         -6    2    1    2    0  503  0.12903387696E+03  0.22469096108E+02 -0.95942054472E+02  0.23622763781E+03  0.17159259123E+03 0.  0.
        -24    2    3    3    0    0  0.44831038715E+02 -0.50287596013E+02 -0.46051722046E+02  0.11418342661E+03  0.79865070365E+02 0.  0.
          6    2    1    2  501    0 -0.12903387696E+03 -0.22469096108E+02 -0.72360694544E+02  0.22779228116E+03  0.17175171486E+03 0.  0.
         24    2    5    5    0    0 -0.13488251636E+03  0.12323445754E+02 -0.12966139885E+02  0.15854973156E+03  0.81392481590E+02 0.  0.
          5    1    5    5  501    0  0.58486393950E+01 -0.34792541863E+02 -0.59394554659E+02  0.69242549601E+02  0.47000000000E+01 0. -1.
        -11    1    6    6    0    0 -0.40400670255E+02 -0.27649885824E+02 -0.25495807225E+02  0.55197522854E+02  0.00000000000E+00 0.  1.
         12    1    6    6    0    0 -0.94481846105E+02  0.39973331578E+02  0.12529667340E+02  0.10335220871E+03  0.00000000000E+00 0. -1.
         -5    1    3    3    0  503  0.84202838250E+02  0.72756692122E+02 -0.49890332426E+02  0.12204421120E+03  0.47000000000E+01 0.  1.
         11    1    4    4    0    0 -0.14810032689E+02 -0.39814967710E+02 -0.97591842832E+01  0.43586814518E+02  0.00000000000E+00 0. -1.
        -12    1    4    4    0    0  0.59641071405E+02 -0.10472628304E+02 -0.36292537762E+02  0.70596612094E+02  0.00000000000E+00 0.  1.
</event>
<event>
12    1  0.8417180E-002  0.1907516E+03  0.7818608E-02  0.1157982E+00
         21   -1    0    0  503  502  0.00000000000E+00  0.00000000000E+00  0.99843016955E+02  0.99843016955E+02  0.00000000000E+00 0.  1.
         21   -1    0    0  501  503 -0.00000000000E+00 -0.00000000000E+00 -0.57423441705E+03  0.57423441705E+03  0.00000000000E+00 0.  1.
          6    2    1    2  501    0 -0.67096850356E+02 -0.30637503960E+02 -0.44207378366E+03  0.48147210448E+03  0.17591336848E+03 0.  0.
         24    2    3    3    0    0 -0.10771126229E+03 -0.35899814330E+02 -0.39626948300E+03  0.41984949234E+03  0.79709349332E+02 0.  0.
         -6    2    1    2    0  502  0.67096850356E+02  0.30637503960E+02 -0.32317616438E+02  0.19260532953E+03  0.17496211206E+03 0.  0.
        -24    2    5    5    0    0  0.58616891063E+02 -0.43859449105E+02 -0.44296367915E+02  0.11653111437E+03  0.79105886078E+02 0.  0.
          5    1    3    3  501    0  0.40614411933E+02  0.52623103699E+01 -0.45804300662E+02  0.61622612134E+02  0.47000000000E+01 0. -1.
        -11    1    4    4    0    0 -0.10601836079E+03 -0.12283592532E+02 -0.36699274882E+03  0.38219688272E+03  0.00000000000E+00 0.  1.
         12    1    4    4    0    0 -0.16929014973E+01 -0.23616221798E+02 -0.29276734175E+02  0.37652609624E+02  0.00000000000E+00 0. -1.
         -5    1    5    5    0  502  0.84799592930E+01  0.74496953066E+02  0.11978751477E+02  0.76074215163E+02  0.47000000000E+01 0.  1.
         11    1    6    6    0    0 -0.18662249985E+01  0.19846413895E+02 -0.86442199230E+01  0.21727528122E+02  0.00000000000E+00 0. -1.
        -12    1    6    6    0    0  0.60483116062E+02 -0.63705863000E+02 -0.35652147992E+02  0.94803586248E+02  0.00000000000E+00 0.  1.
</event>
<event>
12    1  0.8417180E-002  0.1811210E+03  0.7818608E-02  0.1167123E+00
         21   -1    0    0  501  502  0.00000000000E+00  0.00000000000E+00  0.76268585215E+02  0.76268585215E+02  0.00000000000E+00 0.  1.
         21   -1    0    0  502  503 -0.00000000000E+00 -0.00000000000E+00 -0.49889448532E+03  0.49889448532E+03  0.00000000000E+00 0.  1.
         -6    2    1    2    0  503 -0.17358475470E+02 -0.48234691222E+02 -0.32192828104E+03  0.36938144319E+03  0.17371508378E+03 0.  0.
        -24    2    3    3    0    0 -0.74497213718E+02 -0.41695602141E+02 -0.17113412732E+03  0.20792382680E+03  0.81590870365E+02 0.  0.
          6    2    1    2  501    0  0.17358475470E+02  0.48234691222E+02 -0.10069761906E+03  0.20578162734E+03  0.17198303858E+03 0.  0.
         24    2    5    5    0    0 -0.11893704368E+02 -0.36658770853E+02 -0.57458018425E+02  0.10601017355E+03  0.80320653203E+02 0.  0.
          5    1    5    5  501    0  0.29252179838E+02  0.84893462075E+02 -0.43239600635E+02  0.99771453790E+02  0.47000000000E+01 0. -1.
        -13    1    6    6    0    0  0.28830291907E+02  0.53936988000E+01 -0.11184860165E+02  0.31390744099E+02  0.00000000000E+00 0.  1.
         14    1    6    6    0    0 -0.40723996274E+02 -0.42052469653E+02 -0.46273158259E+02  0.74619429452E+02  0.00000000000E+00 0. -1.
         -5    1    3    3    0  503  0.57138738247E+02 -0.65390890813E+01 -0.15079415372E+03  0.16145761640E+03  0.47000000000E+01 0.  1.
         11    1    4    4    0    0 -0.28583802975E+01 -0.45666612771E+02 -0.56736310287E+02  0.72887713401E+02  0.00000000000E+00 0. -1.
        -12    1    4    4    0    0 -0.71638833420E+02  0.39710106300E+01 -0.11439781703E+03  0.13503611339E+03  0.00000000000E+00 0.  1.
</event>
<event>
12    1  0.8417180E-002  0.2273291E+03  0.7818608E-02  0.1128694E+00
         21   -1    0    0  501  502  0.00000000000E+00  0.00000000000E+00  0.25410416574E+03  0.25410416574E+03  0.00000000000E+00 0.  1.
         21   -1    0    0  502  503 -0.00000000000E+00 -0.00000000000E+00 -0.21207693461E+03  0.21207693461E+03  0.00000000000E+00 0.  1.
         -6    2    1    2    0  503 -0.14651074148E+02  0.14742633448E+03 -0.28362636070E+02  0.22820368335E+03  0.17124048556E+03 0.  0.
        -24    2    3    3    0    0  0.53569346915E+02  0.88893432513E+02 -0.74577504072E+00  0.13405004573E+03  0.84835967060E+02 0.  0.
          6    2    1    2  501    0  0.14651074148E+02 -0.14742633448E+03  0.70389867202E+02  0.23797741701E+03  0.17242198099E+03 0.  0.
         24    2    5    5    0    0  0.34945578054E+02 -0.99480954335E+02  0.11058132555E+03  0.17203752248E+03  0.79063429457E+02 0.  0.
          5    1    5    5  501    0 -0.20294503906E+02 -0.47945380147E+02 -0.40191458352E+02  0.65939894530E+02  0.47000000000E+01 0. -1.
        -11    1    6    6    0    0 -0.19189431338E+02 -0.45333136926E+02  0.19250644323E+02  0.52857496019E+02  0.00000000000E+00 0.  1.
         12    1    6    6    0    0  0.54135009392E+02 -0.54147817409E+02  0.91330681231E+02  0.11918002646E+03  0.00000000000E+00 0. -1.
         -5    1    3    3    0  503 -0.68220421064E+02  0.58532901969E+02 -0.27616861029E+02  0.94153637615E+02  0.47000000000E+01 0.  1.
         11    1    4    4    0    0  0.33112026410E+02  0.26784379685E+02 -0.39458569667E+02  0.58058487822E+02  0.00000000000E+00 0. -1.
        -12    1    4    4    0    0  0.20457320505E+02  0.62109052828E+02  0.38712794626E+02  0.75991557908E+02  0.00000000000E+00 0.  1.
</event>
<event>
12    1  0.8417180E-002  0.2418836E+03  0.7818608E-02  0.1118576E+00
         21   -1    0    0  501  502  0.00000000000E+00  0.00000000000E+00  0.52696027941E+02  0.52696027941E+02  0.00000000000E+00 0. -1.
         21   -1    0    0  502  503 -0.00000000000E+00 -0.00000000000E+00 -0.11100353819E+04  0.11100353819E+04  0.00000000000E+00 0.  1.
         -6    2    1    2    0  503  0.84936880287E+02 -0.14819576615E+03 -0.54238410090E+03  0.59379679368E+03  0.17099082004E+03 0.  0.
        -24    2    3    3    0    0  0.76177359408E+02 -0.17807911905E+03 -0.46150026379E+03  0.50699800860E+03  0.80927897011E+02 0.  0.
          6    2    1    2  501    0 -0.84936880287E+02  0.14819576615E+03 -0.51495525307E+03  0.56893461617E+03  0.17126419963E+03 0.  0.
         24    2    5    5    0    0  0.38235670658E+01  0.99286575478E+02 -0.19528603472E+03  0.23355270684E+03  0.80856587731E+02 0.  0.
          5    1    5    5  501    0 -0.88760447353E+02  0.48909190675E+02 -0.31966921835E+03  0.33538190933E+03  0.47000000000E+01 0. -1.
        -11    1    6    6    0    0 -0.17549094761E+02  0.97690903144E+02 -0.12242595512E+03  0.15760583038E+03  0.00000000000E+00 0.  1.
         12    1    6    6    0    0  0.21372661827E+02  0.15956723333E+01 -0.72860079598E+02  0.75946876452E+02  0.00000000000E+00 0. -1.
         -5    1    3    3    0  503  0.87595208796E+01  0.29883352898E+02 -0.80883837106E+02  0.86798785081E+02  0.47000000000E+01 0.  1.
         11    1    4    4    0    0  0.14152866453E+02  0.38721628077E+01 -0.15549941325E+02  0.21379849131E+02  0.00000000000E+00 0. -1.
        -12    1    4    4    0    0  0.62024492954E+02 -0.18195128186E+03 -0.44595032246E+03  0.48561815947E+03  0.00000000000E+00 0.  1.
</event>
<event>
12    1  0.8417180E-002  0.2224526E+03  0.7818608E-02  0.1132126E+00
         21   -1    0    0  501  502  0.00000000000E+00  0.00000000000E+00  0.17128696456E+04  0.17128696456E+04  0.00000000000E+00 0.  1.
         21   -1    0    0  502  503 -0.00000000000E+00 -0.00000000000E+00 -0.30056130818E+02  0.30056130818E+02  0.00000000000E+00 0.  1.
         -6    2    1    2    0  503  0.90870585679E+02 -0.10711992425E+03  0.66617758777E+03  0.70223668450E+03  0.17208033328E+03 0.  0.
        -24    2    3    3    0    0  0.87455586914E+02 -0.10204533642E+03  0.67348536325E+03  0.69161090262E+03  0.81739682792E+02 0.  0.
          6    2    1    2  501    0 -0.90870585679E+02  0.10711992425E+03  0.10166359270E+04  0.10406890919E+04  0.17249068504E+03 0.  0.
         24    2    5    5    0    0 -0.12821826765E+03  0.79767833573E+02  0.88047651962E+03  0.89679864598E+03  0.78778667054E+02 0.  0.
          5    1    5    5  501    0  0.37347681967E+02  0.27352090678E+02  0.13615940740E+03  0.14389044595E+03  0.47000000000E+01 0. -1.
        -11    1    6    6    0    0 -0.74476147085E+02  0.14677057392E+02  0.26834890289E+03  0.27887855095E+03  0.00000000000E+00 0.  1.
         12    1    6    6    0    0 -0.53742120560E+02  0.65090776181E+02  0.61212761673E+03  0.61792009502E+03  0.00000000000E+00 0. -1.
         -5    1    3    3    0  503  0.34149987644E+01 -0.50745878261E+01 -0.73077754794E+01  0.10625781883E+02  0.47000000000E+01 0.  1.
         11    1    4    4    0    0  0.52442764384E+02 -0.15696641794E+02  0.14530037364E+03  0.15527017318E+03  0.00000000000E+00 0. -1.
        -12    1    4    4    0    0  0.35012822530E+02 -0.86348694630E+02  0.52818498961E+03  0.53634072944E+03  0.00000000000E+00 0.  1.
</event>
<event>
12    1  0.8417180E-002  0.1799079E+03  0.7818608E-02  0.1168382E+00
         21   -1    0    0  501  502  0.00000000000E+00  0.00000000000E+00  0.78641546944E+03  0.78641546944E+03  0.00000000000E+00 0.  1.
         21   -1    0    0  502  503 -0.00000000000E+00 -0.00000000000E+00 -0.44178356798E+02  0.44178356798E+02  0.00000000000E+00 0.  1.
         -6    2    1    2    0  503  0.51297972139E+02 -0.13167326628E+01  0.25264467567E+03  0.30899282022E+03  0.17033500836E+03 0.  0.
        -24    2    3    3    0    0  0.64276592969E+02  0.48868243512E+02  0.22292036870E+03  0.24905451146E+03  0.76256627701E+02 0.  0.
          6    2    1    2  501    0 -0.51297972139E+02  0.13167326628E+01  0.48959243697E+03  0.52160100602E+03  0.17243444960E+03 0.  0.
         24    2    5    5    0    0 -0.57804032020E+02 -0.37052271610E+02  0.17051311289E+03  0.20012283512E+03  0.79121744935E+02 0.  0.
          5    1    5    5  501    0  0.65060598806E+01  0.38369004273E+02  0.31907932409E+03  0.32147817090E+03  0.47000000000E+01 0. -1.
        -11    1    6    6    0    0 -0.77693911423E+02 -0.27066917753E+02  0.13942040870E+03  0.16188580009E+03  0.00000000000E+00 0.  1.
         12    1    6    6    0    0  0.19889879403E+02 -0.99853538573E+01  0.31092704185E+02  0.38237035029E+02  0.00000000000E+00 0. -1.
         -5    1    3    3    0  503 -0.12978620830E+02 -0.50184976175E+02  0.29724306968E+02  0.59938308760E+02  0.47000000000E+01 0.  1.
         13    1    4    4    0    0 -0.94957615743E+01  0.27055551047E+02  0.10014041651E+03  0.10416465499E+03  0.00000000000E+00 0. -1.
        -14    1    4    4    0    0  0.73772354543E+02  0.21812692465E+02  0.12277995219E+03  0.14488985647E+03  0.00000000000E+00 0.  1.
</event>
<event>
12    1  0.8417180E-002  0.2076605E+03  0.7818608E-02  0.1143589E+00
         21   -1    0    0  503  502  0.00000000000E+00  0.00000000000E+00  0.29573768865E+03  0.29573768865E+03  0.00000000000E+00 0. -1.
         21   -1    0    0  501  503 -0.00000000000E+00 -0.00000000000E+00 -0.32386211688E+03  0.32386211688E+03  0.00000000000E+00 0. -1.
          6    2    1    2  501    0  0.11527559654E+03 -0.56936255277E+01 -0.24413175264E+03  0.32050460089E+03  0.17263257519E+03 0.  0.
         24    2    3    3    0    0  0.64545671433E+02  0.17196572530E+02 -0.24339334366E+03  0.26464655119E+03  0.79596554674E+02 0.  0.
         -6    2    1    2    0  502 -0.11527559654E+03  0.56936255277E+01  0.21600732441E+03  0.29909520464E+03  0.17169128315E+03 0.  0.
        -24    2    5    5    0    0  0.73550616515E+01 -0.23809522718E+01  0.98347229055E+02  0.12889101793E+03  0.82951498924E+02 0.  0.
          5    1    3    3  501    0  0.50729925105E+02 -0.22890198058E+02 -0.73840898879E+00  0.55858049698E+02  0.47000000000E+01 0. -1.
        -13    1    4    4    0    0  0.38538376169E+01  0.30715558145E+02 -0.14488764160E+03  0.14815777490E+03  0.00000000000E+00 0.  1.
         14    1    4    4    0    0  0.60691833816E+02 -0.13518985615E+02 -0.98505702058E+02  0.11648877629E+03  0.00000000000E+00 0. -1.
         -5    1    5    5    0  502 -0.12263065819E+03  0.80745777995E+01  0.11766009535E+03  0.17020418671E+03  0.47000000000E+01 0.  1.
         13    1    6    6    0    0 -0.90965867875E+01  0.33952025601E+02  0.18696829246E+02  0.39812803939E+02  0.00000000000E+00 0. -1.
        -14    1    6    6    0    0  0.16451648439E+02 -0.36332977873E+02  0.79650399810E+02  0.89078213988E+02  0.00000000000E+00 0.  1.
</event>
<event>
12    1  0.8417180E-002  0.2018028E+03  0.7818608E-02  0.1148397E+00
         21   -1    0    0  501  502  0.00000000000E+00  0.00000000000E+00  0.90585185207E+02  0.90585185207E+02  0.00000000000E+00 0. -1.
         21   -1    0    0  502  503 -0.00000000000E+00 -0.00000000000E+00 -0.46073613527E+03  0.46073613527E+03  0.00000000000E+00 0.  1.
         -6    2    1    2    0  503  0.18745013364E+02 -0.10424588165E+03 -0.13917094279E+03  0.24513857111E+03  0.17177249012E+03 0.  0.
        -24    2    3    3    0    0  0.24317163362E+02 -0.38170459265E+02 -0.34465395282E+01  0.94008779405E+02  0.82325351964E+02 0.  0.
          6    2    1    2  501    0 -0.18745013364E+02  0.10424588165E+03 -0.23098000727E+03  0.30618274936E+03  0.17081432283E+03 0.  0.
         24    2    5    5    0    0 -0.61887242088E+01  0.15394767721E+02 -0.19242638950E+03  0.20840416128E+03  0.78288440280E+02 0.  0.
          5    1    5    5  501    0 -0.12556289155E+02  0.88851113934E+02 -0.38553617763E+02  0.97778588082E+02  0.47000000000E+01 0. -1.
        -13    1    6    6    0    0 -0.33531225368E+02  0.29722869706E+02 -0.14542897286E+03  0.15217548490E+03  0.00000000000E+00 0.  1.
         14    1    6    6    0    0  0.27342501160E+02 -0.14328101985E+02 -0.46997416646E+02  0.56228676381E+02  0.00000000000E+00 0. -1.
         -5    1    3    3    0  503 -0.55721499975E+01 -0.66075422390E+02 -0.13572440327E+03  0.15112979171E+03  0.47000000000E+01 0.  1.
         13    1    4    4    0    0  0.17816380909E+02 -0.46116127420E+02  0.30806173251E+02  0.58250673363E+02  0.00000000000E+00 0. -1.
        -14    1    4    4    0    0  0.65007824530E+01  0.79456681559E+01 -0.34252712779E+02  0.35758106041E+02  0.00000000000E+00 0.  1.
</event>
<event>
12    1  0.8417180E-002  0.1848526E+03  0.7818608E-02  0.1163188E+00
         21   -1    0    0  501  502  0.00000000000E+00  0.00000000000E+00  0.92450111699E+03  0.92450111699E+03  0.00000000000E+00 0. -1.
         21   -1    0    0  502  503 -0.00000000000E+00 -0.00000000000E+00 -0.21193561027E+03  0.21193561027E+03  0.00000000000E+00 0. -1.
         -6    2    1    2    0  503 -0.37740075658E+02  0.57725475600E+02 -0.16001604469E+03  0.24448995592E+03  0.17150411116E+03 0.  0.
        -24    2    3    3    0    0 -0.45048508070E+02 -0.25446533053E+02 -0.47760175225E+02  0.10450972004E+03  0.77229224534E+02 0.  0.
          6    2    1    2  501    0  0.37740075658E+02 -0.57725475600E+02  0.87258155141E+03  0.89194677133E+03  0.17150491298E+03 0.  0.
         24    2    5    5    0    0  0.63620576609E+02  0.14232546415E+02  0.61431894308E+03  0.62255964817E+03  0.77088316602E+02 0.  0.
          5    1    5    5  501    0 -0.25880500951E+02 -0.71958022015E+02  0.25826260833E+03  0.26938712316E+03  0.47000000000E+01 0. -1.
        -13    1    6    6    0    0  0.74557064546E+02  0.13335619486E+02  0.35411015913E+03  0.36211959271E+03  0.00000000000E+00 0.  1.
         14    1    6    6    0    0 -0.10936487937E+02  0.89692692979E+00  0.26020878395E+03  0.26044005547E+03  0.00000000000E+00 0. -1.
         -5    1    3    3    0  503  0.73084324120E+01  0.83172008653E+02 -0.11225586946E+03  0.13998023588E+03  0.47000000000E+01 0.  1.
         11    1    4    4    0    0 -0.38086394465E+02 -0.44071513707E+02 -0.57951860880E+02  0.82166233595E+02  0.00000000000E+00 0. -1.
        -12    1    4    4    0    0 -0.69621136056E+01  0.18624980653E+02  0.10191685654E+02  0.22343486448E+02  0.00000000000E+00 0.  1.
</event>
<event>
12    1  0.8417180E-002  0.1945281E+03  0.7818608E-02  0.1154482E+00
         21   -1    0    0  501  502  0.00000000000E+00  0.00000000000E+00  0.16370007503E+03  0.16370007503E+03  0.00000000000E+00 0.  1.
         21   -1    0    0  502  503 -0.00000000000E+00 -0.00000000000E+00 -0.41900243761E+03  0.41900243761E+03  0.00000000000E+00 0. -1.
         -6    2    1    2    0  503  0.40477909169E+02 -0.80536370478E+02 -0.32281111455E+03  0.37679325906E+03  0.17216729160E+03 0.  0.
        -24    2    3    3    0    0  0.57372398874E+01 -0.81755652977E+02 -0.32096721433E+03  0.34166647839E+03  0.83660785712E+02 0.  0.
          6    2    1    2  501    0 -0.40477909169E+02  0.80536370478E+02  0.67508751967E+02  0.20590925359E+03  0.17238509512E+03 0.  0.
         24    2    5    5    0    0  0.28513957792E+02  0.40688456677E+02  0.77186542358E+02  0.12551346036E+03  0.85599474970E+02 0.  0.
          5    1    5    5  501    0 -0.68991866961E+02  0.39847913801E+02 -0.96777903917E+01  0.80395793223E+02  0.47000000000E+01 0. -1.
        -11    1    6    6    0    0  0.64697935726E+01  0.62156430354E+02  0.70150629110E+02  0.93948873478E+02  0.00000000000E+00 0.  1.
         12    1    6    6    0    0  0.22044164220E+02 -0.21467973677E+02  0.70359132485E+01  0.31564586884E+02  0.00000000000E+00 0. -1.
         -5    1    3    3    0  503  0.34740669282E+02  0.12192824993E+01 -0.18439002137E+01  0.35126780666E+02  0.47000000000E+01 0.  1.
         11    1    4    4    0    0  0.35138388004E+02 -0.25380486728E+02 -0.66525321987E+02  0.79400843091E+02  0.00000000000E+00 0. -1.
        -12    1    4    4    0    0 -0.29401148116E+02 -0.56375166249E+02 -0.25444189235E+03  0.26226563530E+03  0.00000000000E+00 0.  1.
</event>
<event>
12    1  0.8417180E-002  0.1770939E+03  0.7818608E-02  0.1171017E+00
         21   -1    0    0  501  502  0.00000000000E+00  0.00000000000E+00  0.91955313009E+02  0.91955313009E+02  0.00000000000E+00 0. -1.
         21   -1    0    0  502  503 -0.00000000000E+00 -0.00000000000E+00 -0.38911208145E+03  0.38911208145E+03  0.00000000000E+00 0. -1.
         -6    2    1    2    0  503  0.38622213564E+02 -0.16288705967E+02 -0.23505047600E+03  0.29339896522E+03  0.17052046565E+03 0.  0.
        -24    2    3    3    0    0  0.55004820562E+02 -0.67871235195E+02 -0.19598109225E+03  0.22648369133E+03  0.72486130174E+02 0.  0.
          6    2    1    2  501    0 -0.38622213564E+02  0.16288705967E+02 -0.62106292438E+02  0.18766842923E+03  0.17206176347E+03 0.  0.
         24    2    5    5    0    0 -0.12575536754E+01  0.45067084014E+02 -0.93568882602E+02  0.13077996439E+03  0.79470999695E+02 0.  0.
          5    1    5    5  501    0 -0.37364659889E+02 -0.28778378048E+02  0.31462590164E+02  0.56888464837E+02  0.47000000000E+01 0. -1.
        -11    1    6    6    0    0 -0.12155429825E+01  0.55418729591E+02 -0.23931519276E+02  0.60377402636E+02  0.00000000000E+00 0.  1.
         12    1    6    6    0    0 -0.42010692924E-01 -0.10351645577E+02 -0.69637363326E+02  0.70402561758E+02  0.00000000000E+00 0. -1.
         -5    1    3    3    0  503 -0.16382606998E+02  0.51582529229E+02 -0.39069383751E+02  0.66915273895E+02  0.47000000000E+01 0.  1.
         11    1    4    4    0    0  0.20580946503E+02  0.12415732973E+02 -0.62461353412E+02  0.66926425680E+02  0.00000000000E+00 0. -1.
        -12    1    4    4    0    0  0.34423874059E+02 -0.80286968168E+02 -0.13351973884E+03  0.15955726565E+03  0.00000000000E+00 0.  1.
</event>
<event>
12    1  0.8417180E-002  0.1973238E+03  0.7818608E-02  0.1152724E+00
         21   -1    0    0  501  502  0.00000000000E+00  0.00000000000E+00  0.67594302071E+02  0.67594302071E+02  0.00000000000E+00 0. -1.
         21   -1    0    0  502  503 -0.00000000000E+00 -0.00000000000E+00 -0.92209387850E+03  0.92209387850E+03  0.00000000000E+00 0. -1.
         -6    2    1    2    0  503 -0.92741880274E+02  0.14775521777E+02 -0.73233263580E+03  0.75760752474E+03  0.16981960927E+03 0.  0.
        -24    2    3    3    0    0 -0.10397530083E+03  0.53342949139E+02 -0.65809796560E+03  0.67307047695E+03  0.79212380371E+02 0.  0.
          6    2    1    2  501    0  0.92741880274E+02 -0.14775521777E+02 -0.12216694063E+03  0.23208065583E+03  0.17354335777E+03 0.  0.
         24    2    5    5    0    0  0.69655643667E+01 -0.57361997909E+02 -0.39688267253E+02  0.10560533854E+03  0.78983612734E+02 0.  0.
          5    1    5    5  501    0  0.85776315908E+02  0.42586476131E+02 -0.82478673378E+02  0.12647531728E+03  0.47000000000E+01 0. -1.
        -13    1    6    6    0    0  0.41413477209E+01  0.13823773057E+02 -0.30541037938E+02  0.33778727934E+02  0.00000000000E+00 0.  1.
         14    1    6    6    0    0  0.28242166458E+01 -0.71185770966E+02 -0.91472293151E+01  0.71826610610E+02  0.00000000000E+00 0. -1.
         -5    1    3    3    0  503  0.11233420554E+02 -0.38567427361E+02 -0.74234670191E+02  0.84537047789E+02  0.47000000000E+01 0.  1.
         13    1    4    4    0    0 -0.20555505686E+02  0.20097293345E+02 -0.37433447669E+03  0.37543671964E+03  0.00000000000E+00 0. -1.
        -14    1    4    4    0    0 -0.83419795143E+02  0.33245655794E+02 -0.28376348891E+03  0.29763375731E+03  0.00000000000E+00 0.  1.
</event>
<event>
12    1  0.8417180E-002  0.1828056E+03  0.7818608E-02  0.1165986E+00
         21   -1    0    0  503  502  0.00000000000E+00  0.00000000000E+00  0.34786407898E+02  0.34786407898E+02  0.00000000000E+00 0. -1.
         21   -1    0    0  501  503 -0.00000000000E+00 -0.00000000000E+00 -0.11576239260E+04  0.11576239260E+04  0.00000000000E+00 0. -1.
          6    2    1    2  501    0  0.54199386699E+02 -0.11149508721E+02 -0.82351016643E+03  0.84355609242E+03  0.17422973852E+03 0.  0.
         24    2    3    3    0    0  0.77314943156E+02 -0.55329878169E+02 -0.36644880742E+03  0.38375895248E+03  0.62826819897E+02 0.  0.
         -6    2    1    2    0  502 -0.54199386699E+02  0.11149508721E+02 -0.29932735169E+03  0.34885424150E+03  0.17041283190E+03 0.  0.
        -24    2    5    5    0    0  0.23439460022E+02 -0.93263920594E+01 -0.85997528597E+02  0.12086574079E+03  0.81096007898E+02 0.  0.
          5    1    3    3  501    0 -0.23115556457E+02  0.44180369448E+02 -0.45706135901E+03  0.45979713994E+03  0.47000000000E+01 0. -1.
        -11    1    4    4    0    0  0.35069017464E+02 -0.32246729072E+02 -0.78590961160E+02  0.91903355205E+02  0.00000000000E+00 0.  1.
         12    1    4    4    0    0  0.42245925691E+02 -0.23083149096E+02 -0.28785784626E+03  0.29185559728E+03  0.00000000000E+00 0. -1.
         -5    1    5    5    0  502 -0.77638846721E+02  0.20475900780E+02 -0.21332982310E+03  0.22798850071E+03  0.47000000000E+01 0.  1.
         11    1    6    6    0    0  0.19284571284E+02 -0.29394395640E+02 -0.92829377229E+02  0.99263379256E+02  0.00000000000E+00 0. -1.
        -12    1    6    6    0    0  0.41548887384E+01  0.20068003580E+02  0.68318486320E+01  0.21602361534E+02  0.00000000000E+00 0.  1.
</event>
<event>
12    1  0.8417180E-002  0.1964821E+03  0.7818608E-02  0.1153077E+00
         21   -1    0    0  501  502  0.00000000000E+00  0.00000000000E+00  0.21486235622E+03  0.21486235622E+03  0.00000000000E+00 0. -1.
         21   -1    0    0  502  503 -0.00000000000E+00 -0.00000000000E+00 -0.19221398636E+03  0.19221398636E+03  0.00000000000E+00 0.  1.
         -6    2    1    2    0  503  0.76428539282E+02 -0.56200722748E+02  0.66206163678E+02  0.20733661571E+03  0.17206212032E+03 0.  0.
        -24    2    3    3    0    0 -0.25002966552E+02 -0.71560937255E+01  0.21446486366E+02  0.86013721226E+02  0.79133118528E+02 0.  0.
          6    2    1    2  501    0 -0.76428539282E+02  0.56200722748E+02 -0.43557793823E+02  0.19973972687E+03  0.17029044082E+03 0.  0.
         24    2    5    5    0    0 -0.35094599975E+02 -0.32696937259E+02 -0.16558447775E+01  0.93019757666E+02  0.79681948023E+02 0.  0.
          5    1    5    5  501    0 -0.41333939307E+02  0.88897660008E+02 -0.41901949045E+02  0.10671996921E+03  0.47000000000E+01 0. -1.
        -13    1    6    6    0    0 -0.12490344213E+02 -0.25372162639E+02 -0.39352004177E+02  0.48459628231E+02  0.00000000000E+00 0.  1.
         14    1    6    6    0    0 -0.22604255762E+02 -0.73247746199E+01  0.37696159399E+02  0.44560129435E+02  0.00000000000E+00 0. -1.
         -5    1    3    3    0  503  0.10143150583E+03 -0.49044629023E+02  0.44759677312E+02  0.12132289448E+03  0.47000000000E+01 0.  1.
         13    1    4    4    0    0  0.21987931847E+02 -0.24059593094E+02  0.14198470652E+02  0.35551789485E+02  0.00000000000E+00 0. -1.
        -14    1    4    4    0    0 -0.46990898399E+02  0.16903499369E+02  0.72480157141E+01  0.50461931741E+02  0.00000000000E+00 0.  1.
</event>
<event>
12    1  0.8417180E-002  0.1904091E+03  0.7818608E-02  0.1158386E+00
         21   -1    0    0  501  502  0.00000000000E+00  0.00000000000E+00  0.34351009901E+03  0.34351009901E+03  0.00000000000E+00 0. -1.
         21   -1    0    0  502  503 -0.00000000000E+00 -0.00000000000E+00 -0.19483195153E+03  0.19483195153E+03  0.00000000000E+00 0. -1.
         -6    2    1    2    0  503  0.24548367296E+02 -0.76336499238E+02 -0.10847420127E+03  0.21913988823E+03  0.17270134573E+03 0.  0.
        -24    2    3    3    0    0  0.45827689001E+02 -0.51014502268E+02  0.71857728362E+00  0.10495072083E+03  0.79444829464E+02 0.  0.
          6    2    1    2  501    0 -0.24548367296E+02  0.76336499238E+02  0.25715234875E+03  0.31920216231E+03  0.17126822969E+03 0.  0.
         24    2    5    5    0    0 -0.81111656365E+02  0.63608589412E+02  0.16760377979E+03  0.21241994674E+03  0.80037824356E+02 0.  0.
          5    1    5    5  501    0  0.56563289069E+02  0.12727909826E+02  0.89548568961E+02  0.10678221557E+03  0.47000000000E+01 0. -1.
        -13    1    6    6    0    0 -0.19808026614E+02  0.18675904059E+02 -0.12450037034E+01  0.27252474107E+02  0.00000000000E+00 0.  1.
         14    1    6    6    0    0 -0.61303629751E+02  0.44932685353E+02  0.16884878349E+03  0.18516747263E+03  0.00000000000E+00 0. -1.
         -5    1    3    3    0  503 -0.21279321705E+02 -0.25321996970E+02 -0.10919277855E+03  0.11418916740E+03  0.47000000000E+01 0.  1.
         13    1    4    4    0    0  0.43860005130E+02 -0.70475605597E+02 -0.82776003676E+01  0.83420798978E+02  0.00000000000E+00 0. -1.
        -14    1    4    4    0    0  0.19676838709E+01  0.19461103329E+02  0.89961776512E+01  0.21529921852E+02  0.00000000000E+00 0.  1.
</event>
<event>
12    1  0.8417180E-002  0.2286923E+03  0.7818608E-02  0.1127666E+00
         21   -1    0    0  501  502  0.00000000000E+00  0.00000000000E+00  0.11392517311E+04  0.11392517311E+04  0.00000000000E+00 0.  1.
         21   -1    0    0  502  503 -0.00000000000E+00 -0.00000000000E+00 -0.61934799685E+02  0.61934799685E+02  0.00000000000E+00 0.  1.
         -6    2    1    2    0  503 -0.14994128572E+03 -0.16069868459E+02  0.23153545636E+03  0.32503215398E+03  0.17116250680E+03 0.  0.
        -24    2    3    3    0    0 -0.20478959928E+02 -0.11547367311E+02  0.15036853472E+03  0.17209064233E+03  0.80322870042E+02 0.  0.
          6    2    1    2  501    0  0.14994128572E+03  0.16069868459E+02  0.84578147504E+03  0.87615437679E+03  0.17192893476E+03 0.  0.
         24    2    5    5    0    0  0.10140117141E+03 -0.45951317434E+02  0.38488808586E+03  0.40855671171E+03  0.79912620453E+02 0.  0.
          5    1    5    5  501    0  0.48540114310E+02  0.62021185892E+02  0.46089338918E+03  0.46759766508E+03  0.47000000000E+01 0. -1.
        -13    1    6    6    0    0  0.28265843762E+02  0.13025481182E+02  0.18610161837E+03  0.18868607114E+03  0.00000000000E+00 0.  1.
         14    1    6    6    0    0  0.73135327652E+02 -0.58976798616E+02  0.19878646749E+03  0.21987064057E+03  0.00000000000E+00 0. -1.
         -5    1    3    3    0  503 -0.12946232580E+03 -0.45225011478E+01  0.81166921632E+02  0.15294151165E+03  0.47000000000E+01 0.  1.
         13    1    4    4    0    0  0.11278889429E+02  0.45328209798E+01 -0.46671668147E+01  0.13020839407E+02  0.00000000000E+00 0. -1.
        -14    1    4    4    0    0 -0.31757849357E+02 -0.16080188290E+02  0.15503570154E+03  0.15906980293E+03  0.00000000000E+00 0.  1.
</event>
<event>
12    1  0.8417180E-002  0.1864292E+03  0.7818608E-02  0.1161868E+00
         21   -1    0    0  501  502  0.00000000000E+00  0.00000000000E+00  0.77260056779E+03  0.77260056779E+03  0.00000000000E+00 0.  1.
         21   -1    0    0  502  503 -0.00000000000E+00 -0.00000000000E+00 -0.48955621788E+02  0.48955621788E+02  0.00000000000E+00 0.  1.
         -6    2    1    2    0  503  0.70960599985E+02 -0.88541413137E+01  0.24318440683E+03  0.30642206852E+03  0.17216859697E+03 0.  0.
        -24    2    3    3    0    0 -0.22529618033E+02  0.13278435661E+01  0.15485703684E+03  0.17731781619E+03  0.83376011071E+02 0.  0.
          6    2    1    2  501    0 -0.70960599985E+02  0.88541413137E+01  0.48046053917E+03  0.51513412106E+03  0.17148478185E+03 0.  0.
         24    2    5    5    0    0 -0.10445190158E+03 -0.12972268275E+02  0.26315034923E+03  0.29412763226E+03  0.78641453902E+02 0.  0.
          5    1    5    5  501    0  0.33491301590E+02  0.21826409588E+02  0.21731018995E+03  0.22100648880E+03  0.47000000000E+01 0. -1.
        -11    1    6    6    0    0 -0.87911626386E+02  0.17676012009E+02  0.22632749166E+03  0.24344409818E+03  0.00000000000E+00 0.  1.
         12    1    6    6    0    0 -0.16540275189E+02 -0.30648280284E+02  0.36822857562E+02  0.50683534079E+02  0.00000000000E+00 0. -1.
         -5    1    3    3    0  503  0.93490218018E+02 -0.10181984880E+02  0.88327369997E+02  0.12910425234E+03  0.47000000000E+01 0.  1.
         13    1    4    4    0    0 -0.18818823786E+02  0.85366322936E+00 -0.32927560746E+01  0.19123783939E+02  0.00000000000E+00 0. -1.
        -14    1    4    4    0    0 -0.37107942475E+01  0.47418033675E+00  0.15814979291E+03  0.15819403225E+03  0.00000000000E+00 0.  1.
</event>
<event>
12    1  0.8417180E-002  0.1813855E+03  0.7818608E-02  0.1169973E+00
         21   -1    0    0  501  502  0.00000000000E+00  0.00000000000E+00  0.20460040597E+03  0.20460040597E+03  0.00000000000E+00 0.  1.
         21   -1    0    0  502  503 -0.00000000000E+00 -0.00000000000E+00 -0.16606468409E+03  0.16606468409E+03  0.00000000000E+00 0.  1.
         -6    2    1    2    0  503 -0.52285187318E+02  0.22125074005E+02 -0.40063747513E+02  0.18575733580E+03  0.17227136799E+03 0.  0.
        -24    2    3    3    0    0  0.16007184584E+02  0.17947416855E+02 -0.74939362178E+02  0.10881775316E+03  0.75146893942E+02 0.  0.
          6    2    1    2  501    0  0.52285187318E+02 -0.22125074005E+02  0.78599469400E+02  0.18490775425E+03  0.15744758265E+03 0.  0.
         24    2    5    5    0    0  0.11195352275E+02 -0.15590808660E+02  0.10751642766E+03  0.13402208198E+03  0.77677068789E+02 0.  0.
          5    1    5    5  501    0  0.41089835043E+02 -0.65342653443E+01 -0.28916958259E+02  0.50885672270E+02  0.47000000000E+01 0. -1.
        -11    1    6    6    0    0  0.38179685459E+02 -0.26012025266E+02  0.87172596111E+02  0.98657870202E+02  0.00000000000E+00 0.  1.
         12    1    6    6    0    0 -0.26984333184E+02  0.10421216605E+02  0.20343831547E+02  0.35364211782E+02  0.00000000000E+00 0. -1.
         -5    1    3    3    0  503 -0.68292371901E+02  0.41776571500E+01  0.34875614665E+02  0.76939582644E+02  0.47000000000E+01 0.  1.
         13    1    4    4    0    0 -0.25241238882E+02 -0.11826385846E+02 -0.23306842693E+02  0.36334452780E+02  0.00000000000E+00 0. -1.
        -14    1    4    4    0    0  0.41248423466E+02  0.29773802701E+02 -0.51632519485E+02  0.72483300381E+02  0.00000000000E+00 0.  1.
</event>
<event>
12    1  0.8417180E-002  0.2835947E+03  0.7818608E-02  0.1095078E+00
         21   -1    0    0  503  502  0.00000000000E+00  0.00000000000E+00  0.49768697538E+02  0.49768697538E+02  0.00000000000E+00 0. -1.
         21   -1    0    0  501  503 -0.00000000000E+00 -0.00000000000E+00 -0.18297302392E+04  0.18297302392E+04  0.00000000000E+00 0.  1.
          6    2    1    2  501    0 -0.21127257735E+03  0.77251660478E+02 -0.12368850820E+04  0.12668342601E+04  0.15614229275E+03 0.  0.
         24    2    3    3    0    0 -0.19059804242E+03  0.20761783572E+02 -0.10562830073E+04  0.10764196021E+04  0.78655597142E+02 0.  0.
         -6    2    1    2    0  502  0.21127257735E+03 -0.77251660478E+02 -0.54307645969E+03  0.61266467663E+03  0.17269060176E+03 0.  0.
        -24    2    5    5    0    0  0.15689282759E+03 -0.25669461601E+01 -0.26830247210E+03  0.32273744785E+03  0.86898188381E+02 0.  0.
          5    1    3    3  501    0 -0.20674534938E+02  0.56489876906E+02 -0.18060207474E+03  0.19041465802E+03  0.47000000000E+01 0. -1.
        -13    1    4    4    0    0 -0.81084082926E+02  0.41337608756E+02 -0.59179017200E+03  0.59874788857E+03  0.00000000000E+00 0.  1.
         14    1    4    4    0    0 -0.10951395949E+03 -0.20575825184E+02 -0.46449283527E+03  0.47767171354E+03  0.00000000000E+00 0. -1.
         -5    1    5    5    0  502  0.54379749759E+02 -0.74684714318E+02 -0.27477398758E+03  0.28992722878E+03  0.47000000000E+01 0.  1.
         11    1    6    6    0    0  0.12293966351E+03 -0.91692643132E+01 -0.12595062879E+03  0.17624357340E+03  0.00000000000E+00 0. -1.
        -12    1    6    6    0    0  0.33953164085E+02  0.66023181531E+01 -0.14235184332E+03  0.14649387445E+03  0.00000000000E+00 0.  1.
</event>
<event>
12    1  0.8417180E-002  0.2160044E+03  0.7818608E-02  0.1137062E+00
         21   -1    0    0  503  502  0.00000000000E+00  0.00000000000E+00  0.57567640604E+03  0.57567640604E+03  0.00000000000E+00 0. -1.
         21   -1    0    0  501  503 -0.00000000000E+00 -0.00000000000E+00 -0.54550383343E+03  0.54550383343E+03  0.00000000000E+00 0.  1.
          6    2    1    2  501    0  0.12950287610E+03 -0.12328596676E+02 -0.50236018119E+03  0.54683055609E+03  0.17243815183E+03 0.  0.
         24    2    3    3    0    0  0.90008326056E+02 -0.23636057402E+02 -0.48658954388E+03  0.50257582581E+03  0.84574904670E+02 0.  0.
         -6    2    1    2    0  502 -0.12950287610E+03  0.12328596676E+02  0.53253275380E+03  0.57434968338E+03  0.17135762521E+03 0.  0.
        -24    2    5    5    0    0  0.28436194990E+01  0.17590635980E+02  0.27100154713E+03  0.28115359539E+03  0.72718560254E+02 0.  0.
          5    1    3    3  501    0  0.39494550041E+02  0.11307460726E+02 -0.15770637311E+02  0.44254730280E+02  0.47000000000E+01 0. -1.
        -13    1    4    4    0    0  0.43625365710E+02  0.29650422319E+02 -0.16138804284E+03  0.16978934139E+03  0.00000000000E+00 0.  1.
         14    1    4    4    0    0  0.46382960346E+02 -0.53286479721E+02 -0.32520150104E+03  0.33278648442E+03  0.00000000000E+00 0. -1.
         -5    1    5    5    0  502 -0.13234649560E+03 -0.52620393039E+01  0.26153120667E+03  0.29319608800E+03  0.47000000000E+01 0.  1.
         11    1    6    6    0    0 -0.28813438297E+02  0.28285076434E+02  0.12424408619E+03  0.13064016506E+03  0.00000000000E+00 0. -1.
        -12    1    6    6    0    0  0.31657057796E+02 -0.10694440453E+02  0.14675746095E+03  0.15051343033E+03  0.00000000000E+00 0.  1.
</event>
<event>
12    1  0.8417180E-002  0.1963654E+03  0.7818608E-02  0.1153117E+00
         21   -1    0    0  501  502  0.00000000000E+00  0.00000000000E+00  0.90280365782E+03  0.90280365782E+03  0.00000000000E+00 0. -1.
         21   -1    0    0  502  503 -0.00000000000E+00 -0.00000000000E+00 -0.49797423502E+02  0.49797423502E+02  0.00000000000E+00 0. -1.
         -6    2    1    2    0  503 -0.94202169391E+01  0.92429969383E+02  0.24219209233E+03  0.31099896078E+03  0.17155554286E+03 0.  0.
        -24    2    3    3    0    0 -0.25728130769E+02  0.31663303408E+02  0.22179148356E+03  0.24469051044E+03  0.94960424531E+02 0.  0.
          6    2    1    2  501    0  0.94202169391E+01 -0.92429969383E+02  0.61081414199E+03  0.64160212055E+03  0.17299515980E+03 0.  0.
         24    2    5    5    0    0  0.55141846876E+02 -0.13069721685E+02  0.38791802665E+03  0.40057663520E+03  0.82278820850E+02 0.  0.
          5    1    5    5  501    0 -0.45721629937E+02 -0.79360247698E+02  0.22289611533E+03  0.24102548535E+03  0.47000000000E+01 0. -1.
        -13    1    6    6    0    0  0.11407477548E+02  0.28748345084E+02  0.21847414051E+03  0.22065255031E+03  0.00000000000E+00 0.  1.
         14    1    6    6    0    0  0.43734369329E+02 -0.41818066768E+02  0.16944388614E+03  0.17992408488E+03  0.00000000000E+00 0. -1.
         -5    1    3    3    0  503  0.16307913830E+02  0.60766665975E+02  0.20400608778E+02  0.66308450334E+02  0.47000000000E+01 0.  1.
         11    1    4    4    0    0 -0.54874035488E+02  0.44280518882E+02  0.13567083219E+03  0.15290029049E+03  0.00000000000E+00 0. -1.
        -12    1    4    4    0    0  0.29145904720E+02 -0.12617215474E+02  0.86120651361E+02  0.91790219953E+02  0.00000000000E+00 0.  1.
</event>
<event>
12    1  0.8417180E-002  0.1841508E+03  0.7818608E-02  0.1163957E+00
         21   -1    0    0  503  502  0.00000000000E+00  0.00000000000E+00  0.10929288393E+04  0.10929288393E+04  0.00000000000E+00 0. -1.
         21   -1    0    0  501  503 -0.00000000000E+00 -0.00000000000E+00 -0.47069188928E+02  0.47069188928E+02  0.00000000000E+00 0. -1.
          6    2    1    2  501    0 -0.32434225600E+02 -0.57196154544E+02  0.18979323764E+03  0.26444844431E+03  0.17201199830E+03 0.  0.
         24    2    3    3    0    0  0.18321150027E+01  0.26292508033E+02  0.50054808203E+02  0.98034930622E+02  0.80066916849E+02 0.  0.
         -6    2    1    2    0  502  0.32434225600E+02  0.57196154544E+02  0.85606641273E+03  0.87554958391E+03  0.17150507807E+03 0.  0.
        -24    2    5    5    0    0  0.60636099042E+02 -0.33932090691E+01  0.31277284194E+03  0.32814076894E+03  0.78493714468E+02 0.  0.
          5    1    3    3  501    0 -0.34266340603E+02 -0.83488662577E+02  0.13973842944E+03  0.16641351369E+03  0.47000000000E+01 0. -1.
        -11    1    4    4    0    0  0.22087784589E+02 -0.18171895707E+02  0.38262295258E+02  0.47771238837E+02  0.00000000000E+00 0.  1.
         12    1    4    4    0    0 -0.20255669586E+02  0.44464403740E+02  0.11792512945E+02  0.50263691785E+02  0.00000000000E+00 0. -1.
         -5    1    5    5    0  502 -0.28201873442E+02  0.60589363613E+02  0.54329357079E+03  0.54740881498E+03  0.47000000000E+01 0.  1.
         11    1    6    6    0    0  0.50517167310E+02  0.31686186674E+02  0.15209793225E+03  0.16337006952E+03  0.00000000000E+00 0. -1.
        -12    1    6    6    0    0  0.10118931732E+02 -0.35079395743E+02  0.16067490968E+03  0.16477069942E+03  0.00000000000E+00 0.  1.
</event>
<event>
12    1  0.8417180E-002  0.2625170E+03  0.7818608E-02  0.1105705E+00
         21   -1    0    0  503  502  0.00000000000E+00  0.00000000000E+00  0.21875564346E+03  0.21875564346E+03  0.00000000000E+00 0.  1.
         21   -1    0    0  501  503 -0.00000000000E+00 -0.00000000000E+00 -0.38855186583E+03  0.38855186583E+03  0.00000000000E+00 0.  1.
          6    2    1    2  501    0 -0.19667889802E+03  0.27209050281E+02 -0.21739386458E+03  0.34051037690E+03  0.17106812409E+03 0.  0.
         24    2    3    3    0    0 -0.22001791856E+03  0.22340609753E+02 -0.17978972850E+03  0.29573792284E+03  0.78927721366E+02 0.  0.
         -6    2    1    2    0  502  0.19667889802E+03 -0.27209050281E+02  0.47597642210E+02  0.26679713239E+03  0.17173308640E+03 0.  0.
        -24    2    5    5    0    0  0.21241701858E+03 -0.50297037696E+02  0.32752182691E+02  0.23480930236E+03  0.80074472949E+02 0.  0.
          5    1    3    3  501    0  0.23339020541E+02  0.48684405276E+01 -0.37604136077E+02  0.44772454065E+02  0.47000000000E+01 0. -1.
        -13    1    4    4    0    0 -0.18936971025E+03  0.52326450881E+00 -0.17493570474E+03  0.25780547271E+03  0.00000000000E+00 0.  1.
         14    1    4    4    0    0 -0.30648208307E+02  0.21817345244E+02 -0.48540237566E+01  0.37932450126E+02  0.00000000000E+00 0. -1.
         -5    1    5    5    0  502 -0.15738120567E+02  0.23087987415E+02  0.14845459520E+02  0.31987830033E+02  0.47000000000E+01 0.  1.
         13    1    6    6    0    0 -0.80249938118E+00  0.98228740869E+01 -0.32332656421E+01  0.10372408944E+02  0.00000000000E+00 0. -1.
        -14    1    6    6    0    0  0.21321951797E+03 -0.60119911783E+02  0.35985448333E+02  0.22443689341E+03  0.00000000000E+00 0.  1.
</event>
<event>
12    1  0.8417180E-002  0.1845214E+03  0.7818608E-02  0.1163946E+00
         21   -1    0    0  503  502  0.00000000000E+00  0.00000000000E+00  0.11389742299E+03  0.11389742299E+03  0.00000000000E+00 0.  1.
         21   -1    0    0  501  503 -0.00000000000E+00 -0.00000000000E+00 -0.32762533368E+03  0.32762533368E+03  0.00000000000E+00 0. -1.
          6    2    1    2  501    0 -0.27100134071E+02  0.53372561464E+02 -0.17610027855E+03  0.25506756765E+03  0.17454256896E+03 0.  0.
         24    2    3    3    0    0  0.17794395671E+02 -0.33036479416E+02 -0.77166321095E+02  0.11617171068E+03  0.78314594818E+02 0.  0.
         -6    2    1    2    0  502  0.27100134071E+02 -0.53372561464E+02 -0.37627632141E+02  0.18645518902E+03  0.17253014585E+03 0.  0.
        -24    2    5    5    0    0  0.60056849455E+02  0.19803228290E+02 -0.17813039158E+02  0.10365694393E+03  0.80177706649E+02 0.  0.
          5    1    3    3  501    0 -0.44894529742E+02  0.86409040880E+02 -0.98933957455E+02  0.13889585697E+03  0.47000000000E+01 0. -1.
        -11    1    4    4    0    0 -0.13454341199E+02 -0.28841005804E+02  0.10474608367E+01  0.31842111850E+02  0.00000000000E+00 0.  1.
         12    1    4    4    0    0  0.31248736869E+02 -0.41954736118E+01 -0.78213781932E+02  0.84329598830E+02  0.00000000000E+00 0. -1.
         -5    1    5    5    0  502 -0.32956715383E+02 -0.73175789755E+02 -0.19814592983E+02  0.82798245091E+02  0.47000000000E+01 0.  1.
         13    1    6    6    0    0  0.28096551989E+02 -0.30627533693E+02 -0.13892385164E+02  0.43823058078E+02  0.00000000000E+00 0. -1.
        -14    1    6    6    0    0  0.31960297465E+02  0.50430761983E+02 -0.39206539944E+01  0.59833885851E+02  0.00000000000E+00 0.  1.
</event>
<event>
12    1  0.8417180E-002  0.1862135E+03  0.7818608E-02  0.1162035E+00
         21   -1    0    0  501  502  0.00000000000E+00  0.00000000000E+00  0.28281075132E+02  0.28281075132E+02  0.00000000000E+00 0.  1.
         21   -1    0    0  502  503 -0.00000000000E+00 -0.00000000000E+00 -0.14473198267E+04  0.14473198267E+04  0.00000000000E+00 0.  1.
         -6    2    1    2    0  503 -0.27930397273E+02  0.65803709812E+02 -0.10008577352E+04  0.10180332351E+04  0.17194541646E+03 0.  0.
        -24    2    3    3    0    0 -0.82294787658E+02  0.20550950851E+02 -0.70329063149E+03  0.71213853038E+03  0.72998633237E+02 0.  0.
          6    2    1    2  501    0  0.27930397273E+02 -0.65803709812E+02 -0.41818101634E+03  0.45756766676E+03  0.17141345313E+03 0.  0.
         24    2    5    5    0    0  0.91740507919E+01 -0.80736100776E+02 -0.41840526217E+03  0.43313577941E+03  0.77078912891E+02 0.  0.
          5    1    5    5  501    0  0.18756346481E+02  0.14932390964E+02  0.22424583033E+00  0.24431887349E+02  0.47000000000E+01 0. -1.
        -11    1    6    6    0    0  0.11664513304E+02  0.11307077931E+02 -0.31707561678E+02  0.35626960992E+02  0.00000000000E+00 0.  1.
         12    1    6    6    0    0 -0.24904625125E+01 -0.92043178707E+02 -0.38669770050E+03  0.39750881842E+03  0.00000000000E+00 0. -1.
         -5    1    3    3    0  503  0.54364390385E+02  0.45252758961E+02 -0.29756710371E+03  0.30589470467E+03  0.47000000000E+01 0.  1.
         11    1    4    4    0    0  0.97190605398E+00  0.10928779058E+02 -0.14083252502E+02  0.17852753684E+02  0.00000000000E+00 0. -1.
        -12    1    4    4    0    0 -0.83266693712E+02  0.96221717937E+01 -0.68920737899E+03  0.69428577669E+03  0.00000000000E+00 0.  1.
</event>
<event>
12    1  0.8417180E-002  0.1804328E+03  0.7818608E-02  0.1167782E+00
         21   -1    0    0  501  502  0.00000000000E+00  0.00000000000E+00  0.19068423481E+02  0.19068423481E+02  0.00000000000E+00 0.  1.
         21   -1    0    0  502  503 -0.00000000000E+00 -0.00000000000E+00 -0.16943652640E+04  0.16943652640E+04  0.00000000000E+00 0.  1.
         -6    2    1    2    0  503  0.52726093987E+02  0.14626414908E+02 -0.86677668577E+03  0.88502506675E+03  0.17021625299E+03 0.  0.
        -24    2    3    3    0    0  0.27212148527E+02  0.60331752717E+02 -0.74596920121E+03  0.75328108152E+03  0.81129015885E+02 0.  0.
          6    2    1    2  501    0 -0.52726093987E+02 -0.14626414908E+02 -0.80852015476E+03  0.82840862074E+03  0.17193611972E+03 0.  0.
         24    2    5    5    0    0 -0.36396919661E+02  0.57111704157E+02 -0.51368583556E+03  0.52449684828E+03  0.81469771636E+02 0.  0.
          5    1    5    5  501    0 -0.16329174326E+02 -0.71738119064E+02 -0.29483431921E+03  0.30391177246E+03  0.47000000000E+01 0. -1.
        -13    1    6    6    0    0 -0.34529275133E+02  0.19425062174E+02 -0.81010250282E+02  0.90179069259E+02  0.00000000000E+00 0.  1.
         14    1    6    6    0    0 -0.18676445281E+01  0.37686641982E+02 -0.43267558527E+03  0.43431777902E+03  0.00000000000E+00 0. -1.
         -5    1    3    3    0  503  0.25513945460E+02 -0.45705337809E+02 -0.12080748456E+03  0.13174398523E+03  0.47000000000E+01 0.  1.
         11    1    4    4    0    0 -0.27105683219E+02  0.31368697368E+02 -0.36861486278E+03  0.37093884981E+03  0.00000000000E+00 0. -1.
        -12    1    4    4    0    0  0.54317831746E+02  0.28963055350E+02 -0.37735433843E+03  0.38234223171E+03  0.00000000000E+00 0.  1.
</event>
<event>
12    1  0.8417180E-002  0.1980668E+03  0.7818608E-02  0.1151904E+00
         21   -1    0    0  503  502  0.00000000000E+00  0.00000000000E+00  0.10252553817E+03  0.10252553817E+03  0.00000000000E+00 0. -1.
         21   -1    0    0  501  503 -0.00000000000E+00 -0.00000000000E+00 -0.50371599731E+03  0.50371599731E+03  0.00000000000E+00 0.  1.
          6    2    1    2  501    0 -0.60131356386E+02  0.77476961968E+02 -0.35298853340E+03  0.40476087464E+03  0.17208137981E+03 0.  0.
         24    2    3    3    0    0 -0.47404552773E+02  0.10589987101E+03 -0.34447370826E+03  0.37213533962E+03  0.79753376169E+02 0.  0.
         -6    2    1    2    0  502  0.60131356386E+02 -0.77476961968E+02 -0.48201925744E+02  0.20148066083E+03  0.16927070445E+03 0.  0.
        -24    2    5    5    0    0  0.61393781800E+02 -0.11632370240E+03 -0.49847581534E+02  0.16229570015E+03  0.80961180326E+02 0.  0.
          5    1    3    3  501    0 -0.12726803613E+02 -0.28422909038E+02 -0.85148251370E+01  0.32625535022E+02  0.47000000000E+01 0. -1.
        -13    1    4    4    0    0  0.93190343518E+01  0.47623116766E+02 -0.20516875744E+03  0.21082937339E+03  0.00000000000E+00 0.  1.
         14    1    4    4    0    0 -0.56723587125E+02  0.58276754239E+02 -0.13930495082E+03  0.16130596623E+03  0.00000000000E+00 0. -1.
         -5    1    5    5    0  502 -0.12624254138E+01  0.38846740432E+02  0.16456557895E+01  0.39184960675E+02  0.47000000000E+01 0.  1.
         13    1    6    6    0    0 -0.91944233033E+01  0.63906757718E+01  0.22955679752E+01  0.11430126379E+02  0.00000000000E+00 0. -1.
        -14    1    6    6    0    0  0.70588205103E+02 -0.12271437817E+03 -0.52143149509E+02  0.15086557378E+03  0.00000000000E+00 0.  1.
</event>
<event>
12    1  0.8417180E-002  0.2131964E+03  0.7818608E-02  0.1139203E+00
         21   -1    0    0  501  502  0.00000000000E+00  0.00000000000E+00  0.14780141656E+03  0.14780141656E+03  0.00000000000E+00 0. -1.
         21   -1    0    0  502  503 -0.00000000000E+00 -0.00000000000E+00 -0.43428464682E+03  0.43428464682E+03  0.00000000000E+00 0. -1.
         -6    2    1    2    0  503  0.31765720719E+02 -0.12161902086E+03 -0.30131150816E+03  0.36910882604E+03  0.17219887705E+03 0.  0.
        -24    2    3    3    0    0 -0.17934033995E+02 -0.93276643262E+02 -0.28264157980E+03  0.30874317180E+03  0.80086963648E+02 0.  0.
          6    2    1    2  501    0 -0.31765720719E+02  0.12161902086E+03  0.14828277909E+02  0.21297723734E+03  0.17128683123E+03 0.  0.
         24    2    5    5    0    0  0.22382502164E+02  0.22420772834E+02 -0.31849378710E+02  0.90612143953E+02  0.78692504408E+02 0.  0.
          5    1    5    5  501    0 -0.54148222882E+02  0.99198248025E+02  0.46677656620E+02  0.12236509339E+03  0.47000000000E+01 0. -1.
        -11    1    6    6    0    0  0.48395793202E+02  0.25362169569E+01 -0.58731453596E+01  0.48816790478E+02  0.00000000000E+00 0.  1.
         12    1    6    6    0    0 -0.26013291039E+02  0.19884555877E+02 -0.25976233351E+02  0.41795353476E+02  0.00000000000E+00 0. -1.
         -5    1    3    3    0  503  0.49699754713E+02 -0.28342377597E+02 -0.18669928361E+02  0.60365654237E+02  0.47000000000E+01 0.  1.
         13    1    4    4    0    0 -0.75636526478E+01 -0.89209932199E+01 -0.15471996730E+03  0.15516140385E+03  0.00000000000E+00 0. -1.
        -14    1    4    4    0    0 -0.10370381347E+02 -0.84355650042E+02 -0.12792161250E+03  0.15358176795E+03  0.00000000000E+00 0.  1.
</event>
<event>
12    1  0.8417180E-002  0.2161508E+03  0.7818608E-02  0.1136818E+00
         21   -1    0    0  503  502  0.00000000000E+00  0.00000000000E+00  0.70267019346E+03  0.70267019346E+03  0.00000000000E+00 0.  1.
         21   -1    0    0  501  503 -0.00000000000E+00 -0.00000000000E+00 -0.79179041279E+02  0.79179041279E+02  0.00000000000E+00 0. -1.
          6    2    1    2  501    0  0.92635542239E+02 -0.92662149311E+02  0.15483391720E+03  0.26574772628E+03  0.17169943071E+03 0.  0.
         24    2    3    3    0    0 -0.21956785878E+01  0.43479113792E+01  0.15786228610E+02  0.71427727256E+02  0.69490933721E+02 0.  0.
         -6    2    1    2    0  502 -0.92635542239E+02  0.92662149311E+02  0.46865723498E+03  0.51610150846E+03  0.17191144678E+03 0.  0.
        -24    2    5    5    0    0 -0.66377105258E+02 -0.15023032341E+02  0.21301982971E+03  0.23742934115E+03  0.79772379841E+02 0.  0.
          5    1    3    3  501    0  0.94831220827E+02 -0.97010060690E+02  0.13904768859E+03  0.19431999903E+03  0.47000000000E+01 0. -1.
        -11    1    4    4    0    0  0.20946252554E+02 -0.16914185963E+02  0.26934096788E+02  0.38082551814E+02  0.00000000000E+00 0.  1.
         12    1    4    4    0    0 -0.23141931142E+02  0.21262097343E+02 -0.11147868178E+02  0.33345175442E+02  0.00000000000E+00 0. -1.
         -5    1    5    5    0  502 -0.26258436981E+02  0.10768518165E+03  0.25563740527E+03  0.27867216731E+03  0.47000000000E+01 0.  1.
         11    1    6    6    0    0 -0.12934116867E+01 -0.27071007435E+02  0.12148075924E+03  0.12446721344E+03  0.00000000000E+00 0. -1.
        -12    1    6    6    0    0 -0.65083693572E+02  0.12047975094E+02  0.91539070471E+02  0.11296212770E+03  0.00000000000E+00 0.  1.
</event>
<event>
12    1  0.8417180E-002  0.2631223E+03  0.7818608E-02  0.1105335E+00
         21   -1    0    0  501  502  0.00000000000E+00  0.00000000000E+00  0.98423458370E+02  0.98423458370E+02  0.00000000000E+00 0.  1.
         21   -1    0    0  502  503 -0.00000000000E+00 -0.00000000000E+00 -0.88567461564E+03  0.88567461564E+03  0.00000000000E+00 0.  1.
         -6    2    1    2    0  503 -0.54953759013E+02 -0.19135613760E+03 -0.17004733530E+03  0.31328814131E+03  0.17203568296E+03 0.  0.
        -24    2    3    3    0    0 -0.24457270502E+02 -0.10535125093E+03 -0.17863993098E+02  0.13578113866E+03  0.80127094137E+02 0.  0.
          6    2    1    2  501    0  0.54953759013E+02  0.19135613760E+03 -0.61720382197E+03  0.67080993270E+03  0.17148854460E+03 0.  0.
         24    2    5    5    0    0 -0.73849924162E+01  0.15498547831E+03 -0.31881911844E+03  0.36378474467E+03  0.81355230756E+02 0.  0.
          5    1    5    5  501    0  0.62338751430E+02  0.36370659298E+02 -0.29838470353E+03  0.30702518803E+03  0.47000000000E+01 0. -1.
        -13    1    6    6    0    0 -0.17226987410E+02  0.14082190135E+03 -0.31589578283E+03  0.34629138396E+03  0.00000000000E+00 0.  1.
         14    1    6    6    0    0  0.98419949934E+01  0.14163576961E+02 -0.29233356080E+01  0.17493360708E+02  0.00000000000E+00 0. -1.
         -5    1    3    3    0  503 -0.30496488512E+02 -0.86004886678E+02 -0.15218334220E+03  0.17750700264E+03  0.47000000000E+01 0.  1.
         11    1    4    4    0    0  0.30249302091E+01 -0.31369674218E+01  0.22188274225E+02  0.22612171069E+02  0.00000000000E+00 0. -1.
        -12    1    4    4    0    0 -0.27482200711E+02 -0.10221428351E+03 -0.40052267323E+02  0.11316896759E+03  0.00000000000E+00 0.  1.
</event>
<event>
12    1  0.8417180E-002  0.1813998E+03  0.7818608E-02  0.1166818E+00
         21   -1    0    0  503  502  0.00000000000E+00  0.00000000000E+00  0.22861519511E+03  0.22861519511E+03  0.00000000000E+00 0. -1.
         21   -1    0    0  501  503 -0.00000000000E+00 -0.00000000000E+00 -0.24499034558E+03  0.24499034558E+03  0.00000000000E+00 0. -1.
          6    2    1    2  501    0  0.10019969783E+02 -0.54861549272E+02 -0.16114939540E+03  0.24151615346E+03  0.17102846361E+03 0.  0.
         24    2    3    3    0    0 -0.25626374777E+02 -0.93943899192E+02 -0.12291772926E+03  0.17608036622E+03  0.80083455993E+02 0.  0.
         -6    2    1    2    0  502 -0.10019969783E+02  0.54861549272E+02  0.14477424493E+03  0.23208938723E+03  0.17261434554E+03 0.  0.
        -24    2    5    5    0    0 -0.56938481076E+02  0.13211346616E+02  0.13932863021E+03  0.16894011326E+03  0.75576215607E+02 0.  0.
          5    1    3    3  501    0  0.35646344561E+02  0.39082349920E+02 -0.38231666144E+02  0.65435787242E+02  0.47000000000E+01 0. -1.
        -13    1    4    4    0    0 -0.16928732646E+02 -0.66436453787E+01 -0.72810228109E+02  0.75046980820E+02  0.00000000000E+00 0.  1.
         14    1    4    4    0    0 -0.86976421313E+01 -0.87300253814E+02 -0.50107501146E+02  0.10103338540E+03  0.00000000000E+00 0. -1.
         -5    1    5    5    0  502  0.46918511293E+02  0.41650202656E+02  0.54456147257E+01  0.63149273970E+02  0.47000000000E+01 0.  1.
         13    1    6    6    0    0 -0.30762907773E+01 -0.20072799971E+02  0.78697754842E+02  0.81275565091E+02  0.00000000000E+00 0. -1.
        -14    1    6    6    0    0 -0.53862190299E+02  0.33284146587E+02  0.60630875365E+02  0.87664548167E+02  0.00000000000E+00 0.  1.
</event>
<event>
12    1  0.8417180E-002  0.2010560E+03  0.7818608E-02  0.1149968E+00
         21   -1    0    0  501  502  0.00000000000E+00  0.00000000000E+00  0.61388693679E+03  0.61388693679E+03  0.00000000000E+00 0.  1.
         21   -1    0    0  502  503 -0.00000000000E+00 -0.00000000000E+00 -0.84068319329E+02  0.84068319329E+02  0.00000000000E+00 0.  1.
         -6    2    1    2    0  503 -0.27896715109E+02 -0.88743353123E+02  0.92329313186E+02  0.21647792331E+03  0.17229155455E+03 0.  0.
        -24    2    3    3    0    0  0.41587783885E+02 -0.32807069456E+02  0.12646843606E+02  0.96776839814E+02  0.79999790602E+02 0.  0.
          6    2    1    2  501    0  0.27896715109E+02  0.88743353123E+02  0.43748930427E+03  0.48147733281E+03  0.17824118834E+03 0.  0.
         24    2    5    5    0    0  0.19413623804E+01  0.57211550478E+02  0.93862571968E+02  0.13540023725E+03  0.79032344241E+02 0.  0.
          5    1    5    5  501    0  0.25955352729E+02  0.31531802645E+02  0.34362673231E+03  0.34607709556E+03  0.47000000000E+01 0. -1.
        -13    1    6    6    0    0 -0.29603296490E+02  0.36235285905E+02  0.84164115938E+02  0.96296155268E+02  0.00000000000E+00 0.  1.
         14    1    6    6    0    0  0.31544658870E+02  0.20976264573E+02  0.96984560297E+01  0.39104081987E+02  0.00000000000E+00 0. -1.
         -5    1    3    3    0  503 -0.69484498994E+02 -0.55936283667E+02  0.79682469580E+02  0.11970108349E+03  0.47000000000E+01 0.  1.
         11    1    4    4    0    0  0.42642977383E+02 -0.21045843652E+01  0.37837667716E+02  0.57048592390E+02  0.00000000000E+00 0. -1.
        -12    1    4    4    0    0 -0.10551934985E+01 -0.30702485091E+02 -0.25190824110E+02  0.39728247424E+02  0.00000000000E+00 0.  1.
</event>
<event>
12    1  0.8417180E-002  0.2488895E+03  0.7818608E-02  0.1114296E+00
         21   -1    0    0  503  502  0.00000000000E+00  0.00000000000E+00  0.62633481075E+03  0.62633481075E+03  0.00000000000E+00 0.  1.
         21   -1    0    0  501  503 -0.00000000000E+00 -0.00000000000E+00 -0.32821286677E+03  0.32821286677E+03  0.00000000000E+00 0.  1.
          6    2    1    2  501    0 -0.17444267578E+03  0.30624840945E+02  0.54845418332E+03  0.60154309754E+03  0.17229039144E+03 0.  0.
         24    2    3    3    0    0 -0.73708067525E+02 -0.48051376637E+02  0.29976146742E+03  0.32188694178E+03  0.77540002092E+02 0.  0.
         -6    2    1    2    0  502  0.17444267578E+03 -0.30624840945E+02 -0.25033223934E+03  0.35300457998E+03  0.17486530650E+03 0.  0.
        -24    2    5    5    0    0  0.55736123347E+02  0.38128117122E+02 -0.67938564536E+02  0.12473334342E+03  0.79890485340E+02 0.  0.
          5    1    3    3  501    0 -0.10073460825E+03  0.78676217582E+02  0.24869271590E+03  0.27965615576E+03  0.47000000000E+01 0. -1.
        -13    1    4    4    0    0 -0.64981988922E+02 -0.39434478049E+02  0.30014202285E+03  0.30961745884E+03  0.00000000000E+00 0.  1.
         14    1    4    4    0    0 -0.87260786027E+01 -0.86168985875E+01 -0.38055542804E+00  0.12269482935E+02  0.00000000000E+00 0. -1.
         -5    1    5    5    0  502  0.11870655243E+03 -0.68752958067E+02 -0.18239367480E+03  0.22827123656E+03  0.47000000000E+01 0.  1.
         11    1    6    6    0    0 -0.12715102007E+02  0.14121056944E+02  0.71748039066E+01  0.20311471620E+02  0.00000000000E+00 0. -1.
        -12    1    6    6    0    0  0.68451225355E+02  0.24007060179E+02 -0.75113368443E+02  0.10442187180E+03  0.00000000000E+00 0.  1.
</event>
<event>
12    1  0.8417180E-002  0.2184465E+03  0.7818608E-02  0.1135823E+00
         21   -1    0    0  503  502  0.00000000000E+00  0.00000000000E+00  0.25230096732E+02  0.25230096732E+02  0.00000000000E+00 0. -1.
         21   -1    0    0  501  503 -0.00000000000E+00 -0.00000000000E+00 -0.18585441297E+04  0.18585441297E+04  0.00000000000E+00 0.  1.
          6    2    1    2  501    0 -0.23689254922E+02  0.12787808504E+03 -0.87418254012E+03  0.90008113732E+03  0.17040233236E+03 0.  0.
         24    2    3    3    0    0  0.31501315825E+02  0.43278766971E+02 -0.22517894106E+03  0.24324721210E+03  0.74821561938E+02 0.  0.
         -6    2    1    2    0  502  0.23689254922E+02 -0.12787808504E+03 -0.95913149282E+03  0.98369308909E+03  0.17551321194E+03 0.  0.
        -24    2    5    5    0    0  0.80968205202E+02 -0.87716404977E+02 -0.70869771844E+03  0.72362962752E+03  0.84482919875E+02 0.  0.
          5    1    3    3  501    0 -0.55190570747E+02  0.84599318068E+02 -0.64900359907E+03  0.65683392522E+03  0.47000000000E+01 0. -1.
        -13    1    4    4    0    0  0.27082047196E+02  0.16878768860E+02 -0.21013053617E+03  0.21253981356E+03  0.00000000000E+00 0.  1.
         14    1    4    4    0    0  0.44192686286E+01  0.26399998111E+02 -0.15048404890E+02  0.30707398541E+02  0.00000000000E+00 0. -1.
         -5    1    5    5    0  502 -0.57278950280E+02 -0.40161680062E+02 -0.25043377438E+03  0.26006346156E+03  0.47000000000E+01 0.  1.
         13    1    6    6    0    0 -0.24319762472E+01  0.11465748236E+02 -0.13358346716E+03  0.13409668374E+03  0.00000000000E+00 0. -1.
        -14    1    6    6    0    0  0.83400181449E+02 -0.99182153213E+02 -0.57511425128E+03  0.58953294379E+03  0.00000000000E+00 0.  1.
</event>
<event>
12    1  0.8417180E-002  0.2594818E+03  0.7818608E-02  0.1107507E+00
         21   -1    0    0  501  502  0.00000000000E+00  0.00000000000E+00  0.37102495006E+03  0.37102495006E+03  0.00000000000E+00 0.  1.
         21   -1    0    0  502  503 -0.00000000000E+00 -0.00000000000E+00 -0.29452642101E+03  0.29452642101E+03  0.00000000000E+00 0.  1.
         -6    2    1    2    0  503 -0.83028818073E+02  0.17577577238E+03 -0.16816033578E+03  0.30891601472E+03  0.17134847193E+03 0.  0.
        -24    2    3    3    0    0 -0.38295132990E+02  0.59273983979E+02 -0.14689152814E+03  0.18223443965E+03  0.81561924749E+02 0.  0.
          6    2    1    2  501    0  0.83028818073E+02 -0.17577577238E+03  0.24465886483E+03  0.35663535635E+03  0.17187178497E+03 0.  0.
         24    2    5    5    0    0  0.38500713585E+02 -0.61632603186E+02  0.35192823196E+02  0.11392250592E+03  0.80367405263E+02 0.  0.
          5    1    5    5  501    0  0.44528104488E+02 -0.11414316920E+03  0.20946604163E+03  0.24271285043E+03  0.47000000000E+01 0. -1.
        -11    1    6    6    0    0  0.19593512415E+02 -0.49381266444E+02  0.60182289132E+02  0.80276541589E+02  0.00000000000E+00 0.  1.
         12    1    6    6    0    0  0.18907201170E+02 -0.12251336743E+02 -0.24989465936E+02  0.33645964332E+02  0.00000000000E+00 0. -1.
         -5    1    3    3    0  503 -0.44733685082E+02  0.11650178841E+03 -0.21268807640E+02  0.12668157507E+03  0.47000000000E+01 0.  1.
         13    1    4    4    0    0 -0.63720263794E+02  0.48339445730E+02 -0.10420766956E+03  0.13136290354E+03  0.00000000000E+00 0. -1.
        -14    1    4    4    0    0  0.25425130804E+02  0.10934538249E+02 -0.42683858582E+02  0.50871536114E+02  0.00000000000E+00 0.  1.
</event>
<event>
12    1  0.8417180E-002  0.2590692E+03  0.7818608E-02  0.1108420E+00
         21   -1    0    0  501  502  0.00000000000E+00  0.00000000000E+00  0.21916825856E+03  0.21916825856E+03  0.00000000000E+00 0. -1.
         21   -1    0    0  502  503 -0.00000000000E+00 -0.00000000000E+00 -0.33461146854E+03  0.33461146854E+03  0.00000000000E+00 0. -1.
         -6    2    1    2    0  503 -0.30212819770E+02  0.19174110196E+03 -0.14538477438E+03  0.29298603490E+03  0.16439774744E+03 0.  0.
        -24    2    3    3    0    0 -0.49012609571E+01  0.16138750947E+03 -0.16896395857E+03  0.24672499823E+03  0.79085111617E+02 0.  0.
          6    2    1    2  501    0  0.30212819770E+02 -0.19174110196E+03  0.29941564405E+02  0.26079369221E+03  0.17157910116E+03 0.  0.
         24    2    5    5    0    0 -0.39570769164E+02 -0.60132362199E+02  0.88160768190E+00  0.10894778099E+03  0.81774659862E+02 0.  0.
          5    1    5    5  501    0  0.69783588934E+02 -0.13160873976E+03  0.29059956723E+02  0.15184591121E+03  0.47000000000E+01 0. -1.
        -13    1    6    6    0    0  0.10210699438E+02 -0.57304239694E+01  0.28022615591E+02  0.30370431779E+02  0.00000000000E+00 0.  1.
         14    1    6    6    0    0 -0.49781468602E+02 -0.54401938230E+02 -0.27141007909E+02  0.78577349215E+02  0.00000000000E+00 0. -1.
         -5    1    3    3    0  503 -0.25311558813E+02  0.30353592492E+02  0.23579184194E+02  0.46261036672E+02  0.47000000000E+01 0.  1.
         13    1    4    4    0    0 -0.34239207526E+02  0.13473869853E+03 -0.14241938146E+03  0.19902291434E+03  0.00000000000E+00 0. -1.
        -14    1    4    4    0    0  0.29337946569E+02  0.26648810938E+02 -0.26544577111E+02  0.47702083888E+02  0.00000000000E+00 0.  1.
</event>
<event>
12    1  0.8417180E-002  0.1804056E+03  0.7818608E-02  0.1167459E+00
         21   -1    0    0  501  502  0.00000000000E+00  0.00000000000E+00  0.69445890277E+02  0.69445890277E+02  0.00000000000E+00 0. -1.
         21   -1    0    0  502  503 -0.00000000000E+00 -0.00000000000E+00 -0.56698697920E+03  0.56698697920E+03  0.00000000000E+00 0. -1.
         -6    2    1    2    0  503 -0.46938694955E+02  0.27773223901E+02 -0.11579234204E+03  0.21420272625E+03  0.17175665462E+03 0.  0.
        -24    2    3    3    0    0 -0.61732993375E+02  0.76390490544E+02 -0.64801305992E+02  0.14205921900E+03  0.79593611093E+02 0.  0.
          6    2    1    2  501    0  0.46938694955E+02 -0.27773223901E+02 -0.38174874689E+03  0.42223014323E+03  0.17196393533E+03 0.  0.
         24    2    5    5    0    0  0.19510684473E+02 -0.38644683573E+01 -0.69230085998E+02  0.10756535691E+03  0.79886796623E+02 0.  0.
          5    1    5    5  501    0  0.27428010482E+02 -0.23908755544E+02 -0.31251866089E+03  0.31466478633E+03  0.47000000000E+01 0. -1.
        -13    1    6    6    0    0  0.36399181760E+02  0.14464178232E+02 -0.72524755170E+02  0.82425439017E+02  0.00000000000E+00 0.  1.
         14    1    6    6    0    0 -0.16888497288E+02 -0.18328646590E+02  0.32946691720E+01  0.25139917888E+02  0.00000000000E+00 0. -1.
         -5    1    3    3    0  503  0.14794298420E+02 -0.48617266643E+02 -0.50991036049E+02  0.72143507254E+02  0.47000000000E+01 0.  1.
         11    1    4    4    0    0 -0.58248503824E+02  0.55349432407E+02 -0.72444307247E+01  0.80677937765E+02  0.00000000000E+00 0. -1.
        -12    1    4    4    0    0 -0.34844895507E+01  0.21041058137E+02 -0.57556875267E+02  0.61381281230E+02  0.00000000000E+00 0.  1.
</event>
<event>
12    1  0.8417180E-002  0.2574825E+03  0.7818608E-02  0.1108803E+00
         21   -1    0    0  501  502  0.00000000000E+00  0.00000000000E+00  0.10594928940E+04  0.10594928940E+04  0.00000000000E+00 0. -1.
         21   -1    0    0  502  503 -0.00000000000E+00 -0.00000000000E+00 -0.70793229234E+02  0.70793229234E+02  0.00000000000E+00 0.  1.
         -6    2    1    2    0  503 -0.75855771383E+02 -0.17498436289E+03  0.29848203235E+03  0.39360600112E+03  0.17164071536E+03 0.  0.
        -24    2    3    3    0    0 -0.10844963284E+03 -0.88461343964E+02  0.16453392557E+03  0.23077855282E+03  0.81244049258E+02 0.  0.
          6    2    1    2  501    0  0.75855771383E+02  0.17498436289E+03  0.69021763241E+03  0.73668012212E+03  0.17298438346E+03 0.  0.
         24    2    5    5    0    0  0.86602137373E+02  0.47539941389E+02  0.39325241332E+03  0.41331037043E+03  0.80112580161E+02 0.  0.
          5    1    5    5  501    0 -0.10746365990E+02  0.12744442150E+03  0.29696521910E+03  0.32336975169E+03  0.47000000000E+01 0. -1.
        -11    1    6    6    0    0  0.65024313031E+02 -0.21912053906E+00  0.13563423413E+03  0.15041560679E+03  0.00000000000E+00 0.  1.
         12    1    6    6    0    0  0.21577824342E+02  0.47759061928E+02  0.25761817919E+03  0.26289476364E+03  0.00000000000E+00 0. -1.
         -5    1    3    3    0  503  0.32593861455E+02 -0.86523018924E+02  0.13394810678E+03  0.16282744830E+03  0.47000000000E+01 0.  1.
         13    1    4    4    0    0 -0.15104563018E+02 -0.68453388778E+00  0.69823914059E+02  0.71442252100E+02  0.00000000000E+00 0. -1.
        -14    1    4    4    0    0 -0.93345069819E+02 -0.87776810076E+02  0.94710011509E+02  0.15933630072E+03  0.00000000000E+00 0.  1.
</event>
<event>
12    1  0.8417180E-002  0.2075807E+03  0.7818608E-02  0.1143676E+00
         21   -1    0    0  501  502  0.00000000000E+00  0.00000000000E+00  0.41709062451E+03  0.41709062451E+03  0.00000000000E+00 0. -1.
         21   -1    0    0  502  503 -0.00000000000E+00 -0.00000000000E+00 -0.16762312248E+03  0.16762312248E+03  0.00000000000E+00 0.  1.
         -6    2    1    2    0  503 -0.10704758469E+03 -0.34445912314E+02 -0.56816009756E+02  0.21521569688E+03  0.17448217948E+03 0.  0.
        -24    2    3    3    0    0 -0.12945835490E+03  0.15695295222E+02 -0.38823097075E+02  0.15723105908E+03  0.78794448578E+02 0.  0.
          6    2    1    2  501    0  0.10704758469E+03  0.34445912314E+02  0.30628351179E+03  0.36949805011E+03  0.17341716517E+03 0.  0.
         24    2    5    5    0    0  0.99401507442E+02  0.45114500400E+02  0.11473680586E+03  0.17744464134E+03  0.80038042774E+02 0.  0.
          5    1    5    5  501    0  0.76460772471E+01 -0.10668588086E+02  0.19154670593E+03  0.19205340877E+03  0.47000000000E+01 0. -1.
        -13    1    6    6    0    0  0.37324195484E+02  0.60177062042E+02  0.69085792118E+02  0.98930384802E+02  0.00000000000E+00 0.  1.
         14    1    6    6    0    0  0.62077311958E+02 -0.15062561641E+02  0.45651013746E+02  0.78514256535E+02  0.00000000000E+00 0. -1.
         -5    1    3    3    0  503  0.22410770210E+02 -0.50141207536E+02 -0.17992912681E+02  0.57984637805E+02  0.47000000000E+01 0.  1.
         11    1    4    4    0    0 -0.88268423506E+02 -0.22459911094E+02 -0.40135525014E+01  0.91169461983E+02  0.00000000000E+00 0. -1.
        -12    1    4    4    0    0 -0.41189931393E+02  0.38155206316E+02 -0.34809544574E+02  0.66061597094E+02  0.00000000000E+00 0.  1.
</event>
<event>
12    1  0.8417180E-002  0.1806190E+03  0.7818608E-02  0.1168555E+00
         21   -1    0    0  503  502  0.00000000000E+00  0.00000000000E+00  0.55087262110E+03  0.55087262110E+03  0.00000000000E+00 0. -1.
         21   -1    0    0  501  503 -0.00000000000E+00 -0.00000000000E+00 -0.57859996392E+02  0.57859996392E+02  0.00000000000E+00 0.  1.
          6    2    1    2  501    0  0.18686607541E+02  0.55686735280E+02  0.22400262823E+03  0.28775061030E+03  0.17080115481E+03 0.  0.
         24    2    3    3    0    0 -0.41355785054E+02  0.49121377362E+02  0.70842288111E+02  0.12304368082E+03  0.77446155053E+02 0.  0.
         -6    2    1    2    0  502 -0.18686607541E+02 -0.55686735280E+02  0.26900999647E+03  0.32098200719E+03  0.16496323515E+03 0.  0.
        -24    2    5    5    0    0 -0.38594407999E+02 -0.91152417047E+02  0.22992530589E+03  0.26437955018E+03  0.85044745875E+02 0.  0.
          5    1    3    3  501    0  0.60042392595E+02  0.65653579182E+01  0.15316034012E+03  0.16470692948E+03  0.47000000000E+01 0. -1.
        -11    1    4    4    0    0  0.15860293141E+01 -0.19077640080E+02  0.75871882001E+01  0.20592165131E+02  0.00000000000E+00 0.  1.
         12    1    4    4    0    0 -0.42941814368E+02  0.68199017442E+02  0.63255099911E+02  0.10245151568E+03  0.00000000000E+00 0. -1.
         -5    1    5    5    0  502  0.19907800458E+02  0.35465681767E+02  0.39084690581E+02  0.56602457014E+02  0.47000000000E+01 0.  1.
         13    1    6    6    0    0  0.20600357489E+02 -0.50698777251E+02  0.13299833855E+03  0.14381689330E+03  0.00000000000E+00 0. -1.
        -14    1    6    6    0    0 -0.59194765488E+02 -0.40453639796E+02  0.96926967346E+02  0.12056265688E+03  0.00000000000E+00 0.  1.
</event>
<event>
12    1  0.8417180E-002  0.1800665E+03  0.7818608E-02  0.1167826E+00
         21   -1    0    0  503  502  0.00000000000E+00  0.00000000000E+00  0.39906252379E+02  0.39906252379E+02  0.00000000000E+00 0.  1.
         21   -1    0    0  501  503 -0.00000000000E+00 -0.00000000000E+00 -0.10333164446E+04  0.10333164446E+04  0.00000000000E+00 0.  1.
          6    2    1    2  501    0 -0.22031092441E+02  0.42129144350E+02 -0.74606206182E+03  0.76748455518E+03  0.17367702359E+03 0.  0.
         24    2    3    3    0    0 -0.28718687162E+02 -0.11531347922E+02 -0.17817091629E+03  0.19700526939E+03  0.78156674554E+02 0.  0.
         -6    2    1    2    0  502  0.22031092441E+02 -0.42129144350E+02 -0.24734813040E+03  0.30573814179E+03  0.17330458706E+03 0.  0.
        -24    2    5    5    0    0 -0.52921007654E+02 -0.29777605284E+02 -0.16985992794E+03  0.19712465577E+03  0.79488338542E+02 0.  0.
          5    1    3    3  501    0  0.66875947211E+01  0.53660492273E+02 -0.56789114553E+03  0.57047928580E+03  0.47000000000E+01 0. -1.
        -13    1    4    4    0    0  0.12322535243E+02 -0.19063215614E+02 -0.13526070350E+03  0.13715213806E+03  0.00000000000E+00 0.  1.
         14    1    4    4    0    0 -0.41041222405E+02  0.75318676919E+01 -0.42910212790E+02  0.59853131322E+02  0.00000000000E+00 0. -1.
         -5    1    5    5    0  502  0.74952100095E+02 -0.12351539066E+02 -0.77488202463E+02  0.10861348603E+03  0.47000000000E+01 0.  1.
         11    1    6    6    0    0 -0.17081298456E+02 -0.28315718905E+02 -0.11902445040E+02  0.35145680986E+02  0.00000000000E+00 0. -1.
        -12    1    6    6    0    0 -0.35839709198E+02 -0.14618863794E+01 -0.15795748290E+03  0.16197897478E+03  0.00000000000E+00 0.  1.
</event>
<event>
12    1  0.8417180E-002  0.1753659E+03  0.7818608E-02  0.1172628E+00
         21   -1    0    0  501  502  0.00000000000E+00  0.00000000000E+00  0.17783325528E+04  0.17783325528E+04  0.00000000000E+00 0. -1.
         21   -1    0    0  502  503 -0.00000000000E+00 -0.00000000000E+00 -0.23847514286E+02  0.23847514286E+02  0.00000000000E+00 0. -1.
         -6    2    1    2    0  503 -0.28734712362E+02 -0.21119552461E+02  0.40303610124E+03  0.43953531023E+03  0.17170169144E+03 0.  0.
        -24    2    3    3    0    0  0.17773160271E+02  0.39479686683E+02  0.15748560734E+03  0.18233425063E+03  0.81052646767E+02 0.  0.
          6    2    1    2  501    0  0.28734712362E+02  0.21119552461E+02  0.13514489372E+04  0.13626447568E+04  0.17063054869E+03 0.  0.
         24    2    5    5    0    0 -0.16871929837E+02  0.68025238314E+02  0.93786964159E+03  0.94389658313E+03  0.80182292156E+02 0.  0.
          5    1    5    5  501    0  0.45606642199E+02 -0.46905685853E+02  0.41357929566E+03  0.41874817370E+03  0.47000000000E+01 0. -1.
        -11    1    6    6    0    0 -0.30989402368E+02 -0.10353852266E+01  0.17051623632E+03  0.17331244020E+03  0.00000000000E+00 0.  1.
         12    1    6    6    0    0  0.14117472530E+02  0.69060623541E+02  0.76735340527E+03  0.77058414293E+03  0.00000000000E+00 0. -1.
         -5    1    3    3    0  503 -0.46507872633E+02 -0.60599239144E+02  0.24555049390E+03  0.25720105959E+03  0.47000000000E+01 0.  1.
         11    1    4    4    0    0  0.20060461905E+02 -0.19490229958E+02  0.25893739228E+02  0.38115310925E+02  0.00000000000E+00 0. -1.
        -12    1    4    4    0    0 -0.22873016343E+01  0.58969916641E+02  0.13159186811E+03  0.14421893971E+03  0.00000000000E+00 0.  1.
</event>
<event>
12    1  0.8417180E-002  0.1777618E+03  0.7818608E-02  0.1170266E+00
         21   -1    0    0  501  502  0.00000000000E+00  0.00000000000E+00  0.17756525230E+03  0.17756525230E+03  0.00000000000E+00 0.  1.
         21   -1    0    0  502  503 -0.00000000000E+00 -0.00000000000E+00 -0.22530537340E+03  0.22530537340E+03  0.00000000000E+00 0.  1.
         -6    2    1    2    0  503 -0.10329217853E+02 -0.41137045873E+02 -0.11736736353E+03  0.21301256214E+03  0.17262764646E+03 0.  0.
        -24    2    3    3    0    0 -0.11827852675E+02  0.69594692394E+00  0.83204457581E+01  0.80454044505E+02  0.79140640752E+02 0.  0.
          6    2    1    2  501    0  0.10329217853E+02  0.41137045873E+02  0.69627242428E+02  0.18985806356E+03  0.17146189701E+03 0.  0.
         24    2    5    5    0    0  0.15115114150E+02  0.23979889701E+02  0.11520370309E+03  0.14069937585E+03  0.75636759409E+02 0.  0.
          5    1    5    5  501    0 -0.47858962971E+01  0.17157156172E+02 -0.45576460657E+02  0.49158687710E+02  0.47000000000E+01 0. -1.
        -11    1    6    6    0    0 -0.28877657537E+02  0.12664730769E+02  0.69213840524E+02  0.76058334391E+02  0.00000000000E+00 0.  1.
         12    1    6    6    0    0  0.43992771687E+02  0.11315158933E+02  0.45989862561E+02  0.64641041458E+02  0.00000000000E+00 0. -1.
         -5    1    3    3    0  503  0.14986348222E+01 -0.41832992797E+02 -0.12568780929E+03  0.13255851764E+03  0.47000000000E+01 0.  1.
         13    1    4    4    0    0  0.20458187173E+02  0.26923911064E+02  0.17173209579E+02  0.37925631658E+02  0.00000000000E+00 0. -1.
        -14    1    4    4    0    0 -0.32286039848E+02 -0.26227964140E+02 -0.88527638210E+01  0.42528412847E+02  0.00000000000E+00 0.  1.
</event>
<event>
12    1  0.8417180E-002  0.1846504E+03  0.7818608E-02  0.1163411E+00
         21   -1    0    0  501  502  0.00000000000E+00  0.00000000000E+00  0.17350397438E+02  0.17350397438E+02  0.00000000000E+00 0. -1.
         21   -1    0    0  502  503 -0.00000000000E+00 -0.00000000000E+00 -0.19736639711E+04  0.19736639711E+04  0.00000000000E+00 0. -1.
         -6    2    1    2    0  503 -0.63157390618E+02  0.24455789338E+02 -0.10489674783E+04  0.10650701521E+04  0.17162376471E+03 0.  0.
        -24    2    3    3    0    0 -0.55616661079E+02  0.64083235547E+02 -0.97489791454E+03  0.98059774607E+03  0.62818164228E+02 0.  0.
          6    2    1    2  501    0  0.63157390618E+02 -0.24455789338E+02 -0.90734609530E+03  0.92594421644E+03  0.17178129606E+03 0.  0.
         24    2    5    5    0    0  0.75350344603E+02 -0.17840651637E+02 -0.32918087387E+03  0.34759350843E+03  0.80406691905E+02 0.  0.
          5    1    5    5  501    0 -0.12192953985E+02 -0.66151377006E+01 -0.57816522143E+03  0.57835070800E+03  0.47000000000E+01 0. -1.
        -11    1    6    6    0    0  0.48320486844E+02  0.12302322380E+02 -0.74066484507E+02  0.89286397127E+02  0.00000000000E+00 0.  1.
         12    1    6    6    0    0  0.27029857759E+02 -0.30142974017E+02 -0.25511438936E+03  0.25830711131E+03  0.00000000000E+00 0. -1.
         -5    1    3    3    0  503 -0.75407295398E+01 -0.39627446209E+02 -0.74069563792E+02  0.84472405999E+02  0.47000000000E+01 0.  1.
         13    1    4    4    0    0 -0.44655630682E+02  0.59344493341E+02 -0.49400953804E+03  0.49956112531E+03  0.00000000000E+00 0. -1.
        -14    1    4    4    0    0 -0.10961030397E+02  0.47387422059E+01 -0.48088837649E+03  0.48103662076E+03  0.00000000000E+00 0.  1.
</event>
<event>
12    1  0.8417180E-002  0.1990719E+03  0.7818608E-02  0.1150652E+00
         21   -1    0    0  501  502  0.00000000000E+00  0.00000000000E+00  0.13650083119E+03  0.13650083119E+03  0.00000000000E+00 0. -1.
         21   -1    0    0  502  503 -0.00000000000E+00 -0.00000000000E+00 -0.29664176524E+03  0.29664176524E+03  0.00000000000E+00 0. -1.
         -6    2    1    2    0  503  0.74831004802E+02  0.66540278148E+02 -0.11390579921E+03  0.22935597460E+03  0.17205331760E+03 0.  0.
        -24    2    3    3    0    0  0.10695664828E+03  0.70811254187E+02 -0.53251764843E+02  0.16042629964E+03  0.80292520367E+02 0.  0.
          6    2    1    2  501    0 -0.74831004802E+02 -0.66540278148E+02 -0.46235134839E+02  0.20378662182E+03  0.17135930568E+03 0.  0.
         24    2    5    5    0    0 -0.70129729175E+02  0.18035652057E+02 -0.52445309746E+02  0.11872284436E+03  0.78109791962E+02 0.  0.
          5    1    5    5  501    0 -0.47012756266E+01 -0.84575930205E+02  0.62101749077E+01  0.85063777455E+02  0.47000000000E+01 0. -1.
        -11    1    6    6    0    0 -0.92969875875E+00  0.34938060097E+02 -0.12952097073E+02  0.37273169998E+02  0.00000000000E+00 0.  1.
         12    1    6    6    0    0 -0.69200030416E+02 -0.16902408040E+02 -0.39493212673E+02  0.81449674366E+02  0.00000000000E+00 0. -1.
         -5    1    3    3    0  503 -0.32125643476E+02 -0.42709760385E+01 -0.60654034372E+02  0.68929674964E+02  0.47000000000E+01 0.  1.
         11    1    4    4    0    0  0.27843247875E+02  0.58673542414E+02 -0.12104052643E+01  0.64956109124E+02  0.00000000000E+00 0. -1.
        -12    1    4    4    0    0  0.79113400403E+02  0.12137711773E+02 -0.52041359578E+02  0.95470190516E+02  0.00000000000E+00 0.  1.
</event>
<event>
12    1  0.8417180E-002  0.2017735E+03  0.7818608E-02  0.1150451E+00
         21   -1    0    0  501  502  0.00000000000E+00  0.00000000000E+00  0.44317557860E+02  0.44317557860E+02  0.00000000000E+00 0.  1.
         21   -1    0    0  502  503 -0.00000000000E+00 -0.00000000000E+00 -0.93853936143E+03  0.93853936143E+03  0.00000000000E+00 0.  1.
         -6    2    1    2    0  503  0.43297391264E+02  0.77696832608E+02 -0.30600023321E+03  0.36099106029E+03  0.16960819849E+03 0.  0.
        -24    2    3    3    0    0 -0.19738300253E+02  0.95058046760E+02 -0.19107169561E+03  0.22868244788E+03  0.79759866825E+02 0.  0.
          6    2    1    2  501    0 -0.43297391264E+02 -0.77696832608E+02 -0.58822157036E+03  0.62186585901E+03  0.18111065366E+03 0.  0.
         24    2    5    5    0    0 -0.72642663902E+02 -0.10783784964E+02 -0.21014059013E+03  0.23676091410E+03  0.80643761020E+02 0.  0.
          5    1    5    5  501    0  0.29345272638E+02 -0.66913047645E+02 -0.37808098024E+03  0.38510494490E+03  0.47000000000E+01 0. -1.
        -13    1    6    6    0    0 -0.25222198584E+02  0.27652649606E+02 -0.13423947040E+03  0.13935947669E+03  0.00000000000E+00 0.  1.
         14    1    6    6    0    0 -0.47420465318E+02 -0.38436434570E+02 -0.75901119730E+02  0.97401437411E+02  0.00000000000E+00 0. -1.
         -5    1    3    3    0  503  0.63035691516E+02 -0.17361214151E+02 -0.11492853760E+03  0.13230861241E+03  0.47000000000E+01 0.  1.
         11    1    4    4    0    0  0.43309483375E+01  0.95784039196E+02 -0.17556594277E+03  0.20004184447E+03  0.00000000000E+00 0. -1.
        -12    1    4    4    0    0 -0.24069248590E+02 -0.72599243592E+00 -0.15505752837E+02  0.28640603411E+02  0.00000000000E+00 0.  1.
</event>
<event>
12    1  0.8417180E-002  0.1752819E+03  0.7818608E-02  0.1173516E+00
         21   -1    0    0  503  502  0.00000000000E+00  0.00000000000E+00  0.59534601295E+03  0.59534601295E+03  0.00000000000E+00 0. -1.
         21   -1    0    0  501  503 -0.00000000000E+00 -0.00000000000E+00 -0.24957750734E+03  0.24957750734E+03  0.00000000000E+00 0. -1.
          6    2    1    2  501    0  0.13401056400E+02 -0.25396540161E+02 -0.20411178273E+03  0.26904528504E+03  0.17291377327E+03 0.  0.
         24    2    3    3    0    0  0.53607238738E+02 -0.42343620991E+02 -0.66499016538E+02  0.12460462571E+03  0.80233878535E+02 0.  0.
         -6    2    1    2    0  502 -0.13401056400E+02  0.25396540161E+02  0.54988028834E+03  0.57587823525E+03  0.16865004525E+03 0.  0.
        -24    2    5    5    0    0  0.18225361920E+02 -0.44070447170E+02  0.32706926541E+03  0.34030927591E+03  0.81004510759E+02 0.  0.
          5    1    3    3  501    0 -0.40206182338E+02  0.16947080830E+02 -0.13761276620E+03  0.14444065933E+03  0.47000000000E+01 0. -1.
        -11    1    4    4    0    0  0.73927396830E+02 -0.40472485461E+02 -0.47613559458E+02  0.96800481020E+02  0.00000000000E+00 0.  1.
         12    1    4    4    0    0 -0.20320158091E+02 -0.18711355307E+01 -0.18885457080E+02  0.27804144694E+02  0.00000000000E+00 0. -1.
         -5    1    5    5    0  502 -0.31626418321E+02  0.69466987331E+02  0.22281102293E+03  0.23556895933E+03  0.47000000000E+01 0.  1.
         11    1    6    6    0    0  0.27026002432E+02  0.57250662460E+01  0.22191847526E+03  0.22363137270E+03  0.00000000000E+00 0. -1.
        -12    1    6    6    0    0 -0.88006405116E+01 -0.49795513416E+02  0.10515079015E+03  0.11667790322E+03  0.00000000000E+00 0.  1.
</event>
<event>
12    1  0.8417180E-002  0.3049791E+03  0.7818608E-02  0.1082906E+00
         21   -1    0    0  503  502  0.00000000000E+00  0.00000000000E+00  0.83798770588E+02  0.83798770588E+02  0.00000000000E+00 0.  1.
         21   -1    0    0  501  503 -0.00000000000E+00 -0.00000000000E+00 -0.11103629454E+04  0.11103629454E+04  0.00000000000E+00 0. -1.
          6    2    1    2  501    0  0.16003720226E+03 -0.19365139865E+03 -0.55090860212E+03  0.62969239836E+03  0.17291459846E+03 0.  0.
         24    2    3    3    0    0  0.12418316181E+03 -0.13079084256E+03 -0.24068710772E+03  0.31110735899E+03  0.79560057922E+02 0.  0.
         -6    2    1    2    0  502 -0.16003720226E+03  0.19365139865E+03 -0.47565557274E+03  0.56446931767E+03  0.17106903988E+03 0.  0.
        -24    2    5    5    0    0 -0.98802753891E+02  0.19860550075E+03 -0.41943991394E+03  0.48106373578E+03  0.79286489251E+02 0.  0.
          5    1    3    3  501    0  0.35854040450E+02 -0.62860556095E+02 -0.31022149440E+03  0.31858503938E+03  0.47000000000E+01 0. -1.
        -11    1    4    4    0    0  0.70396658271E+02 -0.10527094465E+03 -0.20710481783E+03  0.24275515824E+03  0.00000000000E+00 0.  1.
         12    1    4    4    0    0  0.53786503542E+02 -0.25519897906E+02 -0.33582289892E+02  0.68352200746E+02  0.00000000000E+00 0. -1.
         -5    1    5    5    0  502 -0.61234448371E+02 -0.49541020991E+01 -0.56215658801E+02  0.83405581884E+02  0.47000000000E+01 0.  1.
         13    1    6    6    0    0 -0.63455956780E+02  0.93043496405E+02 -0.28544203101E+03  0.30685648721E+03  0.00000000000E+00 0. -1.
        -14    1    6    6    0    0 -0.35346797112E+02  0.10556200435E+03 -0.13399788293E+03  0.17420724858E+03  0.00000000000E+00 0.  1.
</event>
<event>
12    1  0.8417180E-002  0.1771937E+03  0.7818608E-02  0.1170886E+00
         21   -1    0    0  503  502  0.00000000000E+00  0.00000000000E+00  0.75602320181E+03  0.75602320181E+03  0.00000000000E+00 0. -1.
         21   -1    0    0  501  503 -0.00000000000E+00 -0.00000000000E+00 -0.54193050222E+02  0.54193050222E+02  0.00000000000E+00 0. -1.
          6    2    1    2  501    0 -0.23712283837E+02  0.33486028827E+02  0.15159624566E+03  0.23215486516E+03  0.17097038688E+03 0.  0.
         24    2    3    3    0    0 -0.47963996601E+02 -0.13840934810E+02  0.15190661323E+03  0.17876785001E+03  0.79938780358E+02 0.  0.
         -6    2    1    2    0  502  0.23712283837E+02 -0.33486028827E+02  0.55023390593E+03  0.57806138687E+03  0.17237757751E+03 0.  0.
        -24    2    5    5    0    0  0.71486747980E+02  0.14955276281E+02  0.33575415250E+03  0.35300003058E+03  0.80895953195E+02 0.  0.
          5    1    3    3  501    0  0.24251712764E+02  0.47326963637E+02 -0.31036757494E+00  0.53387015155E+02  0.47000000000E+01 0. -1.
        -13    1    4    4    0    0 -0.16279187873E+02 -0.44908652280E+02  0.97391889602E+02  0.10847570773E+03  0.00000000000E+00 0.  1.
         14    1    4    4    0    0 -0.31684808728E+02  0.31067717470E+02  0.54514723632E+02  0.70292142275E+02  0.00000000000E+00 0. -1.
         -5    1    5    5    0  502 -0.47774464144E+02 -0.48441305109E+02  0.21447975343E+03  0.22506135629E+03  0.47000000000E+01 0.  1.
         13    1    6    6    0    0 -0.18219768468E+02  0.33632219902E+01  0.58603944126E+02  0.61462944058E+02  0.00000000000E+00 0. -1.
        -14    1    6    6    0    0  0.89706516449E+02  0.11592054291E+02  0.27715020837E+03  0.29153708652E+03  0.00000000000E+00 0.  1.
</event>
<event>
12    1  0.8417180E-002  0.1822187E+03  0.7818608E-02  0.1166191E+00
         21   -1    0    0  503  502  0.00000000000E+00  0.00000000000E+00  0.82561171214E+02  0.82561171214E+02  0.00000000000E+00 0.  1.
         21   -1    0    0  501  503 -0.00000000000E+00 -0.00000000000E+00 -0.48403880188E+03  0.48403880188E+03  0.00000000000E+00 0.  1.
          6    2    1    2  501    0  0.52714776140E+02  0.30320132675E+02 -0.31960249464E+03  0.36683216379E+03  0.16947543699E+03 0.  0.
         24    2    3    3    0    0  0.86046700295E+02 -0.20651925824E+02 -0.21020553917E+03  0.24153670585E+03  0.79517764688E+02 0.  0.
         -6    2    1    2    0  502 -0.52714776140E+02 -0.30320132675E+02 -0.81875136023E+02  0.19976780930E+03  0.17177159738E+03 0.  0.
        -24    2    5    5    0    0 -0.49500142151E+02 -0.37622247408E+02 -0.12177158275E+03  0.15881086590E+03  0.80789078387E+02 0.  0.
          5    1    3    3  501    0 -0.33331924156E+02  0.50972058499E+02 -0.10939695546E+03  0.12529545794E+03  0.47000000000E+01 0. -1.
        -13    1    4    4    0    0  0.37194239018E+02  0.23354549285E+02 -0.13333731125E+03  0.14038406234E+03  0.00000000000E+00 0.  1.
         14    1    4    4    0    0  0.48852461277E+02 -0.44006475109E+02 -0.76868227929E+02  0.10115264351E+03  0.00000000000E+00 0. -1.
         -5    1    5    5    0  502 -0.32146339887E+01  0.73021147335E+01  0.39896446732E+02  0.40956943405E+02  0.47000000000E+01 0.  1.
         11    1    6    6    0    0  0.16032601537E+02 -0.31021357696E+02 -0.31232510054E+02  0.46849104897E+02  0.00000000000E+00 0. -1.
        -12    1    6    6    0    0 -0.65532743689E+02 -0.66008897127E+01 -0.90539072701E+02  0.11196176100E+03  0.00000000000E+00 0.  1.
</event>
<event>
12    1  0.8417180E-002  0.2186517E+03  0.7818608E-02  0.1134905E+00
         21   -1    0    0  503  502  0.00000000000E+00  0.00000000000E+00  0.58156635907E+02  0.58156635907E+02  0.00000000000E+00 0.  1.
         21   -1    0    0  501  503 -0.00000000000E+00 -0.00000000000E+00 -0.88200908342E+03  0.88200908342E+03  0.00000000000E+00 0.  1.
          6    2    1    2  501    0 -0.37239395215E+02  0.13013341229E+03 -0.53479046310E+03  0.57776241459E+03  0.17171805596E+03 0.  0.
         24    2    3    3    0    0 -0.45637871946E+02  0.25082353845E+02 -0.14515539280E+03  0.17409939015E+03  0.80799565359E+02 0.  0.
         -6    2    1    2    0  502  0.37239395215E+02 -0.13013341229E+03 -0.28906198441E+03  0.36240330473E+03  0.17163288409E+03 0.  0.
        -24    2    5    5    0    0 -0.35524944874E+02 -0.26181778941E+02 -0.10395291436E+03  0.13793047992E+03  0.79190287478E+02 0.  0.
          5    1    3    3  501    0  0.83984767315E+01  0.10505105844E+03 -0.38963507030E+03  0.40366302444E+03  0.47000000000E+01 0. -1.
        -13    1    4    4    0    0 -0.29585174970E+02  0.33685240427E+02 -0.14890242000E+03  0.15550533329E+03  0.00000000000E+00 0.  1.
         14    1    4    4    0    0 -0.16052696976E+02 -0.86028865823E+01  0.37470271976E+01  0.18594056861E+02  0.00000000000E+00 0. -1.
         -5    1    5    5    0  502  0.72764340089E+02 -0.10395163335E+03 -0.18510907005E+03  0.22447282481E+03  0.47000000000E+01 0.  1.
         13    1    6    6    0    0 -0.30869131336E+01  0.27444293430E+02 -0.26252642461E+02  0.38104061604E+02  0.00000000000E+00 0. -1.
        -14    1    6    6    0    0 -0.32438031741E+02 -0.53626072371E+02 -0.77700271897E+02  0.99826418317E+02  0.00000000000E+00 0.  1.
</event>
<event>
12    1  0.8417180E-002  0.1888378E+03  0.7818608E-02  0.1159584E+00
         21   -1    0    0  501  502  0.00000000000E+00  0.00000000000E+00  0.47708331860E+02  0.47708331860E+02  0.00000000000E+00 0. -1.
         21   -1    0    0  502  503 -0.00000000000E+00 -0.00000000000E+00 -0.87836360813E+03  0.87836360813E+03  0.00000000000E+00 0. -1.
         -6    2    1    2    0  503  0.41068960869E+01 -0.79283718406E+02 -0.59462728266E+03  0.62379899531E+03  0.17099943471E+03 0.  0.
        -24    2    3    3    0    0  0.36308070244E+01 -0.68424370387E+02 -0.60118025103E+03  0.61026446559E+03  0.79435171777E+02 0.  0.
          6    2    1    2  501    0 -0.41068960869E+01  0.79283718406E+02 -0.23602799361E+03  0.30227294468E+03  0.17133868424E+03 0.  0.
         24    2    5    5    0    0  0.17125507441E+02  0.67545492788E+02 -0.25150995740E+03  0.27311163293E+03  0.80479989854E+02 0.  0.
          5    1    5    5  501    0 -0.21232403528E+02  0.11738225619E+02  0.15481963790E+02  0.29161311751E+02  0.47000000000E+01 0. -1.
        -11    1    6    6    0    0  0.33359685572E+02 -0.35306380957E+01 -0.78367474401E+02  0.85245498831E+02  0.00000000000E+00 0.  1.
         12    1    6    6    0    0 -0.16234178131E+02  0.71076130883E+02 -0.17314248300E+03  0.18786613410E+03  0.00000000000E+00 0. -1.
         -5    1    3    3    0  503  0.47608906253E+00 -0.10859348019E+02  0.65529683728E+01  0.13534529718E+02  0.47000000000E+01 0.  1.
         13    1    4    4    0    0 -0.93840019955E+01  0.10669930737E+02 -0.23426008314E+03  0.23469063353E+03  0.00000000000E+00 0. -1.
        -14    1    4    4    0    0  0.13014809020E+02 -0.79094301124E+02 -0.36692016789E+03  0.37557383206E+03  0.00000000000E+00 0.  1.
</event>
<event>
12    1  0.8417180E-002  0.2063273E+03  0.7818608E-02  0.1145987E+00
         21   -1    0    0  503  502  0.00000000000E+00  0.00000000000E+00  0.17632302431E+03  0.17632302431E+03  0.00000000000E+00 0.  1.
         21   -1    0    0  501  503 -0.00000000000E+00 -0.00000000000E+00 -0.24356566579E+03  0.24356566579E+03  0.00000000000E+00 0.  1.
          6    2    1    2  501    0  0.49890909870E+02  0.10326624227E+03 -0.76514847563E+02  0.21335312586E+03  0.16282510475E+03 0.  0.
         24    2    3    3    0    0  0.24855066205E+02  0.40552733003E+02 -0.10391319002E+03  0.14032890466E+03  0.81436797299E+02 0.  0.
         -6    2    1    2    0  502 -0.49890909870E+02 -0.10326624227E+03  0.92722060835E+01  0.20653556424E+03  0.17151660506E+03 0.  0.
        -24    2    5    5    0    0 -0.49749967838E+02  0.33256244095E+01  0.31997158672E+02  0.97446795909E+02  0.77368861904E+02 0.  0.
          5    1    3    3  501    0  0.25035843666E+02  0.62713509266E+02  0.27398342452E+02  0.73024221198E+02  0.47000000000E+01 0. -1.
        -11    1    4    4    0    0  0.51369962133E+01  0.55553990996E+02 -0.10099697220E+03  0.11538207416E+03  0.00000000000E+00 0.  1.
         12    1    4    4    0    0  0.19718069991E+02 -0.15001257992E+02 -0.29162178198E+01  0.24946830498E+02  0.00000000000E+00 0. -1.
         -5    1    5    5    0  502 -0.14094203176E+00 -0.10659186668E+03 -0.22724952589E+02  0.10908876833E+03  0.47000000000E+01 0.  1.
         13    1    6    6    0    0 -0.26558235681E+01  0.31598719524E+02  0.28117400847E+02  0.42380664279E+02  0.00000000000E+00 0. -1.
        -14    1    6    6    0    0 -0.47094144270E+02 -0.28273095114E+02  0.38797578250E+01  0.55066131630E+02  0.00000000000E+00 0.  1.
</event>
<event>
12    1  0.8417180E-002  0.4346361E+03  0.7818608E-02  0.1032449E+00
         21   -1    0    0  501  502  0.00000000000E+00  0.00000000000E+00  0.13790824905E+04  0.13790824905E+04  0.00000000000E+00 0.  1.
         21   -1    0    0  502  503 -0.00000000000E+00 -0.00000000000E+00 -0.27389917523E+03  0.27389917523E+03  0.00000000000E+00 0. -1.
         -6    2    1    2    0  503 -0.10757600716E+02  0.39817375149E+03 -0.32308031943E+02  0.43528091869E+03  0.17253291539E+03 0.  0.
        -24    2    3    3    0    0 -0.53430961092E+02  0.30067068572E+03 -0.67745849140E+02  0.32300539861E+03  0.80531103311E+02 0.  0.
          6    2    1    2  501    0  0.10757600716E+02 -0.39817375149E+03  0.11374913472E+04  0.12177007470E+04  0.17392665696E+03 0.  0.
         24    2    5    5    0    0  0.48089421271E+02 -0.13823434892E+03  0.34951311820E+03  0.38710220548E+03  0.79166723035E+02 0.  0.
          5    1    5    5  501    0 -0.37331820555E+02 -0.25993940257E+03  0.78797822899E+03  0.83059854153E+03  0.47000000000E+01 0. -1.
        -13    1    6    6    0    0  0.44403790263E+02 -0.66510186897E+02  0.26177739655E+03  0.27372012512E+03  0.00000000000E+00 0.  1.
         14    1    6    6    0    0  0.36856310077E+01 -0.71724162026E+02  0.87735721648E+02  0.11338208036E+03  0.00000000000E+00 0. -1.
         -5    1    3    3    0  503  0.42673360377E+02  0.97503065770E+02  0.35437817197E+02  0.11227552008E+03  0.47000000000E+01 0.  1.
         11    1    4    4    0    0  0.69001910175E+01  0.18698093531E+03 -0.41195342440E+02  0.19158950661E+03  0.00000000000E+00 0. -1.
        -12    1    4    4    0    0 -0.60331152110E+02  0.11368975041E+03 -0.26550506700E+02  0.13141589200E+03  0.00000000000E+00 0.  1.
</event>
<event>
12    1  0.8417180E-002  0.2385052E+03  0.7818608E-02  0.1120849E+00
         21   -1    0    0  501  502  0.00000000000E+00  0.00000000000E+00  0.44854040697E+02  0.44854040697E+02  0.00000000000E+00 0.  1.
         21   -1    0    0  502  503 -0.00000000000E+00 -0.00000000000E+00 -0.13710922784E+04  0.13710922784E+04  0.00000000000E+00 0.  1.
         -6    2    1    2    0  503 -0.16158585812E+03 -0.32905979116E+02 -0.85915875757E+03  0.89164931380E+03  0.17231347909E+03 0.  0.
        -24    2    3    3    0    0 -0.17609004602E+03 -0.20638669435E+02 -0.84600292826E+03  0.86806914844E+03  0.79933928168E+02 0.  0.
          6    2    1    2  501    0  0.16158585812E+03  0.32905979116E+02 -0.46707948010E+03  0.52429700527E+03  0.17184678058E+03 0.  0.
         24    2    5    5    0    0  0.84013475374E+02  0.80999984701E+02 -0.33715025727E+03  0.36544424047E+03  0.79119753231E+02 0.  0.
          5    1    5    5  501    0  0.77572382745E+02 -0.48094005585E+02 -0.12992922283E+03  0.15885276480E+03  0.47000000000E+01 0. -1.
        -11    1    6    6    0    0  0.83800129825E+02  0.31849725545E+02 -0.24699994664E+03  0.26276575198E+03  0.00000000000E+00 0.  1.
         12    1    6    6    0    0  0.21334554956E+00  0.49150259157E+02 -0.90150310628E+02  0.10267848849E+03  0.00000000000E+00 0. -1.
         -5    1    3    3    0  503  0.14504187896E+02 -0.12267309681E+02 -0.13155829316E+02  0.23580165358E+02  0.47000000000E+01 0.  1.
         13    1    4    4    0    0 -0.99486288178E+02  0.23945428515E+02 -0.53425676897E+03  0.54396801402E+03  0.00000000000E+00 0. -1.
        -14    1    4    4    0    0 -0.76603757838E+02 -0.44584097950E+02 -0.31174615929E+03  0.32410113442E+03  0.00000000000E+00 0.  1.
</event>
<event>
12    1  0.8417180E-002  0.2461662E+03  0.7818608E-02  0.1115979E+00
         21   -1    0    0  503  502  0.00000000000E+00  0.00000000000E+00  0.34520026717E+03  0.34520026717E+03  0.00000000000E+00 0.  1.
         21   -1    0    0  501  503 -0.00000000000E+00 -0.00000000000E+00 -0.18887749897E+03  0.18887749897E+03  0.00000000000E+00 0.  1.
          6    2    1    2  501    0  0.12649477196E+03  0.12352541942E+03  0.15152196359E+03  0.28786471073E+03  0.16925640211E+03 0.  0.
         24    2    3    3    0    0  0.10693686821E+03  0.14078561035E+03  0.16991953284E+03  0.25560039074E+03  0.72130647039E+02 0.  0.
         -6    2    1    2    0  502 -0.12649477196E+03 -0.12352541942E+03  0.48008046145E+01  0.24621305541E+03  0.17128445450E+03 0.  0.
        -24    2    5    5    0    0 -0.12953415017E+03 -0.33310538960E+02  0.66351454375E+01  0.15580610168E+03  0.79641874037E+02 0.  0.
          5    1    3    3  501    0  0.19557903753E+02 -0.17260190930E+02 -0.18397569247E+02  0.32264319989E+02  0.47000000000E+01 0. -1.
        -11    1    4    4    0    0  0.53713531274E+01  0.44141952127E+02  0.15646325113E+02  0.47139907314E+02  0.00000000000E+00 0.  1.
         12    1    4    4    0    0  0.10156551508E+03  0.96643658227E+02  0.15427320772E+03  0.20846048343E+03  0.00000000000E+00 0. -1.
         -5    1    5    5    0  502  0.30393782051E+01 -0.90214880464E+02 -0.18343408230E+01  0.90406953733E+02  0.47000000000E+01 0.  1.
         11    1    6    6    0    0  0.23739098813E+01 -0.64738622914E+01  0.19402794240E+02  0.20591618815E+02  0.00000000000E+00 0. -1.
        -12    1    6    6    0    0 -0.13190806005E+03 -0.26836676669E+02 -0.12767648803E+02  0.13521448286E+03  0.00000000000E+00 0.  1.
</event>
<event>
12    1  0.8417180E-002  0.1855820E+03  0.7818608E-02  0.1163007E+00
         21   -1    0    0  503  502  0.00000000000E+00  0.00000000000E+00  0.22669938428E+03  0.22669938428E+03  0.00000000000E+00 0.  1.
         21   -1    0    0  501  503 -0.00000000000E+00 -0.00000000000E+00 -0.35534906881E+03  0.35534906881E+03  0.00000000000E+00 0.  1.
          6    2    1    2  501    0 -0.17088548083E+00  0.65053089320E+02 -0.28561627519E+03  0.34061317643E+03  0.17380663299E+03 0.  0.
         24    2    3    3    0    0 -0.21331728374E+02 -0.33071743221E+02 -0.11618870052E+03  0.14362572228E+03  0.74697731804E+02 0.  0.
         -6    2    1    2    0  502  0.17088548083E+00 -0.65053089320E+02  0.15696659066E+03  0.24143527667E+03  0.17152419248E+03 0.  0.
        -24    2    5    5    0    0  0.64958784652E+02 -0.43811070203E+02  0.11854647478E+03  0.16303316854E+03  0.79921797937E+02 0.  0.
          5    1    3    3  501    0  0.21160842894E+02  0.98124832541E+02 -0.16942757467E+03  0.19698745415E+03  0.47000000000E+01 0. -1.
        -11    1    4    4    0    0 -0.13500747619E+02 -0.53434196133E+02 -0.10616222739E+03  0.11961564291E+03  0.00000000000E+00 0.  1.
         12    1    4    4    0    0 -0.78309807558E+01  0.20362452912E+02 -0.10026473128E+02  0.24010079375E+02  0.00000000000E+00 0. -1.
         -5    1    5    5    0  502 -0.64787899171E+02 -0.21242019117E+02  0.38420115877E+02  0.78402108130E+02  0.47000000000E+01 0.  1.
         11    1    6    6    0    0  0.50712409758E+02  0.12198153725E+02  0.71552056681E+02  0.88545131278E+02  0.00000000000E+00 0. -1.
        -12    1    6    6    0    0  0.14246374894E+02 -0.56009223928E+02  0.46994418101E+02  0.74488037263E+02  0.00000000000E+00 0.  1.
</event>
<event>
12    1  0.8417180E-002  0.3102421E+03  0.7818608E-02  0.1080239E+00
         21   -1    0    0  501  502  0.00000000000E+00  0.00000000000E+00  0.30934342618E+03  0.30934342618E+03  0.00000000000E+00 0. -1.
         21   -1    0    0  502  503 -0.00000000000E+00 -0.00000000000E+00 -0.64034135634E+03  0.64034135634E+03  0.00000000000E+00 0.  1.
         -6    2    1    2    0  503  0.21773597794E+03  0.13959917419E+03 -0.50601190741E+03  0.59354712027E+03  0.17132789618E+03 0.  0.
        -24    2    3    3    0    0  0.13047955392E+03  0.74793145724E+02 -0.42372087418E+03  0.45713814325E+03  0.82564969366E+02 0.  0.
          6    2    1    2  501    0 -0.21773597794E+03 -0.13959917419E+03  0.17501397726E+03  0.35613766226E+03  0.17119362348E+03 0.  0.
         24    2    5    5    0    0 -0.19342055497E+03 -0.79251980322E+02  0.69668957225E+02  0.23223170256E+03  0.73385370511E+02 0.  0.
          5    1    5    5  501    0 -0.24315422970E+02 -0.60347193868E+02  0.10534502003E+03  0.12390595969E+03  0.47000000000E+01 0. -1.
        -11    1    6    6    0    0 -0.88873358514E+01 -0.26703611382E+02  0.11335798398E+00  0.28143923845E+02  0.00000000000E+00 0.  1.
         12    1    6    6    0    0 -0.18453321912E+03 -0.52548368940E+02  0.69555599241E+02  0.20408777872E+03  0.00000000000E+00 0. -1.
         -5    1    3    3    0  503  0.87256424021E+02  0.64806028465E+02 -0.82291033233E+02  0.13640897701E+03  0.47000000000E+01 0.  1.
         13    1    4    4    0    0  0.20691608117E+02 -0.24730976090E+01 -0.11922552467E+02  0.24008459251E+02  0.00000000000E+00 0. -1.
        -14    1    4    4    0    0  0.10978794580E+03  0.77266243333E+02 -0.41179832171E+03  0.43312968400E+03  0.00000000000E+00 0.  1.
</event>
<event>
12    1  0.8417180E-002  0.2195515E+03  0.7818608E-02  0.1134327E+00
         21   -1    0    0  503  502  0.00000000000E+00  0.00000000000E+00  0.39390338380E+03  0.39390338380E+03  0.00000000000E+00 0.  1.
         21   -1    0    0  501  503 -0.00000000000E+00 -0.00000000000E+00 -0.12427451496E+03  0.12427451496E+03  0.00000000000E+00 0.  1.
          6    2    1    2  501    0  0.13537373035E+03 -0.12968335976E+02  0.99961449946E+02  0.24070740357E+03  0.17162033112E+03 0.  0.
         24    2    3    3    0    0  0.14549133833E+03  0.29985051409E+02  0.10076576815E+03  0.19632163551E+03  0.79508563689E+02 0.  0.
         -6    2    1    2    0  502 -0.13537373035E+03  0.12968335976E+02  0.16966741889E+03  0.27747049519E+03  0.17236188111E+03 0.  0.
        -24    2    5    5    0    0 -0.61189017399E+02 -0.27054317787E+01  0.17441042391E+03  0.20135463135E+03  0.79832802691E+02 0.  0.
          5    1    3    3  501    0 -0.10117607983E+02 -0.42953387385E+02 -0.80431820510E+00  0.44385768067E+02  0.47000000000E+01 0. -1.
        -13    1    4    4    0    0  0.12361872982E+03  0.17801927115E+01  0.10248783304E+03  0.16058802997E+03  0.00000000000E+00 0.  1.
         14    1    4    4    0    0  0.21872608507E+02  0.28204858698E+02 -0.17220648881E+01  0.35733605535E+02  0.00000000000E+00 0. -1.
         -5    1    5    5    0  502 -0.74184712947E+02  0.15673767754E+02 -0.47430050212E+01  0.76115863834E+02  0.47000000000E+01 0.  1.
         13    1    6    6    0    0  0.12422374537E+02  0.15855474953E+02  0.16110431645E+02  0.25792585813E+02  0.00000000000E+00 0. -1.
        -14    1    6    6    0    0 -0.73611391936E+02 -0.18560906732E+02  0.15829999227E+03  0.17556204554E+03  0.00000000000E+00 0.  1.
</event>
<event>
12    1  0.8417180E-002  0.2404925E+03  0.7818608E-02  0.1119632E+00
         21   -1    0    0  503  502  0.00000000000E+00  0.00000000000E+00  0.59722775990E+03  0.59722775990E+03  0.00000000000E+00 0. -1.
         21   -1    0    0  501  503 -0.00000000000E+00 -0.00000000000E+00 -0.21609094955E+03  0.21609094955E+03  0.00000000000E+00 0.  1.
          6    2    1    2  501    0 -0.15563482501E+03  0.60963825269E+02 -0.11221182764E+03  0.26447491835E+03  0.17151297743E+03 0.  0.
         24    2    3    3    0    0 -0.14293112024E+03  0.85534545359E+02 -0.42511157793E+02  0.18933918932E+03  0.79351537417E+02 0.  0.
         -6    2    1    2    0  502  0.15563482501E+03 -0.60963825269E+02  0.49334863799E+03  0.54884379111E+03  0.17290992362E+03 0.  0.
        -24    2    5    5    0    0  0.52151592584E+01 -0.34319409926E+02  0.19182030638E+03  0.21079434876E+03  0.80213513474E+02 0.  0.
          5    1    3    3  501    0 -0.12703704763E+02 -0.24570720090E+02 -0.69700669844E+02  0.75135729032E+02  0.47000000000E+01 0. -1.
        -13    1    4    4    0    0 -0.89581137515E+02  0.50628476968E+02  0.14372200090E+02  0.10389698270E+03  0.00000000000E+00 0.  1.
         14    1    4    4    0    0 -0.53349982729E+02  0.34906068391E+02 -0.56883357883E+02  0.85442206618E+02  0.00000000000E+00 0. -1.
         -5    1    5    5    0  502  0.15041966575E+03 -0.26644415343E+02  0.30152833161E+03  0.33804944235E+03  0.47000000000E+01 0.  1.
         11    1    6    6    0    0 -0.25678144154E+02 -0.23492637860E+01  0.14071407635E+03  0.14305711241E+03  0.00000000000E+00 0. -1.
        -12    1    6    6    0    0  0.30893303413E+02 -0.31970146140E+02  0.51106230026E+02  0.67737236343E+02  0.00000000000E+00 0.  1.
</event>
<event>
12    1  0.8417180E-002  0.2115982E+03  0.7818608E-02  0.1140493E+00
         21   -1    0    0  501  502  0.00000000000E+00  0.00000000000E+00  0.76951031757E+02  0.76951031757E+02  0.00000000000E+00 0. -1.
         21   -1    0    0  502  503 -0.00000000000E+00 -0.00000000000E+00 -0.59005933823E+03  0.59005933823E+03  0.00000000000E+00 0. -1.
         -6    2    1    2    0  503  0.74809377179E+02 -0.97009185140E+02 -0.30229008614E+03  0.36898929093E+03  0.17252992705E+03 0.  0.
        -24    2    3    3    0    0  0.68659231432E+02 -0.12752635361E+03 -0.17561732863E+03  0.23846266775E+03  0.71034758163E+02 0.  0.
          6    2    1    2  501    0 -0.74809377179E+02  0.97009185140E+02 -0.21081822033E+03  0.29802107905E+03  0.17136223803E+03 0.  0.
         24    2    5    5    0    0  0.23103204799E+01  0.99527245535E+02 -0.16265338494E+03  0.20694018225E+03  0.80356114950E+02 0.  0.
          5    1    5    5  501    0 -0.77119697659E+02 -0.25180603956E+01 -0.48164835383E+02  0.91080896804E+02  0.47000000000E+01 0. -1.
        -11    1    6    6    0    0  0.29106643365E+02  0.12946118359E+02 -0.19018927579E+02  0.37101459200E+02  0.00000000000E+00 0.  1.
         12    1    6    6    0    0 -0.26796322885E+02  0.86581127177E+02 -0.14363445737E+03  0.16983872305E+03  0.00000000000E+00 0. -1.
         -5    1    3    3    0  503  0.61501457466E+01  0.30517168473E+02 -0.12667275751E+03  0.13052662319E+03  0.47000000000E+01 0.  1.
         11    1    4    4    0    0  0.69927388642E+02 -0.77870079625E+02 -0.14906953490E+03  0.18214092131E+03  0.00000000000E+00 0. -1.
        -12    1    4    4    0    0 -0.12681572099E+01 -0.49656273988E+02 -0.26547793734E+02  0.56321746433E+02  0.00000000000E+00 0.  1.
</event>
<event>
12    1  0.8417180E-002  0.2785556E+03  0.7818608E-02  0.1096502E+00
         21   -1    0    0  503  502  0.00000000000E+00  0.00000000000E+00  0.18974539157E+03  0.18974539157E+03  0.00000000000E+00 0. -1.
         21   -1    0    0  501  503 -0.00000000000E+00 -0.00000000000E+00 -0.45815944468E+03  0.45815944468E+03  0.00000000000E+00 0. -1.
          6    2    1    2  501    0  0.21867872442E+03 -0.18901949317E+02 -0.24060960585E+03  0.36796498501E+03  0.17125296949E+03 0.  0.
         24    2    3    3    0    0  0.69599920052E+02  0.28942528492E+02 -0.48403104135E+02  0.12001536659E+03  0.79868697887E+02 0.  0.
         -6    2    1    2    0  502 -0.21867872442E+03  0.18901949317E+02 -0.27804447266E+02  0.27993985124E+03  0.17150966394E+03 0.  0.
        -24    2    5    5    0    0 -0.13187202596E+03  0.79510551020E+02 -0.20398181681E+02  0.17370544877E+03  0.77751772733E+02 0.  0.
          5    1    3    3  501    0  0.14907880437E+03 -0.47844477808E+02 -0.19220650171E+03  0.24794961841E+03  0.47000000000E+01 0. -1.
        -11    1    4    4    0    0  0.95870423904E-02  0.75268002277E+01  0.19222756417E+02  0.20643816939E+02  0.00000000000E+00 0.  1.
         12    1    4    4    0    0  0.69590333009E+02  0.21415728264E+02 -0.67625860552E+02  0.99371549655E+02  0.00000000000E+00 0. -1.
         -5    1    5    5    0  502 -0.86806698462E+02 -0.60608601704E+02 -0.74062655856E+01  0.10623440247E+03  0.47000000000E+01 0.  1.
         13    1    6    6    0    0 -0.10307644757E+03  0.18080243613E+02 -0.13244102694E+02  0.10548485914E+03  0.00000000000E+00 0. -1.
        -14    1    6    6    0    0 -0.28795578390E+02  0.61430307407E+02 -0.71540789863E+01  0.68220589627E+02  0.00000000000E+00 0.  1.
</event>
<event>
12    1  0.8417180E-002  0.1983935E+03  0.7818608E-02  0.1151302E+00
         21   -1    0    0  501  502  0.00000000000E+00  0.00000000000E+00  0.38638901673E+03  0.38638901673E+03  0.00000000000E+00 0.  1.
         21   -1    0    0  502  503 -0.00000000000E+00 -0.00000000000E+00 -0.11254497595E+03  0.11254497595E+03  0.00000000000E+00 0. -1.
         -6    2    1    2    0  503 -0.62319053556E+02 -0.74044597947E+02  0.58077214698E+02  0.20582089403E+03  0.17211336564E+03 0.  0.
        -24    2    3    3    0    0  0.23582591355E+02 -0.11804588261E+02  0.23424551336E+01  0.85898565717E+02  0.81716519610E+02 0.  0.
          6    2    1    2  501    0  0.62319053556E+02  0.74044597947E+02  0.21576682608E+03  0.29311309865E+03  0.17318688876E+03 0.  0.
         24    2    5    5    0    0  0.10299180321E+03  0.36060631270E+02  0.18220302223E+03  0.22795426795E+03  0.82810182408E+02 0.  0.
          5    1    5    5  501    0 -0.40672749652E+02  0.37983966676E+02  0.33563803847E+02  0.65158830694E+02  0.47000000000E+01 0. -1.
        -11    1    6    6    0    0  0.54383690120E+02  0.14332202309E+02  0.16118055417E+03  0.17071077534E+03  0.00000000000E+00 0.  1.
         12    1    6    6    0    0  0.48608113088E+02  0.21728428961E+02  0.21022468065E+02  0.57243492614E+02  0.00000000000E+00 0. -1.
         -5    1    3    3    0  503 -0.85901644911E+02 -0.62240009686E+02  0.55734759564E+02  0.11992232831E+03  0.47000000000E+01 0.  1.
         13    1    4    4    0    0 -0.27083669125E+02 -0.17748888462E+02  0.10911119043E+02  0.34170172574E+02  0.00000000000E+00 0. -1.
        -14    1    4    4    0    0  0.50666260480E+02  0.59443002018E+01 -0.85686639096E+01  0.51728393143E+02  0.00000000000E+00 0.  1.
</event>
<event>
12    1  0.8417180E-002  0.1740278E+03  0.7818608E-02  0.1173760E+00
         21   -1    0    0  501  502  0.00000000000E+00  0.00000000000E+00  0.52833259707E+02  0.52833259707E+02  0.00000000000E+00 0. -1.
         21   -1    0    0  502  503 -0.00000000000E+00 -0.00000000000E+00 -0.58308536180E+03  0.58308536180E+03  0.00000000000E+00 0. -1.
         -6    2    1    2    0  503 -0.33686262602E+02  0.78396228105E+01 -0.30763433957E+03  0.35335120194E+03  0.17035833134E+03 0.  0.
        -24    2    3    3    0    0 -0.44030895466E+02  0.14254933788E+02 -0.69518006954E+02  0.11487762793E+03  0.78880879906E+02 0.  0.
          6    2    1    2  501    0  0.33686262602E+02 -0.78396228105E+01 -0.22261776252E+03  0.28256741956E+03  0.17055630869E+03 0.  0.
         24    2    5    5    0    0 -0.39483195725E+02 -0.31643906893E+02 -0.14541213578E+03  0.17346557552E+03  0.79908429290E+02 0.  0.
          5    1    5    5  501    0  0.73169458327E+02  0.23804284083E+02 -0.77205626743E+02  0.10910184404E+03  0.47000000000E+01 0. -1.
        -11    1    6    6    0    0 -0.24604900086E+02 -0.55257886183E+02 -0.12506863828E+03  0.13892803667E+03  0.00000000000E+00 0.  1.
         12    1    6    6    0    0 -0.14878295639E+02  0.23613979290E+02 -0.20343497499E+02  0.34537538846E+02  0.00000000000E+00 0. -1.
         -5    1    3    3    0  503  0.10344632864E+02 -0.64153109780E+01 -0.23811633262E+03  0.23847357402E+03  0.47000000000E+01 0.  1.
         11    1    4    4    0    0 -0.15712921925E+01  0.27216422470E+02 -0.64717361017E+02  0.70224920279E+02  0.00000000000E+00 0. -1.
        -12    1    4    4    0    0 -0.42459603273E+02 -0.12961488682E+02 -0.48006459368E+01  0.44652707649E+02  0.00000000000E+00 0.  1.
</event>
<event>
12    1  0.8417180E-002  0.3423391E+03  0.7818608E-02  0.1066110E+00
         21   -1    0    0  503  502  0.00000000000E+00  0.00000000000E+00  0.76271897758E+03  0.76271897758E+03  0.00000000000E+00 0.  1.
         21   -1    0    0  501  503 -0.00000000000E+00 -0.00000000000E+00 -0.25179661733E+03  0.25179661733E+03  0.00000000000E+00 0.  1.
          6    2    1    2  501    0 -0.98294113464E+02  0.27558168650E+03 -0.62649331330E+02  0.34802443504E+03  0.17773314264E+03 0.  0.
         24    2    3    3    0    0 -0.13298727904E+03  0.26169000837E+03 -0.49699273727E+02  0.30819494281E+03  0.79666982477E+02 0.  0.
         -6    2    1    2    0  502  0.98294113464E+02 -0.27558168650E+03  0.57357169158E+03  0.66649115988E+03  0.17210166221E+03 0.  0.
        -24    2    5    5    0    0  0.56474158267E+02 -0.72502870289E+02  0.29721580068E+03  0.32097041856E+03  0.78985952315E+02 0.  0.
          5    1    3    3  501    0  0.34693165577E+02  0.13891678126E+02 -0.12950057604E+02  0.39829492225E+02  0.47000000000E+01 0. -1.
        -11    1    4    4    0    0  0.29807310143E+00  0.71151474715E+02 -0.43520805162E+01  0.71285074220E+02  0.00000000000E+00 0.  1.
         12    1    4    4    0    0 -0.13328535214E+03  0.19053853366E+03 -0.45347193210E+02  0.23690986859E+03  0.00000000000E+00 0. -1.
         -5    1    5    5    0  502  0.41819955198E+02 -0.20307881621E+03  0.27635589090E+03  0.34552074132E+03  0.47000000000E+01 0.  1.
         13    1    6    6    0    0  0.21104606339E+01  0.76410203181E+01 -0.45749898176E+00  0.79403111342E+01  0.00000000000E+00 0. -1.
        -14    1    6    6    0    0  0.54363697633E+02 -0.80143890607E+02  0.29767329966E+03  0.31303010742E+03  0.00000000000E+00 0.  1.
</event>
<event>
12    1  0.8417180E-002  0.1761037E+03  0.7818608E-02  0.1171633E+00
         21   -1    0    0  503  502  0.00000000000E+00  0.00000000000E+00  0.37068500726E+02  0.37068500726E+02  0.00000000000E+00 0. -1.
         21   -1    0    0  501  503 -0.00000000000E+00 -0.00000000000E+00 -0.11362652554E+04  0.11362652554E+04  0.00000000000E+00 0. -1.
          6    2    1    2  501    0 -0.31298192929E+02  0.21297345605E+02 -0.85088782141E+03  0.86891656664E+03  0.17196732639E+03 0.  0.
         24    2    3    3    0    0  0.43049848907E+02  0.38560526938E+02 -0.43044077996E+03  0.44157191251E+03  0.79789003824E+02 0.  0.
         -6    2    1    2    0  502  0.31298192929E+02 -0.21297345605E+02 -0.24830893330E+03  0.30441718953E+03  0.17198646781E+03 0.  0.
        -24    2    5    5    0    0  0.67865605076E+02 -0.64169886487E+01 -0.82135529021E+02  0.13355382029E+03  0.80271163515E+02 0.  0.
          5    1    3    3  501    0 -0.74348041836E+02 -0.17263181333E+02 -0.42044704145E+03  0.42734465414E+03  0.47000000000E+01 0. -1.
        -13    1    4    4    0    0 -0.15617077258E+02  0.19273391272E+02 -0.46564944658E+02  0.52760314481E+02  0.00000000000E+00 0.  1.
         14    1    4    4    0    0  0.58666926165E+02  0.19287135667E+02 -0.38387583531E+03  0.38881159803E+03  0.00000000000E+00 0. -1.
         -5    1    5    5    0  502 -0.36567412148E+02 -0.14880356957E+02 -0.16617340428E+03  0.17086336923E+03  0.47000000000E+01 0.  1.
         11    1    6    6    0    0  0.35722432651E+02 -0.43249077654E+02 -0.38591649452E+02  0.68087372690E+02  0.00000000000E+00 0. -1.
        -12    1    6    6    0    0  0.32143172425E+02  0.36832089005E+02 -0.43543879568E+02  0.65466447604E+02  0.00000000000E+00 0.  1.
</event>
<event>
12    1  0.8417180E-002  0.1844221E+03  0.7818608E-02  0.1163695E+00
         21   -1    0    0  501  502  0.00000000000E+00  0.00000000000E+00  0.19570668145E+03  0.19570668145E+03  0.00000000000E+00 0. -1.
         21   -1    0    0  502  503 -0.00000000000E+00 -0.00000000000E+00 -0.18918818466E+03  0.18918818466E+03  0.00000000000E+00 0. -1.
         -6    2    1    2    0  503  0.50390674320E+02 -0.40709506203E+02 -0.52388671252E+02  0.19171876547E+03  0.17267028755E+03 0.  0.
        -24    2    3    3    0    0 -0.29369296521E+02 -0.58090968650E+02 -0.40113816592E+02  0.10903545251E+03  0.77733489600E+02 0.  0.
          6    2    1    2  501    0 -0.50390674320E+02  0.40709506203E+02  0.58907168045E+02  0.19317610064E+03  0.17219311095E+03 0.  0.
         24    2    5    5    0    0  0.13915461178E+02  0.44622402389E+02  0.86751681820E+02  0.12283410204E+03  0.73331872139E+02 0.  0.
          5    1    5    5  501    0 -0.64306135498E+02 -0.39128961857E+01 -0.27844513774E+02  0.70341998597E+02  0.47000000000E+01 0. -1.
        -13    1    6    6    0    0  0.28698243447E+02  0.39350376637E+02  0.17384036768E+02  0.51713112967E+02  0.00000000000E+00 0.  1.
         14    1    6    6    0    0 -0.14782782269E+02  0.52720257520E+01  0.69367645051E+02  0.71120989076E+02  0.00000000000E+00 0. -1.
         -5    1    3    3    0  503  0.79759970840E+02  0.17381462447E+02 -0.12274854660E+02  0.82683312961E+02  0.47000000000E+01 0.  1.
         13    1    4    4    0    0 -0.27288310925E+01  0.51955813961E+01 -0.39941254687E+02  0.40370093028E+02  0.00000000000E+00 0. -1.
        -14    1    4    4    0    0 -0.26640465428E+02 -0.63286550046E+02 -0.17256190488E+00  0.68665359481E+02  0.00000000000E+00 0.  1.
</event>
<event>
12    1  0.8417180E-002  0.2117919E+03  0.7818608E-02  0.1140768E+00
         21   -1    0    0  501  502  0.00000000000E+00  0.00000000000E+00  0.30852960732E+03  0.30852960732E+03  0.00000000000E+00 0.  1.
         21   -1    0    0  502  503 -0.00000000000E+00 -0.00000000000E+00 -0.14387362857E+03  0.14387362857E+03  0.00000000000E+00 0.  1.
         -6    2    1    2    0  503 -0.12457424399E+03 -0.98536202513E+01  0.68185547654E+02  0.22249738607E+03  0.17099702279E+03 0.  0.
        -24    2    3    3    0    0 -0.12561523691E+03 -0.14715341202E+02 -0.36352215839E+01  0.15035147218E+03  0.81219587173E+02 0.  0.
          6    2    1    2  501    0  0.12457424399E+03  0.98536202513E+01  0.96470431092E+02  0.22990584982E+03  0.16713563237E+03 0.  0.
         24    2    5    5    0    0  0.88561059490E+02 -0.28907315736E+02  0.45291152020E+01  0.12372367060E+03  0.81291694663E+02 0.  0.
          5    1    5    5  501    0  0.36013184498E+02  0.38760935987E+02  0.91941315890E+02  0.10618217922E+03  0.47000000000E+01 0. -1.
        -13    1    6    6    0    0  0.50964504447E+02 -0.60882375512E+01  0.41706838983E+02  0.66135525763E+02  0.00000000000E+00 0.  1.
         14    1    6    6    0    0  0.37596555043E+02 -0.22819078184E+02 -0.37177723781E+02  0.57588144837E+02  0.00000000000E+00 0. -1.
         -5    1    3    3    0  503  0.10409929241E+01  0.48617209502E+01  0.71820769238E+02  0.72145913889E+02  0.47000000000E+01 0.  1.
         11    1    4    4    0    0  0.75574492502E+01  0.78124366335E+01  0.97805054406E+01  0.14622157570E+02  0.00000000000E+00 0. -1.
        -12    1    4    4    0    0 -0.13317268616E+03 -0.22527777835E+02 -0.13415727024E+02  0.13572931461E+03  0.00000000000E+00 0.  1.
</event>
<event>
12    1  0.8417180E-002  0.2633372E+03  0.7818608E-02  0.1105172E+00
         21   -1    0    0  501  502  0.00000000000E+00  0.00000000000E+00  0.13252576587E+03  0.13252576587E+03  0.00000000000E+00 0.  1.
         21   -1    0    0  502  503 -0.00000000000E+00 -0.00000000000E+00 -0.74799830117E+03  0.74799830117E+03  0.00000000000E+00 0. -1.
         -6    2    1    2    0  503  0.92726941415E+02  0.17691244088E+03 -0.54913194674E+03  0.60895909399E+03  0.17143216097E+03 0.  0.
        -24    2    3    3    0    0  0.57107043661E+02  0.11790029899E+03 -0.50861214593E+03  0.52886443583E+03  0.62044996277E+02 0.  0.
          6    2    1    2  501    0 -0.92726941415E+02 -0.17691244088E+03 -0.66340588559E+02  0.27156497305E+03  0.17161049937E+03 0.  0.
         24    2    5    5    0    0 -0.84111786262E+02 -0.20357976241E+03 -0.54112178574E+02  0.24062970278E+03  0.80343100137E+02 0.  0.
          5    1    5    5  501    0 -0.86151551525E+01  0.26667321527E+02 -0.12228409985E+02  0.30935270267E+02  0.47000000000E+01 0. -1.
        -11    1    6    6    0    0 -0.89016968390E+02 -0.17728909549E+03 -0.68977428533E+02  0.21003173495E+03  0.00000000000E+00 0.  1.
         12    1    6    6    0    0  0.49051821274E+01 -0.26290666920E+02  0.14865249959E+02  0.30597967827E+02  0.00000000000E+00 0. -1.
         -5    1    3    3    0  503  0.35619897754E+02  0.59012141895E+02 -0.40519800807E+02  0.80094658152E+02  0.47000000000E+01 0.  1.
         11    1    4    4    0    0 -0.45479555854E+01  0.59759943351E+02 -0.22690981729E+03  0.23469128640E+03  0.00000000000E+00 0. -1.
        -12    1    4    4    0    0  0.61654999246E+02  0.58140355635E+02 -0.28170232865E+03  0.29417314944E+03  0.00000000000E+00 0.  1.
</event>
<event>
12    1  0.8417180E-002  0.2195631E+03  0.7818608E-02  0.1134275E+00
         21   -1    0    0  501  502  0.00000000000E+00  0.00000000000E+00  0.24688034643E+04  0.24688034643E+04  0.00000000000E+00 0. -1.
         21   -1    0    0  502  503 -0.00000000000E+00 -0.00000000000E+00 -0.23096607000E+02  0.23096607000E+02  0.00000000000E+00 0.  1.
         -6    2    1    2    0  503  0.13396786431E+03  0.29261935007E+02  0.73003916543E+03  0.76224011356E+03  0.17102385259E+03 0.  0.
        -24    2    3    3    0    0  0.10797633558E+03 -0.30863405835E+02  0.34047658294E+03  0.36718098906E+03  0.79285158326E+02 0.  0.
          6    2    1    2  501    0 -0.13396786431E+03 -0.29261935007E+02  0.17156676919E+04  0.17296599577E+04  0.17147679426E+03 0.  0.
         24    2    5    5    0    0 -0.16441351152E+03 -0.36397604227E+02  0.13545117227E+04  0.13671222642E+04  0.77231404377E+02 0.  0.
          5    1    5    5  501    0  0.30445647215E+02  0.71356692208E+01  0.36115596916E+03  0.36253769358E+03  0.47000000000E+01 0. -1.
        -13    1    6    6    0    0 -0.28230521852E+01 -0.21578984285E+02  0.21824067949E+03  0.21932308673E+03  0.00000000000E+00 0.  1.
         14    1    6    6    0    0 -0.16159045934E+03 -0.14818619942E+02  0.11362710432E+04  0.11477991774E+04  0.00000000000E+00 0. -1.
         -5    1    3    3    0  503  0.25991528730E+02  0.60125340842E+02  0.38956258249E+03  0.39505912450E+03  0.47000000000E+01 0.  1.
         13    1    4    4    0    0  0.16995416750E+02  0.75773901066E+01  0.16311298867E+03  0.16417097217E+03  0.00000000000E+00 0. -1.
        -14    1    4    4    0    0  0.90980918828E+02 -0.38440795942E+02  0.17736359427E+03  0.20301001688E+03  0.00000000000E+00 0.  1.
</event>
<event>
12    1  0.8417180E-002  0.2022552E+03  0.7818608E-02  0.1148139E+00
         21   -1    0    0  501  502  0.00000000000E+00  0.00000000000E+00  0.17817621330E+04  0.17817621330E+04  0.00000000000E+00 0.  1.
         21   -1    0    0  502  503 -0.00000000000E+00 -0.00000000000E+00 -0.31512083431E+02  0.31512083431E+02  0.00000000000E+00 0.  1.
         -6    2    1    2    0  503  0.51184913590E+01  0.10370397579E+03  0.39630195384E+03  0.44430284440E+03  0.17195657991E+03 0.  0.
        -24    2    3    3    0    0  0.69174938297E+02  0.68272565257E+02  0.27477585323E+03  0.30235462717E+03  0.80437775917E+02 0.  0.
          6    2    1    2  501    0 -0.51184913590E+01 -0.10370397579E+03  0.13539480957E+04  0.13689713720E+04  0.17356974958E+03 0.  0.
         24    2    5    5    0    0 -0.10766282242E+02 -0.90907513209E+02  0.48848023520E+03  0.50337772915E+03  0.79975678979E+02 0.  0.
          5    1    5    5  501    0  0.56477908835E+01 -0.12796462579E+02  0.86546786052E+03  0.86559364288E+03  0.47000000000E+01 0. -1.
        -13    1    6    6    0    0 -0.16019215961E+02 -0.32225179875E+02  0.36271754245E+03  0.36449841303E+03  0.00000000000E+00 0.  1.
         14    1    6    6    0    0  0.52529337181E+01 -0.58682333334E+02  0.12576269275E+03  0.13887931612E+03  0.00000000000E+00 0. -1.
         -5    1    3    3    0  503 -0.64056446938E+02  0.35431410530E+02  0.12152610061E+03  0.14194821723E+03  0.47000000000E+01 0.  1.
         13    1    4    4    0    0  0.43734753987E+02  0.48890609206E+02  0.73341529123E+02  0.98397155798E+02  0.00000000000E+00 0. -1.
        -14    1    4    4    0    0  0.25440184309E+02  0.19381956051E+02  0.20143432411E+03  0.20395747137E+03  0.00000000000E+00 0.  1.
</event>
<event>
12    1  0.8417180E-002  0.2175914E+03  0.7818608E-02  0.1139484E+00
         21   -1    0    0  501  502  0.00000000000E+00  0.00000000000E+00  0.17037163678E+03  0.17037163678E+03  0.00000000000E+00 0.  1.
         21   -1    0    0  502  503 -0.00000000000E+00 -0.00000000000E+00 -0.39044796099E+03  0.39044796099E+03  0.00000000000E+00 0. -1.
         -6    2    1    2    0  503 -0.88769593175E+02 -0.43452031591E+02 -0.27237843575E+03  0.33703056147E+03  0.17213793126E+03 0.  0.
        -24    2    3    3    0    0 -0.18680510738E+02 -0.81833612328E+02 -0.13603381682E+03  0.17892436194E+03  0.80392949880E+02 0.  0.
          6    2    1    2  501    0  0.88769593175E+02  0.43452031591E+02  0.52302111539E+02  0.22378903631E+03  0.19385020551E+03 0.  0.
         24    2    5    5    0    0  0.39777080807E+02 -0.57520354209E+02 -0.57692478050E+01  0.97337220431E+02  0.67456971138E+02 0.  0.
          5    1    5    5  501    0  0.48992512368E+02  0.10097238580E+03  0.58071359344E+02  0.12645181588E+03  0.47000000000E+01 0. -1.
        -13    1    6    6    0    0  0.21452226373E+02 -0.22719358384E+01  0.23739263699E+02  0.32076663632E+02  0.00000000000E+00 0.  1.
         14    1    6    6    0    0  0.18324854434E+02 -0.55248418371E+02 -0.29508511504E+02  0.65260556799E+02  0.00000000000E+00 0. -1.
         -5    1    3    3    0  503 -0.70089082437E+02  0.38381580737E+02 -0.13634461893E+03  0.15810619952E+03  0.47000000000E+01 0.  1.
         13    1    4    4    0    0  0.30222738885E+02 -0.27921550978E+02 -0.32850578540E+02  0.52651566598E+02  0.00000000000E+00 0. -1.
        -14    1    4    4    0    0 -0.48903249623E+02 -0.53912061350E+02 -0.10318323828E+03  0.12627279534E+03  0.00000000000E+00 0.  1.
</event>
<event>
12    1  0.8417180E-002  0.2672130E+03  0.7818608E-02  0.1102936E+00
         21   -1    0    0  501  502  0.00000000000E+00  0.00000000000E+00  0.30286640329E+02  0.30286640329E+02  0.00000000000E+00 0.  1.
         21   -1    0    0  502  503 -0.00000000000E+00 -0.00000000000E+00 -0.24517490207E+04  0.24517490207E+04  0.00000000000E+00 0. -1.
         -6    2    1    2    0  503 -0.28284448389E+02 -0.20232765788E+03 -0.14586450787E+04  0.14829188264E+04  0.17223904616E+03 0.  0.
        -24    2    3    3    0    0 -0.18622172711E+02 -0.22629569249E+03 -0.12868283291E+04  0.13091059624E+04  0.79213297639E+02 0.  0.
          6    2    1    2  501    0  0.28284448389E+02  0.20232765788E+03 -0.96281730171E+03  0.99911683463E+03  0.17169974258E+03 0.  0.
         24    2    5    5    0    0  0.70144509103E+02  0.78566805587E+02 -0.43157539673E+03  0.45202537532E+03  0.83526174172E+02 0.  0.
          5    1    5    5  501    0 -0.41860060714E+02  0.12376085230E+03 -0.53124190498E+03  0.54709145931E+03  0.47000000000E+01 0. -1.
        -11    1    6    6    0    0 -0.90257072170E+01  0.48726701798E+02 -0.17321009772E+03  0.18015963147E+03  0.00000000000E+00 0.  1.
         12    1    6    6    0    0  0.79170216320E+02  0.29840103789E+02 -0.25836529900E+03  0.27186574384E+03  0.00000000000E+00 0. -1.
         -5    1    3    3    0  503 -0.96622756782E+01  0.23968034601E+02 -0.17181674963E+03  0.17381286404E+03  0.47000000000E+01 0.  1.
         11    1    4    4    0    0 -0.14706242994E+02 -0.18861899803E+03 -0.11931918089E+04  0.12080977166E+04  0.00000000000E+00 0. -1.
        -12    1    4    4    0    0 -0.39159297169E+01 -0.37676694458E+02 -0.93636520150E+02  0.10100824579E+03  0.00000000000E+00 0.  1.
</event>
<event>
12    1  0.8417180E-002  0.1871014E+03  0.7818608E-02  0.1161269E+00
         21   -1    0    0  501  502  0.00000000000E+00  0.00000000000E+00  0.61896115081E+02  0.61896115081E+02  0.00000000000E+00 0. -1.
         21   -1    0    0  502  503 -0.00000000000E+00 -0.00000000000E+00 -0.56523919125E+03  0.56523919125E+03  0.00000000000E+00 0. -1.
         -6    2    1    2    0  503 -0.15534782527E+02  0.71676361104E+02 -0.26914572744E+03  0.32737648602E+03  0.17133916886E+03 0.  0.
        -24    2    3    3    0    0  0.27643666714E+01 -0.17100487426E+02 -0.19310451027E+03  0.20896810622E+03  0.77963126789E+02 0.  0.
          6    2    1    2  501    0  0.15534782527E+02 -0.71676361104E+02 -0.23419734872E+03  0.29975882031E+03  0.17212821383E+03 0.  0.
         24    2    5    5    0    0  0.57046964170E+02 -0.55948433671E+02 -0.85325562597E+02  0.14433833379E+03  0.84667110600E+02 0.  0.
          5    1    5    5  501    0 -0.41512181643E+02 -0.15727927433E+02 -0.14887178613E+03  0.15542048652E+03  0.47000000000E+01 0. -1.
        -13    1    6    6    0    0 -0.70401726875E+01 -0.12728938118E+02 -0.61873456705E+02  0.63560322071E+02  0.00000000000E+00 0.  1.
         14    1    6    6    0    0  0.64087136857E+02 -0.43219495553E+02 -0.23452105892E+02  0.80778011719E+02  0.00000000000E+00 0. -1.
         -5    1    3    3    0  503 -0.18299149198E+02  0.88776848530E+02 -0.76041217174E+02  0.11840837979E+03  0.47000000000E+01 0.  1.
         13    1    4    4    0    0 -0.27539562099E+02  0.28180390147E+01 -0.26015576375E+02  0.37989196341E+02  0.00000000000E+00 0. -1.
        -14    1    4    4    0    0  0.30303928771E+02 -0.19918526441E+02 -0.16708893389E+03  0.17097890988E+03  0.00000000000E+00 0.  1.
</event>
<event>
12    1  0.8417180E-002  0.2214491E+03  0.7818608E-02  0.1132971E+00
         21   -1    0    0  501  502  0.00000000000E+00  0.00000000000E+00  0.11694944468E+03  0.11694944468E+03  0.00000000000E+00 0. -1.
         21   -1    0    0  502  503 -0.00000000000E+00 -0.00000000000E+00 -0.45516434713E+03  0.45516434713E+03  0.00000000000E+00 0. -1.
         -6    2    1    2    0  503  0.82442752837E+02 -0.11226780214E+03 -0.25154107251E+03  0.33513073131E+03  0.17215931290E+03 0.  0.
        -24    2    3    3    0    0  0.18173497896E+02 -0.81304852594E+02 -0.23958796132E+03  0.26264481376E+03  0.68111319956E+02 0.  0.
          6    2    1    2  501    0 -0.82442752837E+02  0.11226780214E+03 -0.86673829945E+02  0.23698306051E+03  0.17101973944E+03 0.  0.
         24    2    5    5    0    0 -0.66651932839E+02  0.42268049767E+01 -0.69898165975E+02  0.12641308282E+03  0.81450401295E+02 0.  0.
          5    1    5    5  501    0 -0.15790819998E+02  0.10804099716E+03 -0.16775663970E+02  0.11056997769E+03  0.47000000000E+01 0. -1.
        -13    1    6    6    0    0 -0.23570954086E+02 -0.11744012479E+02 -0.75655405751E+02  0.80107753214E+02  0.00000000000E+00 0.  1.
         14    1    6    6    0    0 -0.43080978753E+02  0.15970817455E+02  0.57572397760E+01  0.46305329611E+02  0.00000000000E+00 0. -1.
         -5    1    3    3    0  503  0.64269254941E+02 -0.30962949543E+02 -0.11953111186E+02  0.72485917543E+02  0.47000000000E+01 0.  1.
         13    1    4    4    0    0  0.51625145270E+01 -0.78835113905E+02 -0.12902382487E+03  0.15129036362E+03  0.00000000000E+00 0. -1.
        -14    1    4    4    0    0  0.13010983369E+02 -0.24697386892E+01 -0.11056413645E+03  0.11135445014E+03  0.00000000000E+00 0.  1.
</event>
<event>
12    1  0.8417180E-002  0.1827241E+03  0.7818608E-02  0.1166057E+00
         21   -1    0    0  503  502  0.00000000000E+00  0.00000000000E+00  0.13840839269E+03  0.13840839269E+03  0.00000000000E+00 0. -1.
         21   -1    0    0  501  503 -0.00000000000E+00 -0.00000000000E+00 -0.25272761641E+03  0.25272761641E+03  0.00000000000E+00 0. -1.
          6    2    1    2  501    0  0.14130952265E+02 -0.59897549764E+02 -0.10618902924E+03  0.20823108051E+03  0.16821614869E+03 0.  0.
         24    2    3    3    0    0  0.58260990521E+02 -0.76693340823E+02 -0.99915664082E+02  0.16036664711E+03  0.80362367027E+02 0.  0.
         -6    2    1    2    0  502 -0.14130952265E+02  0.59897549764E+02 -0.81301944830E+01  0.18290492859E+03  0.17204857617E+03 0.  0.
        -24    2    5    5    0    0  0.47374061806E+02  0.32166155545E+02  0.32282441510E+02  0.10411934534E+03  0.80744775365E+02 0.  0.
          5    1    3    3  501    0 -0.44130038256E+02  0.16795791060E+02 -0.62733651602E+01  0.47864433395E+02  0.47000000000E+01 0. -1.
        -13    1    4    4    0    0  0.20879670142E+02 -0.24522077954E+02  0.94453726583E+01  0.33563492028E+02  0.00000000000E+00 0.  1.
         14    1    4    4    0    0  0.37381320379E+02 -0.52171262869E+02 -0.10936103674E+03  0.12680315509E+03  0.00000000000E+00 0. -1.
         -5    1    5    5    0  502 -0.61505014070E+02  0.27731394218E+02 -0.40412635994E+02  0.78785583256E+02  0.47000000000E+01 0.  1.
         13    1    6    6    0    0  0.61008094650E+02  0.46212690493E+02  0.35351417755E+02  0.84304941211E+02  0.00000000000E+00 0. -1.
        -14    1    6    6    0    0 -0.13634032844E+02 -0.14046534947E+02 -0.30689762442E+01  0.19814404124E+02  0.00000000000E+00 0.  1.
</event>
<event>
12    1  0.8417180E-002  0.1820958E+03  0.7818608E-02  0.1165906E+00
         21   -1    0    0  501  502  0.00000000000E+00  0.00000000000E+00  0.27589783562E+03  0.27589783562E+03  0.00000000000E+00 0.  1.
         21   -1    0    0  502  503 -0.00000000000E+00 -0.00000000000E+00 -0.18766610720E+03  0.18766610720E+03  0.00000000000E+00 0.  1.
         -6    2    1    2    0  503 -0.15960084567E+01 -0.62680546886E+02 -0.95240194704E+02  0.20506669836E+03  0.17044136202E+03 0.  0.
        -24    2    3    3    0    0  0.49367916734E+02 -0.69807840968E+02 -0.98278329995E+02  0.15330338840E+03  0.80826807968E+02 0.  0.
          6    2    1    2  501    0  0.15960084567E+01  0.62680546886E+02  0.18347192312E+03  0.25849724446E+03  0.17096046508E+03 0.  0.
         24    2    5    5    0    0  0.32168165976E+02 -0.21600558262E+02  0.73361749704E+02  0.11642577727E+03  0.81680109410E+02 0.  0.
          5    1    5    5  501    0 -0.30572157519E+02  0.84281105148E+02  0.11011017341E+03  0.14207146719E+03  0.47000000000E+01 0. -1.
        -13    1    6    6    0    0 -0.21539083060E+02 -0.14375039162E+02  0.52160830558E+02  0.58235093324E+02  0.00000000000E+00 0.  1.
         14    1    6    6    0    0  0.53707249035E+02 -0.72255191003E+01  0.21200919146E+02  0.58190683944E+02  0.00000000000E+00 0. -1.
         -5    1    3    3    0  503 -0.50963925191E+02  0.71272940819E+01  0.30381352912E+01  0.51763309958E+02  0.47000000000E+01 0.  1.
         11    1    4    4    0    0  0.11803012912E+02  0.17272563967E+02 -0.80921565845E+01  0.22430683850E+02  0.00000000000E+00 0. -1.
        -12    1    4    4    0    0  0.37564903822E+02 -0.87080404935E+02 -0.90186173411E+02  0.13087270455E+03  0.00000000000E+00 0.  1.
</event>
<event>
12    1  0.8417180E-002  0.1746993E+03  0.7818608E-02  0.1173273E+00
         21   -1    0    0  503  502  0.00000000000E+00  0.00000000000E+00  0.71130222728E+02  0.71130222728E+02  0.00000000000E+00 0.  1.
         21   -1    0    0  501  503 -0.00000000000E+00 -0.00000000000E+00 -0.97027974957E+03  0.97027974957E+03  0.00000000000E+00 0.  1.
          6    2    1    2  501    0 -0.26311914793E+02 -0.13308743414E+02 -0.83876005544E+03  0.85656747977E+03  0.17123077203E+03 0.  0.
         24    2    3    3    0    0  0.35294026834E+02 -0.17165833142E+02 -0.26992677515E+03  0.28437558893E+03  0.80428088855E+02 0.  0.
         -6    2    1    2    0  502  0.26311914793E+02  0.13308743414E+02 -0.60389471406E+02  0.18484249253E+03  0.17219297104E+03 0.  0.
        -24    2    5    5    0    0 -0.39765022490E+02 -0.29035500271E+02 -0.51199586128E+02  0.10568606130E+03  0.78254895332E+02 0.  0.
          5    1    3    3  501    0 -0.61605941627E+02  0.38570897281E+01 -0.56883328028E+03  0.57219189084E+03  0.47000000000E+01 0. -1.
        -11    1    4    4    0    0 -0.16782764331E+02  0.84657548890E+01 -0.14965187141E+03  0.15082775872E+03  0.00000000000E+00 0.  1.
         12    1    4    4    0    0  0.52076791164E+02 -0.25631588031E+02 -0.12027490375E+03  0.13354783021E+03  0.00000000000E+00 0. -1.
         -5    1    5    5    0  502  0.66076937283E+02  0.42344243685E+02 -0.91898852784E+01  0.79156431232E+02  0.47000000000E+01 0.  1.
         13    1    6    6    0    0  0.91283313362E+01  0.20741099673E+02 -0.13555137076E+02  0.26405707523E+02  0.00000000000E+00 0. -1.
        -14    1    6    6    0    0 -0.48893353826E+02 -0.49776599944E+02 -0.37644449052E+02  0.79280353775E+02  0.00000000000E+00 0.  1.
</event>
<event>
12    1  0.8417180E-002  0.1958611E+03  0.7818608E-02  0.1153829E+00
         21   -1    0    0  503  502  0.00000000000E+00  0.00000000000E+00  0.59342396386E+03  0.59342396386E+03  0.00000000000E+00 0.  1.
         21   -1    0    0  501  503 -0.00000000000E+00 -0.00000000000E+00 -0.12987081745E+03  0.12987081745E+03  0.00000000000E+00 0. -1.
          6    2    1    2  501    0 -0.48420534300E+02  0.73626256588E+02 -0.25402657353E+02  0.19750151627E+03  0.17491763812E+03 0.  0.
         24    2    3    3    0    0  0.37225661737E+02  0.50273220728E+02  0.96447587506E+01  0.10194500652E+03  0.79916308530E+02 0.  0.
         -6    2    1    2    0  502  0.48420534300E+02 -0.73626256588E+02  0.48895580377E+03  0.52579326504E+03  0.17209127150E+03 0.  0.
        -24    2    5    5    0    0  0.58272413111E+02  0.83663824886E+01  0.17439852092E+03  0.20054224418E+03  0.79603248151E+02 0.  0.
          5    1    3    3  501    0 -0.85646196038E+02  0.23353035860E+02 -0.35047416103E+02  0.95556509747E+02  0.47000000000E+01 0. -1.
        -11    1    4    4    0    0  0.11478515683E+02  0.68801615828E+02  0.74217880920E+01  0.70146287153E+02  0.00000000000E+00 0.  1.
         12    1    4    4    0    0  0.25747146055E+02 -0.18528395100E+02  0.22229706586E+01  0.31798719369E+02  0.00000000000E+00 0. -1.
         -5    1    5    5    0  502 -0.98518788108E+01 -0.81992639076E+02  0.31455728285E+03  0.32525102087E+03  0.47000000000E+01 0.  1.
         13    1    6    6    0    0  0.11057099632E+02 -0.32790540441E+02  0.44864670022E+02  0.56659664761E+02  0.00000000000E+00 0. -1.
        -14    1    6    6    0    0  0.47215313479E+02  0.41156922929E+02  0.12953385089E+03  0.14388257942E+03  0.00000000000E+00 0.  1.
</event>
<event>
12    1  0.8417180E-002  0.1808754E+03  0.7818608E-02  0.1167258E+00
         21   -1    0    0  501  502  0.00000000000E+00  0.00000000000E+00  0.10865629845E+04  0.10865629845E+04  0.00000000000E+00 0. -1.
         21   -1    0    0  502  503 -0.00000000000E+00 -0.00000000000E+00 -0.22401948497E+03  0.22401948497E+03  0.00000000000E+00 0. -1.
         -6    2    1    2    0  503 -0.25419944488E+02  0.41663720451E+02 -0.17891548844E+03  0.25353339718E+03  0.17287681250E+03 0.  0.
        -24    2    3    3    0    0  0.26430416786E+02 -0.28853099791E+02 -0.11245926714E+03  0.14353520969E+03  0.80151115741E+02 0.  0.
          6    2    1    2  501    0  0.25419944488E+02 -0.41663720451E+02  0.10414589879E+04  0.10570490722E+04  0.17416623787E+03 0.  0.
         24    2    5    5    0    0 -0.42097307419E+02 -0.40573368627E+02  0.40154402116E+03  0.41356401192E+03  0.79869953598E+02 0.  0.
          5    1    5    5  501    0  0.67517251907E+02 -0.10903518238E+01  0.63991496677E+03  0.64348506033E+03  0.47000000000E+01 0. -1.
        -13    1    6    6    0    0 -0.30062738341E+02 -0.19651037668E+02  0.52056755360E+02  0.63244266907E+02  0.00000000000E+00 0.  1.
         14    1    6    6    0    0 -0.12034569079E+02 -0.20922330959E+02  0.34948726580E+03  0.35031974501E+03  0.00000000000E+00 0. -1.
         -5    1    3    3    0  503 -0.51850361274E+02  0.70516820242E+02 -0.66456221299E+02  0.10999818749E+03  0.47000000000E+01 0.  1.
         13    1    4    4    0    0  0.26156400596E+02  0.16051670206E+02 -0.86235109774E+02  0.91533095470E+02  0.00000000000E+00 0. -1.
        -14    1    4    4    0    0  0.27401619003E+00 -0.44904769997E+02 -0.26224157369E+02  0.52002114217E+02  0.00000000000E+00 0.  1.
</event>
<event>
12    1  0.8417180E-002  0.1842324E+03  0.7818608E-02  0.1163822E+00
         21   -1    0    0  503  502  0.00000000000E+00  0.00000000000E+00  0.15318311951E+04  0.15318311951E+04  0.00000000000E+00 0.  1.
         21   -1    0    0  501  503 -0.00000000000E+00 -0.00000000000E+00 -0.79859295507E+02  0.79859295507E+02  0.00000000000E+00 0.  1.
          6    2    1    2  501    0  0.63534341450E+02  0.19914875305E+02  0.40709253874E+02  0.18845339383E+03  0.17153490459E+03 0.  0.
         24    2    3    3    0    0  0.69088777805E+02 -0.88712104503E+01 -0.31910482778E+02  0.10999826877E+03  0.78926438085E+02 0.  0.
         -6    2    1    2    0  502 -0.63534341450E+02 -0.19914875305E+02  0.14112626458E+04  0.14232370968E+04  0.17177998613E+03 0.  0.
        -24    2    5    5    0    0 -0.87093304725E+02  0.25545179569E+02  0.11874730184E+04  0.11936166956E+04  0.79942771203E+02 0.  0.
          5    1    3    3  501    0 -0.55544363547E+01  0.28786085755E+02  0.72619736652E+02  0.78455125057E+02  0.47000000000E+01 0. -1.
        -13    1    4    4    0    0  0.30228905353E+01  0.28548793693E+02 -0.34620367134E+01  0.28916382670E+02  0.00000000000E+00 0.  1.
         14    1    4    4    0    0  0.66065887269E+02 -0.37420004143E+02 -0.28448446065E+02  0.81081886104E+02  0.00000000000E+00 0. -1.
         -5    1    5    5    0  502  0.23558963275E+02 -0.45460054874E+02  0.22378962741E+03  0.22962040126E+03  0.47000000000E+01 0.  1.
         11    1    6    6    0    0  0.31168594252E+01  0.22788306716E+02  0.11048518556E+03  0.11285387882E+03  0.00000000000E+00 0. -1.
        -12    1    6    6    0    0 -0.90210164150E+02  0.27568728529E+01  0.10769878328E+04  0.10807628167E+04  0.00000000000E+00 0.  1.
</event>
<event>
12    1  0.8417180E-002  0.1875698E+03  0.7818608E-02  0.1162327E+00
         21   -1    0    0  503  502  0.00000000000E+00  0.00000000000E+00  0.40110481226E+02  0.40110481226E+02  0.00000000000E+00 0.  1.
         21   -1    0    0  501  503 -0.00000000000E+00 -0.00000000000E+00 -0.12846996484E+04  0.12846996484E+04  0.00000000000E+00 0. -1.
          6    2    1    2  501    0  0.27084332269E+02 -0.69885727181E+02 -0.10021873020E+04  0.10183119891E+04  0.16420214044E+03 0.  0.
         24    2    3    3    0    0  0.15834103855E+01  0.22902597219E+02 -0.50939243733E+03  0.51618766305E+03  0.80262146287E+02 0.  0.
         -6    2    1    2    0  502 -0.27084332269E+02  0.69885727181E+02 -0.24240186515E+03  0.30649814051E+03  0.17194438051E+03 0.  0.
        -24    2    5    5    0    0  0.46186364104E+02  0.54814469219E+02 -0.14628015240E+03  0.18460797920E+03  0.86858601940E+02 0.  0.
          5    1    3    3  501    0  0.25500921884E+02 -0.92788324400E+02 -0.49279486469E+03  0.50212432607E+03  0.47000000000E+01 0. -1.
        -13    1    4    4    0    0 -0.24204944614E+02  0.16368436388E+01 -0.42080827050E+03  0.42150700958E+03  0.00000000000E+00 0.  1.
         14    1    4    4    0    0  0.25788354999E+02  0.21265753580E+02 -0.88584166828E+02  0.94680653470E+02  0.00000000000E+00 0. -1.
         -5    1    5    5    0  502 -0.73270696373E+02  0.15071257962E+02 -0.96121712750E+02  0.12189016132E+03  0.47000000000E+01 0.  1.
         13    1    6    6    0    0  0.30697585560E+01 -0.14815843381E+02  0.19517898741E+01  0.15255887925E+02  0.00000000000E+00 0. -1.
        -14    1    6    6    0    0  0.43116605548E+02  0.69630312599E+02 -0.14823194228E+03  0.16935209127E+03  0.00000000000E+00 0.  1.
</event>
<event>
12    1  0.8417180E-002  0.2515429E+03  0.7818608E-02  0.1114165E+00
         21   -1    0    0  503  502  0.00000000000E+00  0.00000000000E+00  0.41139383378E+03  0.41139383378E+03  0.00000000000E+00 0. -1.
         21   -1    0    0  501  503 -0.00000000000E+00 -0.00000000000E+00 -0.16030176957E+03  0.16030176957E+03  0.00000000000E+00 0.  1.
          6    2    1    2  501    0 -0.88380145012E+02  0.14183578563E+03  0.40287488374E+02  0.24349995003E+03  0.17245493274E+03 0.  0.
         24    2    3    3    0    0 -0.37939508490E+02 -0.20240482007E+02  0.27613665851E+01  0.69594015225E+02  0.54649962428E+02 0.  0.
         -6    2    1    2    0  502  0.88380145012E+02 -0.14183578563E+03  0.21080457583E+03  0.32819565332E+03  0.18800366365E+03 0.  0.
        -24    2    5    5    0    0  0.12198878685E+03 -0.11543801332E+03  0.10375413079E+03  0.21283417373E+03  0.79537832599E+02 0.  0.
          5    1    3    3  501    0 -0.50440636522E+02  0.16207626764E+03  0.37526121789E+02  0.17390593481E+03  0.47000000000E+01 0. -1.
        -13    1    4    4    0    0 -0.31283585651E+02  0.99707347102E+01 -0.12456935689E+02  0.35117709615E+02  0.00000000000E+00 0.  1.
         14    1    4    4    0    0 -0.66559228394E+01 -0.30211216718E+02  0.15218302274E+02  0.34476305610E+02  0.00000000000E+00 0. -1.
         -5    1    5    5    0  502 -0.33608641840E+02 -0.26397772316E+02  0.10705044504E+03  0.11536147959E+03  0.47000000000E+01 0.  1.
         11    1    6    6    0    0  0.53767625883E+02 -0.80926936294E+02  0.94990857884E+02  0.13588005627E+03  0.00000000000E+00 0. -1.
        -12    1    6    6    0    0  0.68221160969E+02 -0.34511077022E+02  0.87632729017E+01  0.76954117454E+02  0.00000000000E+00 0.  1.
</event>
<event>
12    1  0.8417180E-002  0.1817931E+03  0.7818608E-02  0.1168304E+00
         21   -1    0    0  501  502  0.00000000000E+00  0.00000000000E+00  0.46705431560E+02  0.46705431560E+02  0.00000000000E+00 0. -1.
         21   -1    0    0  502  503 -0.00000000000E+00 -0.00000000000E+00 -0.11585689852E+04  0.11585689852E+04  0.00000000000E+00 0. -1.
         -6    2    1    2    0  503  0.54056250813E+01  0.76630498180E+01 -0.95435045434E+03  0.97151095395E+03  0.18155109703E+03 0.  0.
        -24    2    3    3    0    0  0.21711105837E+02  0.16315932002E+02 -0.19214044104E+03  0.20906296527E+03  0.77793268411E+02 0.  0.
          6    2    1    2  501    0 -0.54056250813E+01 -0.76630498180E+01 -0.15751309928E+03  0.23376346279E+03  0.17247329351E+03 0.  0.
         24    2    5    5    0    0  0.25458797516E+02 -0.65744983675E+02 -0.88521088894E+02  0.13832703829E+03  0.79547678125E+02 0.  0.
          5    1    5    5  501    0 -0.30864422597E+02  0.58081933857E+02 -0.68992010387E+02  0.95436424494E+02  0.47000000000E+01 0. -1.
        -11    1    6    6    0    0 -0.26005505716E+02 -0.38673425744E+02 -0.51182824763E+02  0.69221396526E+02  0.00000000000E+00 0.  1.
         12    1    6    6    0    0  0.51464303232E+02 -0.27071557931E+02 -0.37338264131E+02  0.69105641769E+02  0.00000000000E+00 0. -1.
         -5    1    3    3    0  503 -0.16305480755E+02 -0.86528821845E+01 -0.76221001329E+03  0.76244798868E+03  0.47000000000E+01 0.  1.
         13    1    4    4    0    0  0.13705642912E+02 -0.20626910331E+02 -0.15169514244E+03  0.15370338421E+03  0.00000000000E+00 0. -1.
        -14    1    4    4    0    0  0.80054629249E+01  0.36942842334E+02 -0.40445298605E+02  0.55359581064E+02  0.00000000000E+00 0.  1.
</event>
<event>
12    1  0.8417180E-002  0.1880185E+03  0.7818608E-02  0.1161422E+00
         21   -1    0    0  501  502  0.00000000000E+00  0.00000000000E+00  0.32748436644E+03  0.32748436644E+03  0.00000000000E+00 0.  1.
         21   -1    0    0  502  503 -0.00000000000E+00 -0.00000000000E+00 -0.16773861265E+03  0.16773861265E+03  0.00000000000E+00 0.  1.
         -6    2    1    2    0  503 -0.17626981448E+02  0.53960178730E+02 -0.70766345839E+02  0.20089510104E+03  0.17924439895E+03 0.  0.
        -24    2    3    3    0    0  0.60407553062E+02  0.38057086748E+02 -0.49694663409E+02  0.11838205534E+03  0.80295312046E+02 0.  0.
          6    2    1    2  501    0  0.17626981448E+02 -0.53960178730E+02  0.23051209963E+03  0.29432787805E+03  0.17398465552E+03 0.  0.
         24    2    5    5    0    0 -0.29741088178E+02 -0.32621104550E+02  0.51171810412E+02  0.10755496929E+03  0.83671072964E+02 0.  0.
          5    1    5    5  501    0  0.47368069626E+02 -0.21339074180E+02  0.17934028922E+03  0.18677290875E+03  0.47000000000E+01 0. -1.
        -11    1    6    6    0    0 -0.65125828688E+01 -0.24365754390E+02  0.71363595159E+02  0.75689275572E+02  0.00000000000E+00 0.  1.
         12    1    6    6    0    0 -0.23228505309E+02 -0.82553501598E+01 -0.20191784747E+02  0.31865693722E+02  0.00000000000E+00 0. -1.
         -5    1    3    3    0  503 -0.78034534510E+02  0.15903091982E+02 -0.21071682430E+02  0.82513045703E+02  0.47000000000E+01 0.  1.
         11    1    4    4    0    0  0.25633530869E+02  0.30459310301E+02  0.16602956141E+02  0.43133579048E+02  0.00000000000E+00 0. -1.
        -12    1    4    4    0    0  0.34774022193E+02  0.75977764468E+01 -0.66297619550E+02  0.75248476293E+02  0.00000000000E+00 0.  1.
</event>
<event>
12    1  0.8417180E-002  0.2134862E+03  0.7818608E-02  0.1140149E+00
         21   -1    0    0  503  502  0.00000000000E+00  0.00000000000E+00  0.20528988012E+03  0.20528988012E+03  0.00000000000E+00 0. -1.
         21   -1    0    0  501  503 -0.00000000000E+00 -0.00000000000E+00 -0.27573626270E+03  0.27573626270E+03  0.00000000000E+00 0. -1.
          6    2    1    2  501    0  0.41082091152E+02  0.12178759095E+03 -0.14753318622E+03  0.25404876678E+03  0.16203326616E+03 0.  0.
         24    2    3    3    0    0 -0.27161131604E+02  0.93885006442E+02 -0.12311310658E+03  0.17624052838E+03  0.79697963118E+02 0.  0.
         -6    2    1    2    0  502 -0.41082091152E+02 -0.12178759095E+03  0.77086803643E+02  0.22697737604E+03  0.17045937468E+03 0.  0.
        -24    2    5    5    0    0 -0.23188154973E+02 -0.88266983620E+01  0.74849813973E+02  0.11248960233E+03  0.80223530503E+02 0.  0.
          5    1    3    3  501    0  0.68243222755E+02  0.27902584505E+02 -0.24420079639E+02  0.77808238405E+02  0.47000000000E+01 0. -1.
        -13    1    4    4    0    0 -0.42889966443E+02  0.94947375235E+02 -0.83209013324E+02  0.13333526609E+03  0.00000000000E+00 0.  1.
         14    1    4    4    0    0  0.15728834839E+02 -0.10623687923E+01 -0.39904093260E+02  0.42905262285E+02  0.00000000000E+00 0. -1.
         -5    1    5    5    0  502 -0.17893936179E+02 -0.11296089259E+03  0.22369896693E+01  0.11448777371E+03  0.47000000000E+01 0.  1.
         11    1    6    6    0    0 -0.14973319585E+02 -0.11806784223E+02  0.91617825276E+02  0.93581121822E+02  0.00000000000E+00 0. -1.
        -12    1    6    6    0    0 -0.82148353881E+01  0.29800858612E+01 -0.16768011303E+02  0.18908480512E+02  0.00000000000E+00 0.  1.
</event>
<event>
12    1  0.8417180E-002  0.1975013E+03  0.7818608E-02  0.1152039E+00
         21   -1    0    0  501  502  0.00000000000E+00  0.00000000000E+00  0.24294670863E+04  0.24294670863E+04  0.00000000000E+00 0.  1.
         21   -1    0    0  502  503 -0.00000000000E+00 -0.00000000000E+00 -0.19308438447E+02  0.19308438447E+02  0.00000000000E+00 0.  1.
         -6    2    1    2    0  503  0.20186963099E+02 -0.92986731138E+02  0.69540486649E+03  0.72268534757E+03  0.17213987805E+03 0.  0.
        -24    2    3    3    0    0 -0.46371227625E+02 -0.28616409098E+02  0.25440772265E+03  0.27204790796E+03  0.79483238848E+02 0.  0.
          6    2    1    2  501    0 -0.20186963099E+02  0.92986731138E+02  0.17147537814E+04  0.17260901772E+04  0.17306855112E+03 0.  0.
         24    2    5    5    0    0 -0.72700107256E+02  0.93219731316E+02  0.11359221587E+04  0.11448623200E+04  0.80095924677E+02 0.  0.
          5    1    5    5  501    0  0.52513144157E+02 -0.23300017804E+00  0.57883162269E+03  0.58122785723E+03  0.47000000000E+01 0. -1.
        -13    1    6    6    0    0 -0.40789119183E+02  0.83853740637E+02  0.10202998648E+04  0.10245521052E+04  0.00000000000E+00 0.  1.
         14    1    6    6    0    0 -0.31910988073E+02  0.93659906790E+01  0.11562229385E+03  0.12031021477E+03  0.00000000000E+00 0. -1.
         -5    1    3    3    0  503  0.66558190724E+02 -0.64370322040E+02  0.44099714383E+03  0.45063743961E+03  0.47000000000E+01 0.  1.
         13    1    4    4    0    0 -0.23992457520E+02  0.20045255251E+02  0.38497431664E+02  0.49593371741E+02  0.00000000000E+00 0. -1.
        -14    1    4    4    0    0 -0.22378770105E+02 -0.48661664349E+02  0.21591029099E+03  0.22245453622E+03  0.00000000000E+00 0.  1.
</event>
<event>
12    1  0.8417180E-002  0.2234826E+03  0.7818608E-02  0.1131949E+00
         21   -1    0    0  501  502  0.00000000000E+00  0.00000000000E+00  0.95130848510E+02  0.95130848510E+02  0.00000000000E+00 0. -1.
         21   -1    0    0  502  503 -0.00000000000E+00 -0.00000000000E+00 -0.76072067571E+03  0.76072067571E+03  0.00000000000E+00 0. -1.
         -6    2    1    2    0  503  0.33179665460E+02 -0.13051841689E+03 -0.57680582069E+03  0.61858661882E+03  0.17834938423E+03 0.  0.
        -24    2    3    3    0    0  0.25513102459E+02 -0.26202457472E+02 -0.10869694865E+03  0.13891110177E+03  0.78382270791E+02 0.  0.
          6    2    1    2  501    0 -0.33179665460E+02  0.13051841689E+03 -0.88784006512E+02  0.23726490540E+03  0.17400025337E+03 0.  0.
         24    2    5    5    0    0 -0.33385826628E+02  0.16283946225E+03 -0.88662656093E+02  0.20460304383E+03  0.79812499483E+02 0.  0.
          5    1    5    5  501    0  0.20616116824E+00 -0.32321045356E+02 -0.12135041961E+00  0.32661861570E+02  0.47000000000E+01 0. -1.
        -11    1    6    6    0    0 -0.25870895104E+02  0.57754029049E+01 -0.19029891047E+02  0.32631200491E+02  0.00000000000E+00 0.  1.
         12    1    6    6    0    0 -0.75149315238E+01  0.15706405934E+03 -0.69632765046E+02  0.17197184334E+03  0.00000000000E+00 0. -1.
         -5    1    3    3    0  503  0.76665630006E+01 -0.10431595942E+03 -0.46810887203E+03  0.47967551705E+03  0.47000000000E+01 0.  1.
         11    1    4    4    0    0  0.45815829816E+01 -0.40280349459E+02 -0.10606534274E+03  0.11354890746E+03  0.00000000000E+00 0. -1.
        -12    1    4    4    0    0  0.20931519478E+02  0.14077891986E+02 -0.26316059093E+01  0.25362194307E+02  0.00000000000E+00 0.  1.
</event>
<event>
12    1  0.8417180E-002  0.2199287E+03  0.7818608E-02  0.1134215E+00
         21   -1    0    0  501  502  0.00000000000E+00  0.00000000000E+00  0.46529983048E+02  0.46529983048E+02  0.00000000000E+00 0. -1.
         21   -1    0    0  502  503 -0.00000000000E+00 -0.00000000000E+00 -0.12936064658E+04  0.12936064658E+04  0.00000000000E+00 0.  1.
         -6    2    1    2    0  503 -0.14384124283E+02  0.13622331653E+03 -0.92627087288E+03  0.95202225622E+03  0.17206089445E+03 0.  0.
        -24    2    3    3    0    0 -0.55305464547E+02  0.32869950477E+02 -0.30410833415E+03  0.31998998730E+03  0.75977529692E+02 0.  0.
          6    2    1    2  501    0  0.14384124283E+02 -0.13622331653E+03 -0.32080560986E+03  0.38811419261E+03  0.17015490645E+03 0.  0.
         24    2    5    5    0    0 -0.92715841388E+00 -0.14193299398E+03 -0.33064453452E+03  0.36846908551E+03  0.79358832961E+02 0.  0.
          5    1    5    5  501    0  0.15311282696E+02  0.57096774454E+01  0.98389246619E+01  0.19645107097E+02  0.47000000000E+01 0. -1.
        -11    1    6    6    0    0 -0.53256182326E+01 -0.13481077203E+02 -0.12586357820E+03  0.12669546941E+03  0.00000000000E+00 0.  1.
         12    1    6    6    0    0  0.43984598188E+01 -0.12845191678E+03 -0.20478095632E+03  0.24177361611E+03  0.00000000000E+00 0. -1.
         -5    1    3    3    0  503  0.40921340264E+02  0.10335336606E+03 -0.62216253873E+03  0.63203226893E+03  0.47000000000E+01 0.  1.
         13    1    4    4    0    0 -0.48129428375E+02  0.50372448558E+02 -0.15821133856E+03  0.17287178225E+03  0.00000000000E+00 0. -1.
        -14    1    4    4    0    0 -0.71760361721E+01 -0.17502498081E+02 -0.14589699559E+03  0.14711820505E+03  0.00000000000E+00 0.  1.
</event>
<event>
12    1  0.8417180E-002  0.2603266E+03  0.7818608E-02  0.1106977E+00
         21   -1    0    0  503  502  0.00000000000E+00  0.00000000000E+00  0.12252435331E+04  0.12252435331E+04  0.00000000000E+00 0.  1.
         21   -1    0    0  501  503 -0.00000000000E+00 -0.00000000000E+00 -0.11805004083E+03  0.11805004083E+03  0.00000000000E+00 0. -1.
          6    2    1    2  501    0 -0.19416209622E+03 -0.18814030645E+02  0.63892349044E+02  0.26805254621E+03  0.17238633329E+03 0.  0.
         24    2    3    3    0    0 -0.45263489044E+02 -0.45170169071E+02 -0.39535174447E+01  0.10224967273E+03  0.79688378449E+02 0.  0.
         -6    2    1    2    0  502  0.19416209622E+03  0.18814030645E+02  0.10433011432E+04  0.10752410277E+04  0.17208458642E+03 0.  0.
        -24    2    5    5    0    0  0.18932593724E+02 -0.52706924088E+01  0.40252090991E+03  0.41048028141E+03  0.78004840925E+02 0.  0.
          5    1    3    3  501    0 -0.14889860718E+03  0.26356138426E+02  0.67845866489E+02  0.16580287348E+03  0.47000000000E+01 0. -1.
        -11    1    4    4    0    0 -0.43576556411E+02 -0.32364402731E+02  0.32712112701E+02  0.63375493293E+02  0.00000000000E+00 0.  1.
         12    1    4    4    0    0 -0.16869326326E+01 -0.12805766340E+02 -0.36665630145E+02  0.38874179441E+02  0.00000000000E+00 0. -1.
         -5    1    5    5    0  502  0.17522950250E+03  0.24084723054E+02  0.64078023334E+03  0.66476074634E+03  0.47000000000E+01 0.  1.
         11    1    6    6    0    0 -0.38738248414E+00  0.18557325983E+02  0.34315862511E+03  0.34366024850E+03  0.00000000000E+00 0. -1.
        -12    1    6    6    0    0  0.19319976208E+02 -0.23828018392E+02  0.59362284801E+02  0.66820032909E+02  0.00000000000E+00 0.  1.
</event>
<event>
12    1  0.8417180E-002  0.1769152E+03  0.7818608E-02  0.1171326E+00
         21   -1    0    0  503  502  0.00000000000E+00  0.00000000000E+00  0.64908023410E+02  0.64908023410E+02  0.00000000000E+00 0. -1.
         21   -1    0    0  501  503 -0.00000000000E+00 -0.00000000000E+00 -0.47880279684E+03  0.47880279684E+03  0.00000000000E+00 0. -1.
          6    2    1    2  501    0 -0.39216409353E+02  0.10339272063E+02 -0.22611122909E+03  0.28709803724E+03  0.17220385522E+03 0.  0.
         24    2    3    3    0    0 -0.68031069575E+02  0.47198123613E+02 -0.20755990468E+03  0.23655002819E+03  0.77581650569E+02 0.  0.
         -6    2    1    2    0  502  0.39216409353E+02 -0.10339272063E+02 -0.18778354433E+03  0.25661278301E+03  0.17012534665E+03 0.  0.
        -24    2    5    5    0    0  0.44372857310E+00  0.46112830370E+02 -0.76498693804E+02  0.12585893564E+03  0.88666969655E+02 0.  0.
          5    1    3    3  501    0  0.28814660221E+02 -0.36858851549E+02 -0.18551324411E+02  0.50548009047E+02  0.47000000000E+01 0. -1.
        -11    1    4    4    0    0 -0.11811619137E+02  0.49243048575E+02 -0.59324538471E+02  0.77998673351E+02  0.00000000000E+00 0.  1.
         12    1    4    4    0    0 -0.56219450438E+02 -0.20449249629E+01 -0.14823536621E+03  0.15855135484E+03  0.00000000000E+00 0. -1.
         -5    1    5    5    0  502  0.38772680780E+02 -0.56452102433E+02 -0.11128485053E+03  0.13075384737E+03  0.47000000000E+01 0.  1.
         11    1    6    6    0    0  0.77574329987E+01  0.40901618819E+02 -0.95863675571E+02  0.10451298715E+03  0.00000000000E+00 0. -1.
        -12    1    6    6    0    0 -0.73137044256E+01  0.52112115507E+01  0.19364981768E+02  0.21345948494E+02  0.00000000000E+00 0.  1.
</event>
<event>
12    1  0.8417180E-002  0.2120702E+03  0.7818608E-02  0.1140323E+00
         21   -1    0    0  503  502  0.00000000000E+00  0.00000000000E+00  0.41807695978E+03  0.41807695978E+03  0.00000000000E+00 0. -1.
         21   -1    0    0  501  503 -0.00000000000E+00 -0.00000000000E+00 -0.13523704213E+03  0.13523704213E+03  0.00000000000E+00 0. -1.
          6    2    1    2  501    0  0.65765852212E+02 -0.98872245221E+02  0.13545238724E+02  0.21054090684E+03  0.17332954673E+03 0.  0.
         24    2    3    3    0    0 -0.30082067100E+02 -0.50930562982E+02 -0.78847004390E+01  0.10114913007E+03  0.81670833268E+02 0.  0.
         -6    2    1    2    0  502 -0.65765852212E+02  0.98872245221E+02  0.26929467893E+03  0.34277309506E+03  0.17570686500E+03 0.  0.
        -24    2    5    5    0    0  0.33264157354E+02  0.61083455287E+02  0.12247822277E+03  0.16163199747E+03  0.79286158175E+02 0.  0.
          5    1    3    3  501    0  0.95847919311E+02 -0.47941682240E+02  0.21429939163E+02  0.10939177677E+03  0.47000000000E+01 0. -1.
        -11    1    4    4    0    0 -0.30331049642E+02 -0.10838161211E+02  0.31425307866E+02  0.44999869836E+02  0.00000000000E+00 0.  1.
         12    1    4    4    0    0  0.24898254199E+00 -0.40092401771E+02 -0.39310008305E+02  0.56149260236E+02  0.00000000000E+00 0. -1.
         -5    1    5    5    0  502 -0.99030009566E+02  0.37788789934E+02  0.14681645616E+03  0.18114109759E+03  0.47000000000E+01 0.  1.
         13    1    6    6    0    0  0.20413580534E+02  0.29250586211E+01  0.92842522744E+02  0.95105227341E+02  0.00000000000E+00 0. -1.
        -14    1    6    6    0    0  0.12850576820E+02  0.58158396666E+02  0.29635700025E+02  0.66526770126E+02  0.00000000000E+00 0.  1.
</event>
<event>
12    1  0.8417180E-002  0.1998577E+03  0.7818608E-02  0.1150187E+00
         21   -1    0    0  503  502  0.00000000000E+00  0.00000000000E+00  0.18516263550E+02  0.18516263550E+02  0.00000000000E+00 0. -1.
         21   -1    0    0  501  503 -0.00000000000E+00 -0.00000000000E+00 -0.24708538782E+04  0.24708538782E+04  0.00000000000E+00 0. -1.
          6    2    1    2  501    0 -0.85458842994E+01  0.10029279945E+03 -0.16771331584E+04  0.16888171776E+04  0.17086881123E+03 0.  0.
         24    2    3    3    0    0  0.19736041528E+02  0.77846889021E+02 -0.15947328657E+04  0.15987306389E+04  0.79480144048E+02 0.  0.
         -6    2    1    2    0  502  0.85458842994E+01 -0.10029279945E+03 -0.77520445623E+03  0.80055296411E+03  0.17265984372E+03 0.  0.
        -24    2    5    5    0    0  0.69535754368E+02 -0.39188336373E+02 -0.48005634486E+03  0.49300131430E+03  0.78900284007E+02 0.  0.
          5    1    3    3  501    0 -0.28281925827E+02  0.22445910428E+02 -0.82400292674E+02  0.90086538707E+02  0.47000000000E+01 0. -1.
        -11    1    4    4    0    0 -0.13276910108E+02 -0.60523377476E+01 -0.52571461201E+03  0.52591706610E+03  0.00000000000E+00 0.  1.
         12    1    4    4    0    0  0.33012951636E+02  0.83899226768E+02 -0.10690182537E+04  0.10728135728E+04  0.00000000000E+00 0. -1.
         -5    1    5    5    0  502 -0.60989870068E+02 -0.61104463076E+02 -0.29514811137E+03  0.30755164981E+03  0.47000000000E+01 0.  1.
         11    1    6    6    0    0  0.45840653997E+02 -0.61812824869E+02 -0.28472359187E+03  0.29494018825E+03  0.00000000000E+00 0. -1.
        -12    1    6    6    0    0  0.23695100370E+02  0.22624488495E+02 -0.19533275299E+03  0.19806112605E+03  0.00000000000E+00 0.  1.
</event>
<event>
12    1  0.8417180E-002  0.1904051E+03  0.7818608E-02  0.1158690E+00
         21   -1    0    0  503  502  0.00000000000E+00  0.00000000000E+00  0.91624730096E+03  0.91624730096E+03  0.00000000000E+00 0. -1.
         21   -1    0    0  501  503 -0.00000000000E+00 -0.00000000000E+00 -0.42719902182E+02  0.42719902182E+02  0.00000000000E+00 0.  1.
          6    2    1    2  501    0 -0.72529536786E+02  0.18676881226E+02  0.29300437440E+03  0.34801623958E+03  0.17220447147E+03 0.  0.
         24    2    3    3    0    0  0.21407954613E+02  0.19746667765E+02  0.87325066136E+02  0.12184934416E+03  0.79833351980E+02 0.  0.
         -6    2    1    2    0  502  0.72529536786E+02 -0.18676881226E+02  0.58052302438E+03  0.61095096356E+03  0.17505638649E+03 0.  0.
        -24    2    5    5    0    0 -0.16749884930E+02 -0.57456926162E+01  0.41063940601E+03  0.41854367532E+03  0.78996928754E+02 0.  0.
          5    1    3    3  501    0 -0.93937491399E+02 -0.10697865385E+01  0.20567930827E+03  0.22616689542E+03  0.47000000000E+01 0. -1.
        -13    1    4    4    0    0  0.23100832261E+02 -0.27004934860E+02  0.53057434039E+02  0.63859269216E+02  0.00000000000E+00 0.  1.
         14    1    4    4    0    0 -0.16928776481E+01  0.46751602624E+02  0.34267632096E+02  0.57990074945E+02  0.00000000000E+00 0. -1.
         -5    1    5    5    0  502  0.89279421717E+02 -0.12931188610E+02  0.16988361837E+03  0.19240728825E+03  0.47000000000E+01 0.  1.
         11    1    6    6    0    0  0.10967216049E+02  0.26970555050E+02  0.26859667519E+03  0.27017006605E+03  0.00000000000E+00 0. -1.
        -12    1    6    6    0    0 -0.27717100979E+02 -0.32716247666E+02  0.14204273082E+03  0.14837360926E+03  0.00000000000E+00 0.  1.
</event>
<event>
12    1  0.8417180E-002  0.2171073E+03  0.7818608E-02  0.1136425E+00
         21   -1    0    0  501  502  0.00000000000E+00  0.00000000000E+00  0.20078777229E+02  0.20078777229E+02  0.00000000000E+00 0.  1.
         21   -1    0    0  502  503 -0.00000000000E+00 -0.00000000000E+00 -0.23599074728E+04  0.23599074728E+04  0.00000000000E+00 0. -1.
         -6    2    1    2    0  503  0.11019612083E+03 -0.71673495479E+02 -0.10340184830E+04  0.10565650892E+04  0.17278683250E+03 0.  0.
        -24    2    3    3    0    0  0.21813206145E+02 -0.87796000578E+02 -0.58514348339E+03  0.59876346178E+03  0.89111353505E+02 0.  0.
          6    2    1    2  501    0 -0.11019612083E+03  0.71673495479E+02 -0.13058102126E+04  0.13234211609E+04  0.17036132992E+03 0.  0.
         24    2    5    5    0    0 -0.31633880470E+02  0.35699650105E+02 -0.30632985445E+03  0.32020173349E+03  0.80099956253E+02 0.  0.
          5    1    5    5  501    0 -0.78562240356E+02  0.35973845374E+02 -0.99948035814E+03  0.10032194274E+04  0.47000000000E+01 0. -1.
        -13    1    6    6    0    0 -0.21376844689E+02  0.61655659770E+02 -0.21978722529E+03  0.22927017746E+03  0.00000000000E+00 0.  1.
         14    1    6    6    0    0 -0.10257035781E+02 -0.25956009665E+02 -0.86542629155E+02  0.90931556029E+02  0.00000000000E+00 0. -1.
         -5    1    3    3    0  503  0.88382914681E+02  0.16122505099E+02 -0.44887499960E+03  0.45780162739E+03  0.47000000000E+01 0.  1.
         11    1    4    4    0    0  0.22118619781E+02 -0.36319179793E+02 -0.47807708530E+03  0.47996459833E+03  0.00000000000E+00 0. -1.
        -12    1    4    4    0    0 -0.30541363617E+00 -0.51476820786E+02 -0.10706639809E+03  0.11879886344E+03  0.00000000000E+00 0.  1.
</event>
<event>
12    1  0.8417180E-002  0.1963987E+03  0.7818608E-02  0.1154582E+00
         21   -1    0    0  503  502  0.00000000000E+00  0.00000000000E+00  0.79410211592E+03  0.79410211592E+03  0.00000000000E+00 0.  1.
         21   -1    0    0  501  503 -0.00000000000E+00 -0.00000000000E+00 -0.51340091501E+02  0.51340091501E+02  0.00000000000E+00 0.  1.
          6    2    1    2  501    0  0.88279281420E+02  0.32123018311E+02  0.50663981312E+03  0.54337495187E+03  0.17247410893E+03 0.  0.
         24    2    3    3    0    0  0.96348209281E+02  0.42026790704E+02  0.51205996910E+03  0.52872365858E+03  0.79335153764E+02 0.  0.
         -6    2    1    2    0  502 -0.88279281420E+02 -0.32123018311E+02  0.23612221130E+03  0.30206725555E+03  0.16329668819E+03 0.  0.
        -24    2    5    5    0    0 -0.11932294583E+03  0.11046730134E+02  0.13766909037E+03  0.19007420531E+03  0.53060620361E+02 0.  0.
          5    1    3    3  501    0 -0.80689278616E+01 -0.99037723929E+01 -0.54201559730E+01  0.14651293295E+02  0.47000000000E+01 0. -1.
        -13    1    4    4    0    0  0.68902141423E+02  0.22900491026E+02  0.16771298276E+03  0.18275552568E+03  0.00000000000E+00 0.  1.
         14    1    4    4    0    0  0.27446067858E+02  0.19126299678E+02  0.34434698634E+03  0.34596813290E+03  0.00000000000E+00 0. -1.
         -5    1    5    5    0  502  0.31043664410E+02 -0.43169748445E+02  0.98453120929E+02  0.11199305024E+03  0.47000000000E+01 0.  1.
         13    1    6    6    0    0 -0.36325462096E+02  0.25324549139E+02  0.30476330207E+02  0.53755731680E+02  0.00000000000E+00 0. -1.
        -14    1    6    6    0    0 -0.82997483734E+02 -0.14277819005E+02  0.10719276016E+03  0.13631847363E+03  0.00000000000E+00 0.  1.
</event>
<event>
12    1  0.8417180E-002  0.1874509E+03  0.7818608E-02  0.1162258E+00
         21   -1    0    0  501  502  0.00000000000E+00  0.00000000000E+00  0.49064995335E+03  0.49064995335E+03  0.00000000000E+00 0. -1.
         21   -1    0    0  502  503 -0.00000000000E+00 -0.00000000000E+00 -0.12906605007E+03  0.12906605007E+03  0.00000000000E+00 0. -1.
         -6    2    1    2    0  503  0.58590388040E+02  0.38253896987E+02 -0.28523994086E+02  0.18960865045E+03  0.17390120149E+03 0.  0.
        -24    2    3    3    0    0 -0.37125631866E+02  0.22485642523E+02 -0.51085495470E+01  0.89705860904E+02  0.78339820915E+02 0.  0.
          6    2    1    2  501    0 -0.58590388040E+02 -0.38253896987E+02  0.39010789737E+03  0.43010735298E+03  0.16706875616E+03 0.  0.
         24    2    5    5    0    0  0.24210764257E+02  0.18050627132E+01  0.12585217083E+03  0.15026109146E+03  0.78423257691E+02 0.  0.
          5    1    5    5  501    0 -0.82801152298E+02 -0.40058959700E+02  0.26425572654E+03  0.27984626152E+03  0.47000000000E+01 0. -1.
        -13    1    6    6    0    0  0.40222606767E+02 -0.24785376889E+02  0.52594396221E+02  0.70698964041E+02  0.00000000000E+00 0.  1.
         14    1    6    6    0    0 -0.16011842510E+02  0.26590439602E+02  0.73257774609E+02  0.79562127419E+02  0.00000000000E+00 0. -1.
         -5    1    3    3    0  503  0.95716019907E+02  0.15768254464E+02 -0.23415444539E+02  0.99902789544E+02  0.47000000000E+01 0.  1.
         13    1    4    4    0    0 -0.30626006718E+02 -0.14097561893E+02 -0.29879446512E+02  0.45049693258E+02  0.00000000000E+00 0. -1.
        -14    1    4    4    0    0 -0.64996251486E+01  0.36583204416E+02  0.24770896965E+02  0.44656167646E+02  0.00000000000E+00 0.  1.
</event>
<event>
12    1  0.8417180E-002  0.1882247E+03  0.7818608E-02  0.1160368E+00
         21   -1    0    0  503  502  0.00000000000E+00  0.00000000000E+00  0.22983564944E+02  0.22983564944E+02  0.00000000000E+00 0. -1.
         21   -1    0    0  501  503 -0.00000000000E+00 -0.00000000000E+00 -0.16498479482E+04  0.16498479482E+04  0.00000000000E+00 0.  1.
          6    2    1    2  501    0 -0.14276002138E+02  0.77335949505E+02 -0.58628979727E+03  0.61537039440E+03  0.16958874546E+03 0.  0.
         24    2    3    3    0    0  0.56116379670E+02  0.33695321767E+02 -0.28246207682E+03  0.30042124688E+03  0.78636365364E+02 0.  0.
         -6    2    1    2    0  502  0.14276002138E+02 -0.77335949505E+02 -0.10405745860E+04  0.10574611188E+04  0.17100846573E+03 0.  0.
        -24    2    5    5    0    0 -0.28321733174E+02  0.10164880221E+02 -0.37550364970E+03  0.38529119786E+03  0.80875650557E+02 0.  0.
          5    1    3    3  501    0 -0.70392381808E+02  0.43640627738E+02 -0.30382772045E+03  0.31494914751E+03  0.47000000000E+01 0. -1.
        -13    1    4    4    0    0  0.19794961214E+02  0.16130071875E+02 -0.24178266677E+03  0.24312728695E+03  0.00000000000E+00 0.  1.
         14    1    4    4    0    0  0.36321418456E+02  0.17565249893E+02 -0.40679410051E+02  0.57293959930E+02  0.00000000000E+00 0. -1.
         -5    1    5    5    0  502  0.42597735312E+02 -0.87500829726E+02 -0.66507093629E+03  0.67216992089E+03  0.47000000000E+01 0.  1.
         11    1    6    6    0    0  0.25661812590E+02 -0.68055550126E+01 -0.76395661418E+02  0.80877322458E+02  0.00000000000E+00 0. -1.
        -12    1    6    6    0    0 -0.53983545764E+02  0.16970435234E+02 -0.29910798828E+03  0.30441387540E+03  0.00000000000E+00 0.  1.
</event>
<event>
12    1  0.8417180E-002  0.2072252E+03  0.7818608E-02  0.1143791E+00
         21   -1    0    0  501  502  0.00000000000E+00  0.00000000000E+00  0.69074561257E+03  0.69074561257E+03  0.00000000000E+00 0.  1.
         21   -1    0    0  502  503 -0.00000000000E+00 -0.00000000000E+00 -0.11132075573E+03  0.11132075573E+03  0.00000000000E+00 0.  1.
         -6    2    1    2    0  503 -0.90039633829E+02  0.71737518915E+02  0.23178329833E+02  0.20847352291E+03  0.17225146589E+03 0.  0.
        -24    2    3    3    0    0 -0.88194787514E+02  0.26003053270E+02  0.73527873541E+02  0.14026640189E+03  0.76248514668E+02 0.  0.
          6    2    1    2  501    0  0.90039633829E+02 -0.71737518915E+02  0.55624652700E+03  0.59359284539E+03  0.17230455600E+03 0.  0.
         24    2    5    5    0    0  0.54804316085E+02 -0.98925436019E+02  0.50988089368E+03  0.52915238911E+03  0.85052749527E+02 0.  0.
          5    1    5    5  501    0  0.35235317744E+02  0.27187917105E+02  0.46365633320E+02  0.64440456285E+02  0.47000000000E+01 0. -1.
        -13    1    6    6    0    0  0.58318747714E+02 -0.10481999149E+03  0.50809360923E+03  0.52206074617E+03  0.00000000000E+00 0.  1.
         14    1    6    6    0    0 -0.35144316286E+01  0.58945554711E+01  0.17872844562E+01  0.70916429409E+01  0.00000000000E+00 0. -1.
         -5    1    3    3    0  503 -0.18448463150E+01  0.45734465645E+02 -0.50349543708E+02  0.68207121016E+02  0.47000000000E+01 0.  1.
         13    1    4    4    0    0 -0.13392653923E+02  0.37256586542E+02  0.43665307580E+02  0.58941288635E+02  0.00000000000E+00 0. -1.
        -14    1    4    4    0    0 -0.74802133591E+02 -0.11253533273E+02  0.29862565960E+02  0.81325113259E+02  0.00000000000E+00 0.  1.
</event>
<event>
12    1  0.8417180E-002  0.2058447E+03  0.7818608E-02  0.1145172E+00
         21   -1    0    0  501  502  0.00000000000E+00  0.00000000000E+00  0.11707436080E+04  0.11707436080E+04  0.00000000000E+00 0.  1.
         21   -1    0    0  502  503 -0.00000000000E+00 -0.00000000000E+00 -0.40539034039E+02  0.40539034039E+02  0.00000000000E+00 0.  1.
         -6    2    1    2    0  503 -0.28971127649E+02  0.10930256170E+03  0.76706394403E+03  0.79385820813E+03  0.17040359197E+03 0.  0.
        -24    2    3    3    0    0  0.44064217692E+00 -0.97190471718E+01  0.22929594918E+03  0.24227167651E+03  0.77616228231E+02 0.  0.
          6    2    1    2  501    0  0.28971127649E+02 -0.10930256170E+03  0.36314062990E+03  0.41742443388E+03  0.17200483912E+03 0.  0.
         24    2    5    5    0    0 -0.43100780640E+02 -0.61369699521E+02  0.26409123488E+03  0.28580075860E+03  0.79460530835E+02 0.  0.
          5    1    5    5  501    0  0.72071908289E+02 -0.47932862181E+02  0.99049395019E+02  0.13162367528E+03  0.47000000000E+01 0. -1.
        -11    1    6    6    0    0  0.52055941055E+01 -0.34629897220E+02  0.32697495493E+02  0.47910898582E+02  0.00000000000E+00 0.  1.
         12    1    6    6    0    0 -0.48306374745E+02 -0.26739802301E+02  0.23139373939E+03  0.23788986001E+03  0.00000000000E+00 0. -1.
         -5    1    3    3    0  503 -0.29411769826E+02  0.11902160887E+03  0.53776799485E+03  0.55158653162E+03  0.47000000000E+01 0.  1.
         13    1    4    4    0    0 -0.37202086517E+02 -0.15122077526E+02  0.12149181528E+03  0.12795676477E+03  0.00000000000E+00 0. -1.
        -14    1    4    4    0    0  0.37642728694E+02  0.54030303538E+01  0.10780413389E+03  0.11431491174E+03  0.00000000000E+00 0.  1.
</event>
<event>
12    1  0.8417180E-002  0.2045059E+03  0.7818608E-02  0.1146024E+00
         21   -1    0    0  501  502  0.00000000000E+00  0.00000000000E+00  0.45591550367E+03  0.45591550367E+03  0.00000000000E+00 0.  1.
         21   -1    0    0  502  503 -0.00000000000E+00 -0.00000000000E+00 -0.16892386447E+03  0.16892386447E+03  0.00000000000E+00 0.  1.
         -6    2    1    2    0  503  0.10831326724E+03 -0.23564608086E+02 -0.67818642832E+02  0.21531161698E+03  0.17167605970E+03 0.  0.
        -24    2    3    3    0    0  0.82993465171E+02  0.41036603429E+02 -0.77823440217E+01  0.12343748525E+03  0.81267027777E+02 0.  0.
          6    2    1    2  501    0 -0.10831326724E+03  0.23564608086E+02  0.35481028203E+03  0.40952775116E+03  0.17185921018E+03 0.  0.
         24    2    5    5    0    0  0.83796117440E+01  0.15102417423E+02  0.18585239304E+03  0.20396098603E+03  0.82223299110E+02 0.  0.
          5    1    5    5  501    0 -0.11669287899E+03  0.84621906633E+01  0.16895788899E+03  0.20556676513E+03  0.47000000000E+01 0. -1.
        -13    1    6    6    0    0  0.18779421807E+02  0.21355518535E+02  0.18923778022E+03  0.19136264609E+03  0.00000000000E+00 0.  1.
         14    1    6    6    0    0 -0.10399810063E+02 -0.62531011118E+01 -0.33853871778E+01  0.12598339938E+02  0.00000000000E+00 0. -1.
         -5    1    3    3    0  503  0.25319802071E+02 -0.64601211515E+02 -0.60036298811E+02  0.91874131729E+02  0.47000000000E+01 0.  1.
         13    1    4    4    0    0  0.86038693501E+01  0.68118786389E+01 -0.35367552754E+02  0.37030960643E+02  0.00000000000E+00 0. -1.
        -14    1    4    4    0    0  0.74389595821E+02  0.34224724790E+02  0.27585208732E+02  0.86406524604E+02  0.00000000000E+00 0.  1.
</event>
<event>
12    1  0.8417180E-002  0.2307975E+03  0.7818608E-02  0.1127240E+00
         21   -1    0    0  501  502  0.00000000000E+00  0.00000000000E+00  0.95536752771E+02  0.95536752771E+02  0.00000000000E+00 0.  1.
         21   -1    0    0  502  503 -0.00000000000E+00 -0.00000000000E+00 -0.10169736217E+04  0.10169736217E+04  0.00000000000E+00 0.  1.
         -6    2    1    2    0  503  0.15115208739E+03  0.45518619888E+02 -0.84439871638E+03  0.87537230337E+03  0.16837036263E+03 0.  0.
        -24    2    3    3    0    0  0.62438996984E+02  0.18943195798E+02 -0.20977335419E+03  0.23400836153E+03  0.80607568645E+02 0.  0.
          6    2    1    2  501    0 -0.15115208739E+03 -0.45518619888E+02 -0.77038152599E+02  0.23713807115E+03  0.15931318072E+03 0.  0.
         24    2    5    5    0    0 -0.47531448515E+02  0.24929581531E+02 -0.14958731585E+02  0.97223345695E+02  0.79673663555E+02 0.  0.
          5    1    5    5  501    0 -0.10362063888E+03 -0.70448201419E+02 -0.62079421014E+02  0.13991472545E+03  0.47000000000E+01 0. -1.
        -11    1    6    6    0    0 -0.67408242269E+02  0.15534463435E+02 -0.24323199787E+02  0.73326725877E+02  0.00000000000E+00 0.  1.
         12    1    6    6    0    0  0.19876793754E+02  0.93951180960E+01  0.93644682025E+01  0.23896619817E+02  0.00000000000E+00 0. -1.
         -5    1    3    3    0  503  0.88713090409E+02  0.26575424089E+02 -0.63462536218E+03  0.64136394185E+03  0.47000000000E+01 0.  1.
         11    1    4    4    0    0  0.14581815723E+02 -0.31130917585E+02 -0.73497975723E+02  0.81140099918E+02  0.00000000000E+00 0. -1.
        -12    1    4    4    0    0  0.47857181261E+02  0.50074113383E+02 -0.13627537847E+03  0.15286826161E+03  0.00000000000E+00 0.  1.
</event>
<event>
12    1  0.8417180E-002  0.1864623E+03  0.7818608E-02  0.1163624E+00
         21   -1    0    0  501  502  0.00000000000E+00  0.00000000000E+00  0.29044157293E+03  0.29044157293E+03  0.00000000000E+00 0.  1.
         21   -1    0    0  502  503 -0.00000000000E+00 -0.00000000000E+00 -0.29010588089E+03  0.29010588089E+03  0.00000000000E+00 0.  1.
         -6    2    1    2    0  503  0.12610209515E+02  0.42941827294E+02 -0.22563588563E+03  0.28757758819E+03  0.17258707491E+03 0.  0.
        -24    2    3    3    0    0  0.60626493008E+02  0.23100614077E+02 -0.20680761305E+03  0.23211741265E+03  0.83065603059E+02 0.  0.
          6    2    1    2  501    0 -0.12610209515E+02 -0.42941827294E+02  0.22597157767E+03  0.29296986564E+03  0.18101151992E+03 0.  0.
         24    2    5    5    0    0  0.65356449833E+02 -0.35321692770E+02  0.14424466147E+03  0.17966388499E+03  0.77158937863E+02 0.  0.
          5    1    5    5  501    0 -0.77966659348E+02 -0.76201345239E+01  0.81726916205E+02  0.11330598066E+03  0.47000000000E+01 0. -1.
        -11    1    6    6    0    0  0.33466391251E+00  0.13166835400E+02  0.64810227125E+02  0.66135036814E+02  0.00000000000E+00 0.  1.
         12    1    6    6    0    0  0.65021785920E+02 -0.48488528170E+02  0.79434434342E+02  0.11352884817E+03  0.00000000000E+00 0. -1.
         -5    1    3    3    0  503 -0.48016283493E+02  0.19841213217E+02 -0.18828272577E+02  0.55460175538E+02  0.47000000000E+01 0.  1.
         11    1    4    4    0    0  0.10844197146E+02 -0.13435722885E+02 -0.14031590318E+03  0.14137421245E+03  0.00000000000E+00 0. -1.
        -12    1    4    4    0    0  0.49782295862E+02  0.36536336961E+02 -0.66491709879E+02  0.90743200200E+02  0.00000000000E+00 0.  1.
</event>
<event>
12    1  0.8417180E-002  0.1944077E+03  0.7818608E-02  0.1154626E+00
         21   -1    0    0  501  502  0.00000000000E+00  0.00000000000E+00  0.47968034580E+02  0.47968034580E+02  0.00000000000E+00 0.  1.
         21   -1    0    0  502  503 -0.00000000000E+00 -0.00000000000E+00 -0.15679698123E+04  0.15679698123E+04  0.00000000000E+00 0.  1.
         -6    2    1    2    0  503 -0.48848129410E+02 -0.78359067535E+02 -0.13300738106E+04  0.13441530202E+04  0.17065965257E+03 0.  0.
        -24    2    3    3    0    0  0.24601637244E+02 -0.40474207927E+02 -0.98349736966E+03  0.98782809800E+03  0.79333933491E+02 0.  0.
          6    2    1    2  501    0  0.48848129410E+02  0.78359067535E+02 -0.18992796716E+03  0.27178482666E+03  0.17107915151E+03 0.  0.
         24    2    5    5    0    0 -0.85095921242E+01  0.11174348583E+03 -0.95574622880E+02  0.15633322996E+03  0.52407542091E+02 0.  0.
          5    1    5    5  501    0  0.57357721534E+02 -0.33384418291E+02 -0.94353344276E+02  0.11545159670E+03  0.47000000000E+01 0. -1.
        -13    1    6    6    0    0  0.89432428112E+01  0.45725386828E+02 -0.11442296184E+02  0.47976230933E+02  0.00000000000E+00 0.  1.
         14    1    6    6    0    0 -0.17452834935E+02  0.66018098998E+02 -0.84132326697E+02  0.10835699903E+03  0.00000000000E+00 0. -1.
         -5    1    3    3    0  503 -0.73449766654E+02 -0.37884859608E+02 -0.34657644090E+03  0.35632492222E+03  0.47000000000E+01 0.  1.
         13    1    4    4    0    0 -0.15665829865E+01  0.52371485104E+01 -0.66367322440E+03  0.66369573653E+03  0.00000000000E+00 0. -1.
        -14    1    4    4    0    0  0.26168220230E+02 -0.45711356437E+02 -0.31982414527E+03  0.32413236147E+03  0.00000000000E+00 0.  1.
</event>
<event>
12    1  0.8417180E-002  0.3042694E+03  0.7818608E-02  0.1083166E+00
         21   -1    0    0  503  502  0.00000000000E+00  0.00000000000E+00  0.18283781544E+03  0.18283781544E+03  0.00000000000E+00 0. -1.
         21   -1    0    0  501  503 -0.00000000000E+00 -0.00000000000E+00 -0.60394553279E+03  0.60394553279E+03  0.00000000000E+00 0.  1.
          6    2    1    2  501    0 -0.10925077170E+03  0.22627408636E+03 -0.36904334342E+03  0.47809164994E+03  0.17100568162E+03 0.  0.
         24    2    3    3    0    0 -0.11774478381E+03  0.19476294283E+03 -0.37332864633E+03  0.44484177431E+03  0.81935877298E+02 0.  0.
         -6    2    1    2    0  502  0.10925077170E+03 -0.22627408636E+03 -0.52064373927E+02  0.30869169829E+03  0.17159304265E+03 0.  0.
        -24    2    5    5    0    0  0.14458257297E+03 -0.18880505993E+03 -0.54407519244E+02  0.25692448421E+03  0.80613530972E+02 0.  0.
          5    1    3    3  501    0  0.84940121131E+01  0.31511143532E+02  0.42853029096E+01  0.33249875631E+02  0.47000000000E+01 0. -1.
        -11    1    4    4    0    0 -0.40299679619E+02  0.12407723517E+03 -0.25711123976E+03  0.28831478297E+03  0.00000000000E+00 0.  1.
         12    1    4    4    0    0 -0.77445104190E+02  0.70685707656E+02 -0.11621740656E+03  0.15652699134E+03  0.00000000000E+00 0. -1.
         -5    1    5    5    0  502 -0.35331801276E+02 -0.37469026430E+02  0.23431453174E+01  0.51767214074E+02  0.47000000000E+01 0.  1.
         13    1    6    6    0    0  0.10061588499E+03 -0.76909735437E+02 -0.51361597788E+02  0.13666264100E+03  0.00000000000E+00 0. -1.
        -14    1    6    6    0    0  0.43966687977E+02 -0.11189532449E+03 -0.30459214566E+01  0.12026184321E+03  0.00000000000E+00 0.  1.
</event>
<event>
12    1  0.8417180E-002  0.2001782E+03  0.7818608E-02  0.1149608E+00
         21   -1    0    0  503  502  0.00000000000E+00  0.00000000000E+00  0.10032647626E+04  0.10032647626E+04  0.00000000000E+00 0. -1.
         21   -1    0    0  501  503 -0.00000000000E+00 -0.00000000000E+00 -0.79909453063E+02  0.79909453063E+02  0.00000000000E+00 0.  1.
          6    2    1    2  501    0  0.47055454974E+02  0.92038648130E+02  0.78616805704E+02  0.21506261468E+03  0.17142344501E+03 0.  0.
         24    2    3    3    0    0  0.32635338237E+02  0.12460513458E+03  0.89664356020E+02  0.17747732268E+03  0.82867354624E+02 0.  0.
         -6    2    1    2    0  502 -0.47055454974E+02 -0.92038648130E+02  0.84473850387E+03  0.86811160102E+03  0.17131632531E+03 0.  0.
        -24    2    5    5    0    0 -0.67270175805E+02 -0.32384289345E+00  0.37998089390E+03  0.39393656323E+03  0.79215874015E+02 0.  0.
          5    1    3    3  501    0  0.14420116738E+02 -0.32566486446E+02 -0.11047550316E+02  0.37585291992E+02  0.47000000000E+01 0. -1.
        -13    1    4    4    0    0 -0.24282322855E+02  0.29667966740E+02  0.61809040056E+01  0.38833272177E+02  0.00000000000E+00 0.  1.
         14    1    4    4    0    0  0.56917661091E+02  0.94937167836E+02  0.83483452014E+02  0.13864405051E+03  0.00000000000E+00 0. -1.
         -5    1    5    5    0  502  0.20214720831E+02 -0.91714805236E+02  0.46475760997E+03  0.47417503779E+03  0.47000000000E+01 0.  1.
         13    1    6    6    0    0 -0.51600158676E+02 -0.24407553930E+02  0.12589423173E+03  0.13823046932E+03  0.00000000000E+00 0. -1.
        -14    1    6    6    0    0 -0.15670017129E+02  0.24083711036E+02  0.25408666217E+03  0.25570609392E+03  0.00000000000E+00 0.  1.
</event>
<event>
12    1  0.8417180E-002  0.2096347E+03  0.7818608E-02  0.1142295E+00
         21   -1    0    0  501  502  0.00000000000E+00  0.00000000000E+00  0.13206455053E+04  0.13206455053E+04  0.00000000000E+00 0. -1.
         21   -1    0    0  502  503 -0.00000000000E+00 -0.00000000000E+00 -0.35279594438E+02  0.35279594438E+02  0.00000000000E+00 0. -1.
         -6    2    1    2    0  503  0.27486446112E+02 -0.11599249307E+03  0.46450011924E+03  0.50871358710E+03  0.16976274549E+03 0.  0.
        -24    2    3    3    0    0  0.43056298708E+02 -0.13003015438E+03  0.27121452697E+03  0.31423765948E+03  0.80164213261E+02 0.  0.
          6    2    1    2  501    0 -0.27486446112E+02  0.11599249307E+03  0.82086579158E+03  0.84721151260E+03  0.17244400866E+03 0.  0.
         24    2    5    5    0    0 -0.51174623083E+01  0.10998143304E+03  0.34527903698E+03  0.37103785160E+03  0.79557337224E+02 0.  0.
          5    1    5    5  501    0 -0.22368983804E+02  0.60110600258E+01  0.47558675459E+03  0.47617366099E+03  0.47000000000E+01 0. -1.
        -11    1    6    6    0    0 -0.50502779860E+01  0.43985620157E+01  0.14034156101E+03  0.14050126833E+03  0.00000000000E+00 0.  1.
         12    1    6    6    0    0 -0.67184322324E-01  0.10558287103E+03  0.20493747597E+03  0.23053658327E+03  0.00000000000E+00 0. -1.
         -5    1    3    3    0  503 -0.15569852596E+02  0.14037661310E+02  0.19328559227E+03  0.19447592763E+03  0.47000000000E+01 0.  1.
         11    1    4    4    0    0  0.34729410557E+02 -0.75972083348E+01  0.71115062037E+02  0.79505984559E+02  0.00000000000E+00 0. -1.
        -12    1    4    4    0    0  0.83268881507E+01 -0.12243294604E+03  0.20009946493E+03  0.23473167492E+03  0.00000000000E+00 0.  1.
</event>
<event>
12    1  0.8417180E-002  0.2269356E+03  0.7818608E-02  0.1128872E+00
         21   -1    0    0  503  502  0.00000000000E+00  0.00000000000E+00  0.40994736488E+03  0.40994736488E+03  0.00000000000E+00 0.  1.
         21   -1    0    0  501  503 -0.00000000000E+00 -0.00000000000E+00 -0.19075548947E+03  0.19075548947E+03  0.00000000000E+00 0. -1.
          6    2    1    2  501    0 -0.14326074477E+03  0.38458387527E+02 -0.66091547017E+02  0.23636387305E+03  0.17174719599E+03 0.  0.
         24    2    3    3    0    0 -0.38433334316E+02  0.37036445830E+02  0.22415225235E+02  0.99081876282E+02  0.80411170735E+02 0.  0.
         -6    2    1    2    0  502  0.14326074477E+03 -0.38458387527E+02  0.28528342243E+03  0.36433898130E+03  0.17132884642E+03 0.  0.
        -24    2    5    5    0    0  0.62807935465E+02 -0.25260150244E+02  0.52596464881E+02  0.11773776839E+03  0.80702428963E+02 0.  0.
          5    1    3    3  501    0 -0.10482741046E+03  0.14219416972E+01 -0.88506772252E+02  0.13728199676E+03  0.47000000000E+01 0. -1.
        -11    1    4    4    0    0 -0.61251867319E+02  0.40370226263E+02  0.18901386754E+02  0.75754926175E+02  0.00000000000E+00 0.  1.
         12    1    4    4    0    0  0.22818533003E+02 -0.33337804334E+01  0.35138384809E+01  0.23326950107E+02  0.00000000000E+00 0. -1.
         -5    1    5    5    0  502  0.80452809306E+02 -0.13198237283E+02  0.23268695755E+03  0.24660121291E+03  0.47000000000E+01 0.  1.
         11    1    6    6    0    0 -0.12879984439E+02  0.51292749925E+01 -0.81126164799E+01  0.16062938936E+02  0.00000000000E+00 0. -1.
        -12    1    6    6    0    0  0.75687919904E+02 -0.30389425237E+02  0.60709081361E+02  0.10167482946E+03  0.00000000000E+00 0.  1.
</event>
<event>
12    1  0.8417180E-002  0.2073326E+03  0.7818608E-02  0.1143913E+00
         21   -1    0    0  501  502  0.00000000000E+00  0.00000000000E+00  0.51885748923E+02  0.51885748923E+02  0.00000000000E+00 0.  1.
         21   -1    0    0  502  503 -0.00000000000E+00 -0.00000000000E+00 -0.11991990278E+04  0.11991990278E+04  0.00000000000E+00 0.  1.
         -6    2    1    2    0  503  0.79923448268E+01 -0.11579541716E+03 -0.92243746986E+03  0.94521564839E+03  0.17049715525E+03 0.  0.
        -24    2    3    3    0    0  0.47203511372E+01 -0.14879415701E+03 -0.70464025870E+03  0.72485835224E+03  0.82096003338E+02 0.  0.
          6    2    1    2  501    0 -0.79923448268E+01  0.11579541716E+03 -0.22487580899E+03  0.30586912830E+03  0.17179737475E+03 0.  0.
         24    2    5    5    0    0  0.41137887444E+02  0.11495440812E+03 -0.11575726590E+03  0.18610505412E+03  0.79551900237E+02 0.  0.
          5    1    5    5  501    0 -0.49130232271E+02  0.84100903751E+00 -0.10911854309E+03  0.11976407418E+03  0.47000000000E+01 0. -1.
        -13    1    6    6    0    0  0.24476469525E+02  0.91403774230E+01  0.28550497465E+01  0.26282986301E+02  0.00000000000E+00 0.  1.
         14    1    6    6    0    0  0.16661417919E+02  0.10581403070E+03 -0.11861231565E+03  0.15982206782E+03  0.00000000000E+00 0. -1.
         -5    1    3    3    0  503  0.32719936896E+01  0.32998739855E+02 -0.21779721116E+03  0.22035729614E+03  0.47000000000E+01 0.  1.
         13    1    4    4    0    0 -0.23588066453E+02 -0.11376223539E+02 -0.66378800500E+02  0.71357974304E+02  0.00000000000E+00 0. -1.
        -14    1    4    4    0    0  0.28308417590E+02 -0.13741793347E+03 -0.63826145820E+03  0.65350037794E+03  0.00000000000E+00 0.  1.
</event>
<event>
12    1  0.8417180E-002  0.1775135E+03  0.7818608E-02  0.1170417E+00
         21   -1    0    0  501  502  0.00000000000E+00  0.00000000000E+00  0.14970038863E+03  0.14970038863E+03  0.00000000000E+00 0.  1.
         21   -1    0    0  502  503 -0.00000000000E+00 -0.00000000000E+00 -0.26957749987E+03  0.26957749987E+03  0.00000000000E+00 0.  1.
         -6    2    1    2    0  503  0.33961480184E+02  0.28681093344E+02  0.38843431703E+02  0.18171365003E+03  0.17185764798E+03 0.  0.
        -24    2    3    3    0    0  0.73587172482E+02 -0.73354117863E+01  0.58236136339E+02  0.12456864916E+03  0.81590566598E+02 0.  0.
          6    2    1    2  501    0 -0.33961480184E+02 -0.28681093344E+02 -0.15872054294E+03  0.23756423847E+03  0.17108059328E+03 0.  0.
         24    2    5    5    0    0 -0.20419535450E+02 -0.85013920639E+02 -0.98893406109E+02  0.15414872433E+03  0.79609040376E+02 0.  0.
          5    1    5    5  501    0 -0.13541944734E+02  0.56332827295E+02 -0.59827136827E+02  0.83415514140E+02  0.47000000000E+01 0. -1.
        -11    1    6    6    0    0 -0.99703802144E+01 -0.90497438932E+02 -0.10649749084E+03  0.14011035111E+03  0.00000000000E+00 0.  1.
         12    1    6    6    0    0 -0.10449155236E+02  0.54835182926E+01  0.76040847257E+01  0.14038373215E+02  0.00000000000E+00 0. -1.
         -5    1    3    3    0  503 -0.39625692298E+02  0.36016505130E+02 -0.19392704636E+02  0.57145000875E+02  0.47000000000E+01 0.  1.
         11    1    4    4    0    0  0.30194937281E+02  0.30873463435E+01 -0.18682816245E+02  0.35641458552E+02  0.00000000000E+00 0. -1.
        -12    1    4    4    0    0  0.43392235201E+02 -0.10422758130E+02  0.76918952584E+02  0.88927190608E+02  0.00000000000E+00 0.  1.
</event>
<event>
12    1  0.8417180E-002  0.2725316E+03  0.7818608E-02  0.1100211E+00
         21   -1    0    0  503  502  0.00000000000E+00  0.00000000000E+00  0.49631789851E+03  0.49631789851E+03  0.00000000000E+00 0. -1.
         21   -1    0    0  501  503 -0.00000000000E+00 -0.00000000000E+00 -0.14825628457E+03  0.14825628457E+03  0.00000000000E+00 0. -1.
          6    2    1    2  501    0  0.15263727019E+03 -0.14611530453E+03  0.16789778363E+03  0.31787480911E+03  0.16794912935E+03 0.  0.
         24    2    3    3    0    0  0.61981663325E+02 -0.60961970950E+01  0.36149224111E+02  0.10526351487E+03  0.76777281477E+02 0.  0.
         -6    2    1    2    0  502 -0.15263727019E+03  0.14611530453E+03  0.18016383030E+03  0.32669937398E+03  0.17212105257E+03 0.  0.
        -24    2    5    5    0    0 -0.11969708727E+03  0.36157894353E+02  0.14313491801E+03  0.20599760080E+03  0.79452002833E+02 0.  0.
          5    1    3    3  501    0  0.90655606862E+02 -0.14001910744E+03  0.13174855952E+03  0.21261129424E+03  0.47000000000E+01 0. -1.
        -13    1    4    4    0    0  0.73612055052E+02 -0.19052617705E+02  0.14375548953E+02  0.77384709717E+02  0.00000000000E+00 0.  1.
         14    1    4    4    0    0 -0.11630391727E+02  0.12956420610E+02  0.21773675158E+02  0.27878805150E+02  0.00000000000E+00 0. -1.
         -5    1    5    5    0  502 -0.32940182915E+02  0.10995741018E+03  0.37028912293E+02  0.12070177318E+03  0.47000000000E+01 0.  1.
         13    1    6    6    0    0 -0.86533062319E+02  0.61587114525E+02  0.10674170353E+03  0.15058132295E+03  0.00000000000E+00 0. -1.
        -14    1    6    6    0    0 -0.33164024953E+02 -0.25429220172E+02  0.36393214480E+02  0.55416277842E+02  0.00000000000E+00 0.  1.
</event>
<event>
12    1  0.8417180E-002  0.1745084E+03  0.7818608E-02  0.1173509E+00
         21   -1    0    0  501  502  0.00000000000E+00  0.00000000000E+00  0.55314300552E+03  0.55314300552E+03  0.00000000000E+00 0.  1.
         21   -1    0    0  502  503 -0.00000000000E+00 -0.00000000000E+00 -0.58088044418E+02  0.58088044418E+02  0.00000000000E+00 0.  1.
         -6    2    1    2    0  503 -0.27350973388E+02 -0.70135840456E+01  0.32055914587E+03  0.36444780682E+03  0.17107533951E+03 0.  0.
        -24    2    3    3    0    0  0.26294441382E+02  0.41518868797E+02  0.23171538302E+03  0.24978075095E+03  0.79266579985E+02 0.  0.
          6    2    1    2  501    0  0.27350973388E+02  0.70135840456E+01  0.17449581523E+03  0.24678324312E+03  0.17220892382E+03 0.  0.
         24    2    5    5    0    0 -0.20378504355E+01 -0.61242976927E+02  0.11053751419E+03  0.14862309156E+03  0.78201190813E+02 0.  0.
          5    1    5    5  501    0  0.29388823823E+02  0.68256560973E+02  0.63958301044E+02  0.98160151558E+02  0.47000000000E+01 0. -1.
        -11    1    6    6    0    0 -0.27167768243E+02  0.32164155006E+01  0.16747813269E+02  0.32076817318E+02  0.00000000000E+00 0.  1.
         12    1    6    6    0    0  0.25129917807E+02 -0.64459392428E+02  0.93789700917E+02  0.11654627424E+03  0.00000000000E+00 0. -1.
         -5    1    3    3    0  503 -0.53645414770E+02 -0.48532452843E+02  0.88843762847E+02  0.11466705587E+03  0.47000000000E+01 0.  1.
         13    1    4    4    0    0 -0.18836615432E+02  0.24522254954E+02  0.32697086751E+02  0.45002872697E+02  0.00000000000E+00 0. -1.
        -14    1    4    4    0    0  0.45131056815E+02  0.16996613843E+02  0.19901829627E+03  0.20477787826E+03  0.00000000000E+00 0.  1.
</event>
<event>
12    1  0.8417180E-002  0.2062774E+03  0.7818608E-02  0.1144722E+00
         21   -1    0    0  501  502  0.00000000000E+00  0.00000000000E+00  0.27854607211E+03  0.27854607211E+03  0.00000000000E+00 0.  1.
         21   -1    0    0  502  503 -0.00000000000E+00 -0.00000000000E+00 -0.17747743848E+03  0.17747743848E+03  0.00000000000E+00 0.  1.
         -6    2    1    2    0  503 -0.44058683626E+02 -0.10380994347E+03 -0.35553860243E+02  0.20931895873E+03  0.17272138704E+03 0.  0.
        -24    2    3    3    0    0 -0.10356873722E+02  0.23342974744E+02 -0.21647573714E+02  0.76959027462E+02  0.69295852379E+02 0.  0.
          6    2    1    2  501    0  0.44058683626E+02  0.10380994347E+03  0.13662249387E+03  0.24670455185E+03  0.17169670383E+03 0.  0.
         24    2    5    5    0    0  0.73903216309E+02  0.86132960320E+02  0.42298847209E+02  0.14609534659E+03  0.81695076870E+02 0.  0.
          5    1    5    5  501    0 -0.29844532683E+02  0.17676983149E+02  0.94323646662E+02  0.10060920526E+03  0.47000000000E+01 0. -1.
        -13    1    6    6    0    0  0.25084600464E+02  0.85860093971E+02  0.37667235547E+02  0.97056754278E+02  0.00000000000E+00 0.  1.
         14    1    6    6    0    0  0.48818615845E+02  0.27286634916E+00  0.46316116618E+01  0.49038592309E+02  0.00000000000E+00 0. -1.
         -5    1    3    3    0  503 -0.33701809904E+02 -0.12715291821E+03 -0.13906286529E+02  0.13235993127E+03  0.47000000000E+01 0.  1.
         13    1    4    4    0    0 -0.25115174965E+02  0.35257687824E+02 -0.33373524369E+02  0.54659570919E+02  0.00000000000E+00 0. -1.
        -14    1    4    4    0    0  0.14758301243E+02 -0.11914713079E+02  0.11725950655E+02  0.22299456543E+02  0.00000000000E+00 0.  1.
</event>
<event>
12    1  0.8417180E-002  0.2704933E+03  0.7818608E-02  0.1101036E+00
         21   -1    0    0  503  502  0.00000000000E+00  0.00000000000E+00  0.95930168923E+02  0.95930168923E+02  0.00000000000E+00 0.  1.
         21   -1    0    0  501  503 -0.00000000000E+00 -0.00000000000E+00 -0.10631122374E+04  0.10631122374E+04  0.00000000000E+00 0. -1.
          6    2    1    2  501    0  0.20782337087E+03 -0.19630166146E+02 -0.79220729384E+03  0.83711352177E+03  0.17201963551E+03 0.  0.
         24    2    3    3    0    0  0.13833321295E+03  0.51710432159E+01 -0.70365740923E+03  0.72175688304E+03  0.81464293773E+02 0.  0.
         -6    2    1    2    0  502 -0.20782337087E+03  0.19630166146E+02 -0.17497477463E+03  0.32192888456E+03  0.17159877055E+03 0.  0.
        -24    2    5    5    0    0 -0.16873493393E+03 -0.45069343515E+02 -0.14473825021E+03  0.24037969780E+03  0.79564529691E+02 0.  0.
          5    1    3    3  501    0  0.69490157914E+02 -0.24801209361E+02 -0.88549884616E+02  0.11535663873E+03  0.47000000000E+01 0. -1.
        -11    1    4    4    0    0  0.27824418090E+02 -0.33345304936E+02 -0.20524693055E+03  0.20979134897E+03  0.00000000000E+00 0.  1.
         12    1    4    4    0    0  0.11050879486E+03  0.38516348152E+02 -0.49841047868E+03  0.51196553407E+03  0.00000000000E+00 0. -1.
         -5    1    5    5    0  502 -0.39088436933E+02  0.64699509660E+02 -0.30236524424E+02  0.81549186761E+02  0.47000000000E+01 0.  1.
         13    1    6    6    0    0 -0.58923258384E+02 -0.14844227150E+02 -0.62688565420E+01  0.61086823625E+02  0.00000000000E+00 0. -1.
        -14    1    6    6    0    0 -0.10981167555E+03 -0.30225116365E+02 -0.13846939367E+03  0.17929287417E+03  0.00000000000E+00 0.  1.
</event>
<event>
12    1  0.8417180E-002  0.1809816E+03  0.7818608E-02  0.1167285E+00
         21   -1    0    0  503  502  0.00000000000E+00  0.00000000000E+00  0.57010337573E+02  0.57010337573E+02  0.00000000000E+00 0.  1.
         21   -1    0    0  501  503 -0.00000000000E+00 -0.00000000000E+00 -0.69679812611E+03  0.69679812611E+03  0.00000000000E+00 0.  1.
          6    2    1    2  501    0 -0.15838864879E+02 -0.48506006676E+02 -0.15713554867E+03  0.23834018996E+03  0.17178697031E+03 0.  0.
         24    2    3    3    0    0  0.35852438020E+01 -0.63837491963E+01 -0.17162225977E+03  0.18951872571E+03  0.80059609777E+02 0.  0.
         -6    2    1    2    0  502  0.15838864879E+02  0.48506006676E+02 -0.48265223986E+03  0.51546827372E+03  0.17363943747E+03 0.  0.
        -24    2    5    5    0    0 -0.55953356587E+02  0.46579642426E+02 -0.33025666997E+03  0.34693242096E+03  0.77409272401E+02 0.  0.
          5    1    3    3  501    0 -0.19424108681E+02 -0.42122257480E+02  0.14486711099E+02  0.48821464252E+02  0.47000000000E+01 0. -1.
        -13    1    4    4    0    0 -0.32776218441E+01  0.36596215866E+02 -0.73287508045E+02  0.81982221585E+02  0.00000000000E+00 0.  1.
         14    1    4    4    0    0  0.68628656461E+01 -0.42979965062E+02 -0.98334751729E+02  0.10753650412E+03  0.00000000000E+00 0. -1.
         -5    1    5    5    0  502  0.71792221466E+02  0.19263642498E+01 -0.15239556989E+03  0.16853585276E+03  0.47000000000E+01 0.  1.
         13    1    6    6    0    0 -0.50034625304E+01  0.89112938492E+00  0.35394452344E+01  0.61932561259E+01  0.00000000000E+00 0. -1.
        -14    1    6    6    0    0 -0.50949894057E+02  0.45688513041E+02 -0.33379611521E+03  0.34073916484E+03  0.00000000000E+00 0.  1.
</event>
<event>
12    1  0.8417180E-002  0.2904320E+03  0.7818608E-02  0.1090400E+00
         21   -1    0    0  503  502  0.00000000000E+00  0.00000000000E+00  0.62719536630E+03  0.62719536630E+03  0.00000000000E+00 0.  1.
         21   -1    0    0  501  503 -0.00000000000E+00 -0.00000000000E+00 -0.15282056141E+03  0.15282056141E+03  0.00000000000E+00 0. -1.
          6    2    1    2  501    0  0.15022593593E+03 -0.17910784327E+03  0.37657431081E+03  0.47556175009E+03  0.17234649761E+03 0.  0.
         24    2    3    3    0    0  0.35997202711E+02 -0.12016997892E+03  0.26893285304E+03  0.30783981122E+03  0.81877026643E+02 0.  0.
         -6    2    1    2    0  502 -0.15022593593E+03  0.17910784327E+03  0.97800494085E+02  0.30445417762E+03  0.16876006126E+03 0.  0.
        -24    2    5    5    0    0 -0.13687789133E+03  0.81319400487E+02  0.26486696994E+02  0.18259976657E+03  0.85397468353E+02 0.  0.
          5    1    3    3  501    0  0.11422873322E+03 -0.58937864355E+02  0.10764145777E+03  0.16772193887E+03  0.47000000000E+01 0. -1.
        -11    1    4    4    0    0 -0.33489115986E+01  0.69958974450E+01  0.57312282611E+02  0.57834725970E+02  0.00000000000E+00 0.  1.
         12    1    4    4    0    0  0.39346114310E+02 -0.12716587636E+03  0.21162057043E+03  0.25000508525E+03  0.00000000000E+00 0. -1.
         -5    1    5    5    0  502 -0.13348044601E+02  0.97788442785E+02  0.71313797091E+02  0.12185441105E+03  0.47000000000E+01 0.  1.
         11    1    6    6    0    0 -0.13819294259E+02  0.24173587112E+01 -0.24122784138E+02  0.27905648738E+02  0.00000000000E+00 0. -1.
        -12    1    6    6    0    0 -0.12305859707E+03  0.78902041776E+02  0.50609481132E+02  0.15469411783E+03  0.00000000000E+00 0.  1.
</event>
<event>
12    1  0.8417180E-002  0.1814687E+03  0.7818608E-02  0.1166494E+00
         21   -1    0    0  501  502  0.00000000000E+00  0.00000000000E+00  0.28789980236E+03  0.28789980236E+03  0.00000000000E+00 0.  1.
         21   -1    0    0  502  503 -0.00000000000E+00 -0.00000000000E+00 -0.14124775010E+03  0.14124775010E+03  0.00000000000E+00 0.  1.
         -6    2    1    2    0  503  0.19296441487E+01  0.57656992887E+02 -0.20804648661E+02  0.18222120154E+03  0.17159160973E+03 0.  0.
        -24    2    3    3    0    0 -0.66190564619E+02  0.41087596321E+02 -0.12129166381E+02  0.11142387293E+03  0.78732340027E+02 0.  0.
          6    2    1    2  501    0 -0.19296441487E+01 -0.57656992887E+02  0.16745670092E+03  0.24692635092E+03  0.17205471148E+03 0.  0.
         24    2    5    5    0    0 -0.35965429624E+02 -0.80955093838E+02  0.16792228346E+03  0.20541077592E+03  0.78412079656E+02 0.  0.
          5    1    5    5  501    0  0.34035785475E+02  0.23298100951E+02 -0.46558253496E+00  0.41515575004E+02  0.47000000000E+01 0. -1.
        -13    1    6    6    0    0  0.96408806263E+01 -0.64925525139E+02  0.68567615685E+02  0.94919904734E+02  0.00000000000E+00 0.  1.
         14    1    6    6    0    0 -0.45606310250E+02 -0.16029568699E+02  0.99354667772E+02  0.11049087119E+03  0.00000000000E+00 0. -1.
         -5    1    3    3    0  503  0.68120208768E+02  0.16569396566E+02 -0.86754822796E+01  0.70797328607E+02  0.47000000000E+01 0.  1.
         11    1    4    4    0    0 -0.40069162209E+02  0.50151570572E+02 -0.37121382214E+02  0.74153319605E+02  0.00000000000E+00 0. -1.
        -12    1    4    4    0    0 -0.26121402411E+02 -0.90639742511E+01  0.24992215832E+02  0.37270553328E+02  0.00000000000E+00 0.  1.
</event>
<event>
12    1  0.8417180E-002  0.1943125E+03  0.7818608E-02  0.1155475E+00
         21   -1    0    0  501  502  0.00000000000E+00  0.00000000000E+00  0.43456013178E+03  0.43456013178E+03  0.00000000000E+00 0.  1.
         21   -1    0    0  502  503 -0.00000000000E+00 -0.00000000000E+00 -0.93708516706E+02  0.93708516706E+02  0.00000000000E+00 0.  1.
         -6    2    1    2    0  503 -0.12124605578E+02 -0.81552434317E+02  0.89227264076E+02  0.21035019548E+03  0.17172039623E+03 0.  0.
        -24    2    3    3    0    0  0.21156920629E+02 -0.21391953052E+01  0.91576870909E+02  0.12408471473E+03  0.80984576906E+02 0.  0.
          6    2    1    2  501    0  0.12124605578E+02  0.81552434317E+02  0.25162435099E+03  0.31791845300E+03  0.17595318452E+03 0.  0.
         24    2    5    5    0    0 -0.43688033900E+02  0.72196660755E+02  0.23021372150E+03  0.25723001687E+03  0.77768386151E+02 0.  0.
          5    1    5    5  501    0  0.55812639477E+02  0.93557735619E+01  0.21410629496E+02  0.60688436129E+02  0.47000000000E+01 0. -1.
        -11    1    6    6    0    0 -0.43560682640E+02  0.73495066278E+02  0.12162117575E+03  0.14862963443E+03  0.00000000000E+00 0.  1.
         12    1    6    6    0    0 -0.12735125940E+00 -0.12984055230E+01  0.10859254575E+03  0.10860038245E+03  0.00000000000E+00 0. -1.
         -5    1    3    3    0  503 -0.33281526207E+02 -0.79413239012E+02 -0.23496068331E+01  0.86265480751E+02  0.47000000000E+01 0.  1.
         11    1    4    4    0    0  0.39279979039E+02 -0.28291744042E+02  0.37073805976E+02  0.60973819167E+02  0.00000000000E+00 0. -1.
        -12    1    4    4    0    0 -0.18123058410E+02  0.26152548737E+02  0.54503064933E+02  0.63110895562E+02  0.00000000000E+00 0.  1.
</event>
<event>
12    1  0.8417180E-002  0.1736724E+03  0.7818608E-02  0.1174198E+00
         21   -1    0    0  501  502  0.00000000000E+00  0.00000000000E+00  0.17203617495E+02  0.17203617495E+02  0.00000000000E+00 0.  1.
         21   -1    0    0  502  503 -0.00000000000E+00 -0.00000000000E+00 -0.20029622155E+04  0.20029622155E+04  0.00000000000E+00 0.  1.
         -6    2    1    2    0  503  0.15688170604E+02  0.20315037828E+02 -0.13543624125E+04  0.13654521774E+04  0.17176520335E+03 0.  0.
        -24    2    3    3    0    0  0.46822266481E+02  0.21382508032E+02 -0.12926181038E+04  0.12961346394E+04  0.80336199976E+02 0.  0.
          6    2    1    2  501    0 -0.15688170604E+02 -0.20315037828E+02 -0.63139618551E+03  0.65471365554E+03  0.17126006019E+03 0.  0.
         24    2    5    5    0    0  0.56053554869E+02 -0.11307172252E+02 -0.41847816478E+03  0.42980436189E+03  0.79611317970E+02 0.  0.
          5    1    5    5  501    0 -0.71741725473E+02 -0.90078655757E+01 -0.21291802074E+03  0.22490929365E+03  0.47000000000E+01 0. -1.
        -13    1    6    6    0    0  0.26504239753E+02  0.78130955529E+01 -0.34430123845E+02  0.44146943438E+02  0.00000000000E+00 0.  1.
         14    1    6    6    0    0  0.29549315116E+02 -0.19120267805E+02 -0.38404804093E+03  0.38565741845E+03  0.00000000000E+00 0. -1.
         -5    1    3    3    0  503 -0.31134095877E+02 -0.10674702038E+01 -0.61744308692E+02  0.69317538001E+02  0.47000000000E+01 0.  1.
         11    1    4    4    0    0  0.36750402089E+02  0.42974641044E+02 -0.50493776013E+03  0.50809403995E+03  0.00000000000E+00 0. -1.
        -12    1    4    4    0    0  0.10071864392E+02 -0.21592133013E+02 -0.78768034366E+03  0.78804059949E+03  0.00000000000E+00 0.  1.
</event>
<event>
12    1  0.8417180E-002  0.4284677E+03  0.7818608E-02  0.1034396E+00
         21   -1    0    0  501  502  0.00000000000E+00  0.00000000000E+00  0.26865593597E+03  0.26865593597E+03  0.00000000000E+00 0.  1.
         21   -1    0    0  502  503 -0.00000000000E+00 -0.00000000000E+00 -0.69244652024E+03  0.69244652024E+03  0.00000000000E+00 0.  1.
         -6    2    1    2    0  503  0.22079384954E+03  0.32407321757E+03 -0.26984177180E+03  0.50581702821E+03  0.17106405197E+03 0.  0.
        -24    2    3    3    0    0  0.97575766552E+02  0.22204532281E+03 -0.22276790877E+03  0.33899249205E+03  0.80406547532E+02 0.  0.
          6    2    1    2  501    0 -0.22079384954E+03 -0.32407321757E+03 -0.15394881248E+03  0.45528542800E+03  0.17265923013E+03 0.  0.
         24    2    5    5    0    0 -0.10162038852E+03 -0.19270175478E+03 -0.19918894987E+02  0.23291887515E+03  0.79961055294E+02 0.  0.
          5    1    5    5  501    0 -0.11917346102E+03 -0.13137146278E+03 -0.13402991749E+03  0.22236655285E+03  0.47000000000E+01 0. -1.
        -11    1    6    6    0    0 -0.11132657196E+03 -0.18294792283E+03 -0.29459671169E+02  0.21617451357E+03  0.00000000000E+00 0.  1.
         12    1    6    6    0    0  0.97061834335E+01 -0.97538319520E+01  0.95407761816E+01  0.16744361581E+02  0.00000000000E+00 0. -1.
         -5    1    3    3    0  503  0.12321808299E+03  0.10202789476E+03 -0.47073863022E+02  0.16682453616E+03  0.47000000000E+01 0.  1.
         11    1    4    4    0    0  0.61672787979E+02  0.12520282103E+03 -0.74243941244E+02  0.15808681786E+03  0.00000000000E+00 0. -1.
        -12    1    4    4    0    0  0.35902978574E+02  0.96842501777E+02 -0.14852396753E+03  0.18090567418E+03  0.00000000000E+00 0.  1.
</event>
<event>
12    1  0.8417180E-002  0.2213808E+03  0.7818608E-02  0.1133743E+00
         21   -1    0    0  503  502  0.00000000000E+00  0.00000000000E+00  0.60291675520E+02  0.60291675520E+02  0.00000000000E+00 0. -1.
         21   -1    0    0  501  503 -0.00000000000E+00 -0.00000000000E+00 -0.80063103571E+03  0.80063103571E+03  0.00000000000E+00 0.  1.
          6    2    1    2  501    0  0.92024608322E+02  0.94568158476E+02 -0.40033935989E+03  0.45520178229E+03  0.17182955040E+03 0.  0.
         24    2    3    3    0    0  0.44883203997E+02  0.80370017968E+02 -0.38443150906E+03  0.40324941070E+03  0.79678480692E+02 0.  0.
         -6    2    1    2    0  502 -0.92024608322E+02 -0.94568158476E+02 -0.34000000029E+03  0.40572092893E+03  0.17775771950E+03 0.  0.
        -24    2    5    5    0    0 -0.36588914978E+02  0.25810342733E+02 -0.12563622979E+03  0.15365344639E+03  0.76288903920E+02 0.  0.
          5    1    3    3  501    0  0.47141404325E+02  0.14198140508E+02 -0.15907850832E+02  0.51952371589E+02  0.47000000000E+01 0. -1.
        -13    1    4    4    0    0  0.32487724926E+02  0.56471323061E+02 -0.11261005431E+03  0.13009798973E+03  0.00000000000E+00 0.  1.
         14    1    4    4    0    0  0.12395479070E+02  0.23898694907E+02 -0.27182145475E+03  0.27315142097E+03  0.00000000000E+00 0. -1.
         -5    1    5    5    0  502 -0.55435693344E+02 -0.12037850121E+03 -0.21436377050E+03  0.25206748254E+03  0.47000000000E+01 0.  1.
         11    1    6    6    0    0 -0.49376458740E+02 -0.98223016467E+01 -0.65866802545E+02  0.82903244598E+02  0.00000000000E+00 0. -1.
        -12    1    6    6    0    0  0.12787543761E+02  0.35632644380E+02 -0.59769427243E+02  0.70750201794E+02  0.00000000000E+00 0.  1.
</event>
<event>
12    1  0.8417180E-002  0.1781913E+03  0.7818608E-02  0.1170097E+00
         21   -1    0    0  503  502  0.00000000000E+00  0.00000000000E+00  0.30907775592E+03  0.30907775592E+03  0.00000000000E+00 0. -1.
         21   -1    0    0  501  503 -0.00000000000E+00 -0.00000000000E+00 -0.11545674607E+03  0.11545674607E+03  0.00000000000E+00 0. -1.
          6    2    1    2  501    0  0.22959603431E+02  0.30487671200E+02  0.22477025509E+02  0.17746689886E+03  0.17185063873E+03 0.  0.
         24    2    3    3    0    0  0.45631298929E+02  0.55590552582E+02  0.67830042098E+02  0.12069413652E+03  0.69236081640E+02 0.  0.
         -6    2    1    2    0  502 -0.22959603431E+02 -0.30487671200E+02  0.17114398434E+03  0.24706760313E+03  0.17405601298E+03 0.  0.
        -24    2    5    5    0    0  0.95949929373E+01 -0.60393247732E+02  0.17582590526E+03  0.20236686895E+03  0.79361151877E+02 0.  0.
          5    1    3    3  501    0 -0.22671695498E+02 -0.25102881382E+02 -0.45353016589E+02  0.56772762344E+02  0.47000000000E+01 0. -1.
        -13    1    4    4    0    0  0.54218754516E+02  0.24935508229E+02  0.65744552885E+02  0.88790760476E+02  0.00000000000E+00 0.  1.
         14    1    4    4    0    0 -0.85874555871E+01  0.30655044352E+02  0.20854892134E+01  0.31903376043E+02  0.00000000000E+00 0. -1.
         -5    1    5    5    0  502 -0.32554596368E+02  0.29905576532E+02 -0.46819209182E+01  0.44700734176E+02  0.47000000000E+01 0.  1.
         13    1    6    6    0    0 -0.91996981230E+01  0.90910966702E+01  0.87379027785E+02  0.88331064642E+02  0.00000000000E+00 0. -1.
        -14    1    6    6    0    0  0.18794691060E+02 -0.69484344402E+02  0.88446877474E+02  0.11403580431E+03  0.00000000000E+00 0.  1.
</event>
<event>
12    1  0.8417180E-002  0.1937174E+03  0.7818608E-02  0.1155416E+00
         21   -1    0    0  501  502  0.00000000000E+00  0.00000000000E+00  0.11545312810E+04  0.11545312810E+04  0.00000000000E+00 0.  1.
         21   -1    0    0  502  503 -0.00000000000E+00 -0.00000000000E+00 -0.84929405541E+02  0.84929405541E+02  0.00000000000E+00 0.  1.
         -6    2    1    2    0  503 -0.74368395654E+01  0.90601493100E+02  0.47593246100E+02  0.19947817577E+03  0.17106282004E+03 0.  0.
        -24    2    3    3    0    0 -0.28113381414E+01  0.10325071506E+03 -0.17855961064E+02  0.13249245492E+03  0.81035803706E+02 0.  0.
          6    2    1    2  501    0  0.74368395654E+01 -0.90601493100E+02  0.10220086294E+04  0.10399825108E+04  0.16969987359E+03 0.  0.
         24    2    5    5    0    0 -0.30194417638E+02 -0.96967458610E+02  0.93483761505E+03  0.94470652864E+03  0.90745070723E+02 0.  0.
          5    1    5    5  501    0  0.37631257203E+02  0.63659655103E+01  0.87171014317E+02  0.95275982139E+02  0.47000000000E+01 0. -1.
        -11    1    6    6    0    0  0.30831719947E+02 -0.50670839492E+02  0.37812964690E+03  0.38275339162E+03  0.00000000000E+00 0.  1.
         12    1    6    6    0    0 -0.61026137584E+02 -0.46296619118E+02  0.55670796815E+03  0.56195313702E+03  0.00000000000E+00 0. -1.
         -5    1    3    3    0  503 -0.46255014239E+01 -0.12649221958E+02  0.65449207164E+02  0.66985720852E+02  0.47000000000E+01 0.  1.
         13    1    4    4    0    0  0.34384573766E+02  0.21316452252E+02 -0.12534180602E+02  0.42353225769E+02  0.00000000000E+00 0. -1.
        -14    1    4    4    0    0 -0.37195911907E+02  0.81934262806E+02 -0.53217804618E+01  0.90139229148E+02  0.00000000000E+00 0.  1.
</event>
<event>
12    1  0.8417180E-002  0.1861185E+03  0.7818608E-02  0.1162422E+00
         21   -1    0    0  503  502  0.00000000000E+00  0.00000000000E+00  0.64354533102E+02  0.64354533102E+02  0.00000000000E+00 0. -1.
         21   -1    0    0  501  503 -0.00000000000E+00 -0.00000000000E+00 -0.53317098222E+03  0.53317098222E+03  0.00000000000E+00 0.  1.
          6    2    1    2  501    0  0.68531666801E+02  0.20285986390E+02 -0.23463207837E+03  0.29838938191E+03  0.16992910415E+03 0.  0.
         24    2    3    3    0    0  0.59351780615E+02 -0.11963003381E+02 -0.24394023287E+03  0.26327529084E+03  0.78366410151E+02 0.  0.
         -6    2    1    2    0  502 -0.68531666801E+02 -0.20285986390E+02 -0.23418437075E+03  0.29913613342E+03  0.17184875970E+03 0.  0.
        -24    2    5    5    0    0 -0.17746612319E+02 -0.46912379207E+02 -0.21865244281E+03  0.23954236412E+03  0.83999642205E+02 0.  0.
          5    1    3    3  501    0  0.91798861861E+01  0.32248989771E+02  0.93081545024E+01  0.35114091073E+02  0.47000000000E+01 0. -1.
        -13    1    4    4    0    0  0.22705084145E+02  0.27299490066E+02 -0.45611029754E+02  0.57802673287E+02  0.00000000000E+00 0.  1.
         14    1    4    4    0    0  0.36646696470E+02 -0.39262493447E+02 -0.19832920312E+03  0.20547261755E+03  0.00000000000E+00 0. -1.
         -5    1    5    5    0  502 -0.50785054482E+02  0.26626392817E+02 -0.15531927946E+02  0.59593769296E+02  0.47000000000E+01 0.  1.
         13    1    6    6    0    0 -0.15912129712E+02  0.11092431109E+02 -0.78970264858E+01  0.20942801322E+02  0.00000000000E+00 0. -1.
        -14    1    6    6    0    0 -0.18344826064E+01 -0.58004810316E+02 -0.21075541632E+03  0.21859956280E+03  0.00000000000E+00 0.  1.
</event>
<event>
12    1  0.8417180E-002  0.1841368E+03  0.7818608E-02  0.1164079E+00
         21   -1    0    0  503  502  0.00000000000E+00  0.00000000000E+00  0.41152625319E+03  0.41152625319E+03  0.00000000000E+00 0.  1.
         21   -1    0    0  501  503 -0.00000000000E+00 -0.00000000000E+00 -0.14609617555E+03  0.14609617555E+03  0.00000000000E+00 0.  1.
          6    2    1    2  501    0  0.17949882728E+02 -0.61369823034E+02 -0.52186668263E+02  0.19048928514E+03  0.17168070929E+03 0.  0.
         24    2    3    3    0    0  0.21748719007E+02 -0.15063191217E+02  0.35420524310E+02  0.91212674114E+02  0.79782403251E+02 0.  0.
         -6    2    1    2    0  502 -0.17949882728E+02  0.61369823034E+02  0.31761674591E+03  0.36713314359E+03  0.17267858690E+03 0.  0.
        -24    2    5    5    0    0 -0.27963686837E+02 -0.27597405404E+02  0.15678380947E+03  0.18300067103E+03  0.85816654087E+02 0.  0.
          5    1    3    3  501    0 -0.37988362787E+01 -0.46306631817E+02 -0.87607192573E+02  0.99276611031E+02  0.47000000000E+01 0. -1.
        -13    1    4    4    0    0 -0.21973440112E+01  0.24426582404E+02 -0.99549794398E+01  0.26468620370E+02  0.00000000000E+00 0.  1.
         14    1    4    4    0    0  0.23946063018E+02 -0.39489773621E+02  0.45375503749E+02  0.64744053744E+02  0.00000000000E+00 0. -1.
         -5    1    5    5    0  502  0.10013804109E+02  0.88967228438E+02  0.16083293644E+03  0.18413247256E+03  0.47000000000E+01 0.  1.
         11    1    6    6    0    0  0.51168983030E+01  0.13275322471E+02 -0.32123571777E+01  0.14585474747E+02  0.00000000000E+00 0. -1.
        -12    1    6    6    0    0 -0.33080585140E+02 -0.40872727875E+02  0.15999616665E+03  0.16841519628E+03  0.00000000000E+00 0.  1.
</event>
<event>
12    1  0.8417180E-002  0.2071057E+03  0.7818608E-02  0.1144421E+00
         21   -1    0    0  503  502  0.00000000000E+00  0.00000000000E+00  0.21352706168E+03  0.21352706168E+03  0.00000000000E+00 0.  1.
         21   -1    0    0  501  503 -0.00000000000E+00 -0.00000000000E+00 -0.22600931051E+03  0.22600931051E+03  0.00000000000E+00 0.  1.
          6    2    1    2  501    0  0.11187390283E+03 -0.81891348175E+01 -0.83164601300E+02  0.22070138682E+03  0.17090909622E+03 0.  0.
         24    2    3    3    0    0  0.35113397259E+02  0.56904888913E+02 -0.19575897913E+02  0.10155852997E+03  0.73890474222E+02 0.  0.
         -6    2    1    2    0  502 -0.11187390283E+03  0.81891348175E+01  0.70682352467E+02  0.21883498537E+03  0.17409745492E+03 0.  0.
        -24    2    5    5    0    0 -0.21476094897E+02  0.55195601369E+02  0.83570016844E+01  0.99302935586E+02  0.79268256422E+02 0.  0.
          5    1    3    3  501    0  0.76760505569E+02 -0.65094023731E+02 -0.63588703387E+02  0.11914285685E+03  0.47000000000E+01 0. -1.
        -13    1    4    4    0    0  0.18190622890E+02  0.45409661893E+02 -0.46669361656E+02  0.67608915623E+02  0.00000000000E+00 0.  1.
         14    1    4    4    0    0  0.16922774370E+02  0.11495227020E+02  0.27093463743E+02  0.33949614345E+02  0.00000000000E+00 0. -1.
         -5    1    5    5    0  502 -0.90397807930E+02 -0.47006466552E+02  0.62325350783E+02  0.11953204979E+03  0.47000000000E+01 0.  1.
         13    1    6    6    0    0  0.69866257572E+01 -0.18197749924E+02 -0.31547221160E+01  0.19746475974E+02  0.00000000000E+00 0. -1.
        -14    1    6    6    0    0 -0.28462720655E+02  0.73393351293E+02  0.11511723800E+02  0.79556459612E+02  0.00000000000E+00 0.  1.
</event>
<event>
12    1  0.8417180E-002  0.1861577E+03  0.7818608E-02  0.1161996E+00
         21   -1    0    0  501  502  0.00000000000E+00  0.00000000000E+00  0.21322204967E+03  0.21322204967E+03  0.00000000000E+00 0.  1.
         21   -1    0    0  502  503 -0.00000000000E+00 -0.00000000000E+00 -0.50271883059E+03  0.50271883059E+03  0.00000000000E+00 0.  1.
         -6    2    1    2    0  503 -0.57016677455E+02 -0.44278031939E+02 -0.43927106909E+03  0.47708882807E+03  0.17159030307E+03 0.  0.
        -24    2    3    3    0    0 -0.10010935554E+03 -0.53972500605E+02 -0.29694286228E+03  0.32799030332E+03  0.80421773960E+02 0.  0.
          6    2    1    2  501    0  0.57016677455E+02  0.44278031939E+02  0.14977428817E+03  0.23885205219E+03  0.17148329311E+03 0.  0.
         24    2    5    5    0    0  0.37824209544E+02  0.99828111176E+01  0.17191507992E+03  0.19349990059E+03  0.79731358181E+02 0.  0.
          5    1    5    5  501    0  0.19192467911E+02  0.34295220822E+02 -0.22140791748E+02  0.45352151602E+02  0.47000000000E+01 0. -1.
        -13    1    6    6    0    0 -0.20703449866E+02 -0.14374985934E+02  0.43043694556E+02  0.49880183420E+02  0.00000000000E+00 0.  1.
         14    1    6    6    0    0  0.58527659410E+02  0.24357797052E+02  0.12887138536E+03  0.14361971717E+03  0.00000000000E+00 0. -1.
         -5    1    3    3    0  503  0.43092678084E+02  0.96944686658E+01 -0.14232820681E+03  0.14909852475E+03  0.47000000000E+01 0.  1.
         13    1    4    4    0    0 -0.73551996332E+02 -0.24833765427E+01 -0.21787843825E+03  0.22997190520E+03  0.00000000000E+00 0. -1.
        -14    1    4    4    0    0 -0.26557359208E+02 -0.51489124062E+02 -0.79064424023E+02  0.98018398124E+02  0.00000000000E+00 0.  1.
</event>
<event>
12    1  0.8417180E-002  0.2261103E+03  0.7818608E-02  0.1129430E+00
         21   -1    0    0  503  502  0.00000000000E+00  0.00000000000E+00  0.87508715096E+02  0.87508715096E+02  0.00000000000E+00 0. -1.
         21   -1    0    0  501  503 -0.00000000000E+00 -0.00000000000E+00 -0.58757021552E+03  0.58757021552E+03  0.00000000000E+00 0. -1.
          6    2    1    2  501    0 -0.40576987956E+02  0.13951323925E+03 -0.27655493418E+03  0.35714647214E+03  0.17309111781E+03 0.  0.
         24    2    3    3    0    0  0.27467238410E+02  0.13036033228E+03 -0.21248677018E+03  0.26312194296E+03  0.79588089254E+02 0.  0.
         -6    2    1    2    0  502  0.40576987956E+02 -0.13951323925E+03 -0.22350656625E+03  0.31793245848E+03  0.17324960930E+03 0.  0.
        -24    2    5    5    0    0  0.10705916312E+02  0.22281677788E+01 -0.68441943283E+02  0.10568252401E+03  0.79780416800E+02 0.  0.
          5    1    3    3  501    0 -0.68044226366E+02  0.91529069701E+01 -0.64068163999E+02  0.94024529172E+02  0.47000000000E+01 0. -1.
        -13    1    4    4    0    0  0.55375964023E+02  0.83197001387E+02 -0.14655333545E+03  0.17738691768E+03  0.00000000000E+00 0.  1.
         14    1    4    4    0    0 -0.27908725612E+02  0.47163330893E+02 -0.65933434725E+02  0.85735025286E+02  0.00000000000E+00 0. -1.
         -5    1    5    5    0  502  0.29871071644E+02 -0.14174140703E+03 -0.15506462297E+03  0.21224993447E+03  0.47000000000E+01 0.  1.
         11    1    6    6    0    0  0.41478605429E+02 -0.14713406993E+02 -0.47638116321E+02  0.64856373475E+02  0.00000000000E+00 0. -1.
        -12    1    6    6    0    0 -0.30772689117E+02  0.16941574771E+02 -0.20803826962E+02  0.40826150534E+02  0.00000000000E+00 0.  1.
</event>
<event>
12    1  0.8417180E-002  0.2500540E+03  0.7818608E-02  0.1113747E+00
         21   -1    0    0  503  502  0.00000000000E+00  0.00000000000E+00  0.26091438346E+03  0.26091438346E+03  0.00000000000E+00 0. -1.
         21   -1    0    0  501  503 -0.00000000000E+00 -0.00000000000E+00 -0.30208643549E+03  0.30208643549E+03  0.00000000000E+00 0.  1.
          6    2    1    2  501    0 -0.16980602418E+03  0.53015998048E+02 -0.15156345496E+03  0.29240125643E+03  0.17573341170E+03 0.  0.
         24    2    3    3    0    0 -0.58165499094E+02  0.20343298086E+02 -0.14705450979E+03  0.17589575119E+03  0.74277933304E+02 0.  0.
         -6    2    1    2    0  502  0.16980602418E+03 -0.53015998048E+02  0.11039140293E+03  0.27059956253E+03  0.17144410023E+03 0.  0.
        -24    2    5    5    0    0  0.58304728055E+02  0.88409121523E+01 -0.40785667969E+01  0.99181126104E+02  0.79640806292E+02 0.  0.
          5    1    3    3  501    0 -0.11164052509E+03  0.32672699961E+02 -0.45089451681E+01  0.11650550524E+03  0.47000000000E+01 0. -1.
        -13    1    4    4    0    0 -0.27486918537E+02  0.41266101538E+02 -0.12032965945E+03  0.13014472241E+03  0.00000000000E+00 0.  1.
         14    1    4    4    0    0 -0.30678580557E+02 -0.20922803451E+02 -0.26724850339E+02  0.45751028785E+02  0.00000000000E+00 0. -1.
         -5    1    5    5    0  502  0.11150129613E+03 -0.61856910200E+02  0.11446996972E+03  0.17141843642E+03  0.47000000000E+01 0.  1.
         13    1    6    6    0    0  0.12339634275E+02  0.50947365020E+01  0.35802988110E+02  0.38210952248E+02  0.00000000000E+00 0. -1.
        -14    1    6    6    0    0  0.45965093780E+02  0.37461756503E+01 -0.39881554907E+02  0.60970173856E+02  0.00000000000E+00 0.  1.
</event>
<event>
12    1  0.8417180E-002  0.1778986E+03  0.7818608E-02  0.1170198E+00
         21   -1    0    0  503  502  0.00000000000E+00  0.00000000000E+00  0.27854157340E+03  0.27854157340E+03  0.00000000000E+00 0. -1.
         21   -1    0    0  501  503 -0.00000000000E+00 -0.00000000000E+00 -0.12528427405E+03  0.12528427405E+03  0.00000000000E+00 0. -1.
          6    2    1    2  501    0 -0.41923464845E+02 -0.12645190627E+02  0.12432478259E+02  0.17693480595E+03  0.17097918379E+03 0.  0.
         24    2    3    3    0    0 -0.20711779149E+01 -0.69031271313E+02 -0.69922740673E+01  0.10505291761E+03  0.78851870007E+02 0.  0.
         -6    2    1    2    0  502  0.41923464845E+02  0.12645190627E+02  0.14082482109E+03  0.22689104151E+03  0.17242516269E+03 0.  0.
        -24    2    5    5    0    0  0.61284060487E+02  0.56534755290E+02  0.13927148697E+03  0.17866626160E+03  0.74653675899E+02 0.  0.
          5    1    3    3  501    0 -0.39852286930E+02  0.56386080686E+02  0.19424752326E+02  0.71881888342E+02  0.47000000000E+01 0. -1.
        -13    1    4    4    0    0  0.86046145284E+01 -0.35529469478E+01  0.28381012218E+02  0.29868791032E+02  0.00000000000E+00 0.  1.
         14    1    4    4    0    0 -0.10675792443E+02 -0.65478324366E+02 -0.35373286285E+02  0.75184126574E+02  0.00000000000E+00 0. -1.
         -5    1    5    5    0  502 -0.19360595642E+02 -0.43889564663E+02  0.15533341200E+01  0.48224779904E+02  0.47000000000E+01 0.  1.
         13    1    6    6    0    0  0.60504066583E+01  0.13281941369E+02  0.94105297528E+02  0.95230375459E+02  0.00000000000E+00 0. -1.
        -14    1    6    6    0    0  0.55233653828E+02  0.43252813921E+02  0.45166189446E+02  0.83435886143E+02  0.00000000000E+00 0.  1.
</event>
<event>
12    1  0.8417180E-002  0.2008402E+03  0.7818608E-02  0.1149795E+00
         21   -1    0    0  503  502  0.00000000000E+00  0.00000000000E+00  0.70661146926E+02  0.70661146926E+02  0.00000000000E+00 0. -1.
         21   -1    0    0  501  503 -0.00000000000E+00 -0.00000000000E+00 -0.75672330327E+03  0.75672330327E+03  0.00000000000E+00 0. -1.
          6    2    1    2  501    0  0.92809815934E+02  0.41517188093E+02 -0.55590264550E+03  0.59107065537E+03  0.17320343394E+03 0.  0.
         24    2    3    3    0    0 -0.18020293649E+02  0.11653279421E+01 -0.24505652489E+03  0.25856654036E+03  0.80485193832E+02 0.  0.
         -6    2    1    2    0  502 -0.92809815934E+02 -0.41517188093E+02 -0.13015951085E+03  0.23631379483E+03  0.16901293596E+03 0.  0.
        -24    2    5    5    0    0 -0.45307439974E+02 -0.38900226903E+02 -0.25813824988E+01  0.10007285736E+03  0.80261581564E+02 0.  0.
          5    1    3    3  501    0  0.11083010958E+03  0.40351860151E+02 -0.31084612060E+03  0.33250411501E+03  0.47000000000E+01 0. -1.
        -13    1    4    4    0    0  0.13714297781E+02  0.30840764169E+02 -0.63829836439E+02  0.72204450818E+02  0.00000000000E+00 0.  1.
         14    1    4    4    0    0 -0.31734591430E+02 -0.29675436227E+02 -0.18122668846E+03  0.18636208954E+03  0.00000000000E+00 0. -1.
         -5    1    5    5    0  502 -0.47502375960E+02 -0.26169611903E+01 -0.12757812835E+03  0.13624093746E+03  0.47000000000E+01 0.  1.
         11    1    6    6    0    0  0.61633519274E+01  0.11798387143E+02  0.20312492460E+02  0.24285514121E+02  0.00000000000E+00 0. -1.
        -12    1    6    6    0    0 -0.51470791901E+02 -0.50698614046E+02 -0.22893874959E+02  0.75787343243E+02  0.00000000000E+00 0.  1.
</event>
<event>
12    1  0.8417180E-002  0.1754777E+03  0.7818608E-02  0.1172835E+00
         21   -1    0    0  503  502  0.00000000000E+00  0.00000000000E+00  0.39839206861E+03  0.39839206861E+03  0.00000000000E+00 0. -1.
         21   -1    0    0  501  503 -0.00000000000E+00 -0.00000000000E+00 -0.90980280091E+02  0.90980280091E+02  0.00000000000E+00 0. -1.
          6    2    1    2  501    0 -0.10775667841E+02 -0.35804747477E+02  0.56197053437E+02  0.18425673641E+03  0.17144777963E+03 0.  0.
         24    2    3    3    0    0 -0.66796001690E+01 -0.90493686034E+02  0.32975227274E+02  0.12451562008E+03  0.78632370934E+02 0.  0.
         -6    2    1    2    0  502  0.10775667841E+02  0.35804747477E+02  0.25121473508E+03  0.30511561229E+03  0.16908163348E+03 0.  0.
        -24    2    5    5    0    0 -0.52948356046E+02 -0.35496255506E+01  0.10486751907E+03  0.14064945914E+03  0.77258951271E+02 0.  0.
          5    1    3    3  501    0 -0.40960676719E+01  0.54688938557E+02  0.23221826163E+02  0.59741116337E+02  0.47000000000E+01 0. -1.
        -13    1    4    4    0    0 -0.11502224610E+02 -0.78208254742E+01 -0.21344670259E+02  0.25476684057E+02  0.00000000000E+00 0.  1.
         14    1    4    4    0    0  0.48226244411E+01 -0.82672860559E+02  0.54319897533E+02  0.99038936018E+02  0.00000000000E+00 0. -1.
         -5    1    5    5    0  502  0.63724023887E+02  0.39354373028E+02  0.14634721601E+03  0.16446615315E+03  0.47000000000E+01 0.  1.
         11    1    6    6    0    0 -0.44809025153E+02  0.10972889723E+02  0.13915013927E+02  0.48185896864E+02  0.00000000000E+00 0. -1.
        -12    1    6    6    0    0 -0.81393308931E+01 -0.14522515273E+02  0.90952505143E+02  0.92463562278E+02  0.00000000000E+00 0.  1.
</event>
<event>
12    1  0.8417180E-002  0.1822091E+03  0.7818608E-02  0.1166055E+00
         21   -1    0    0  501  502  0.00000000000E+00  0.00000000000E+00  0.11544334484E+03  0.11544334484E+03  0.00000000000E+00 0. -1.
         21   -1    0    0  502  503 -0.00000000000E+00 -0.00000000000E+00 -0.38278108433E+03  0.38278108433E+03  0.00000000000E+00 0.  1.
         -6    2    1    2    0  503  0.39619412174E+02  0.44371610218E+02 -0.82760575706E+01  0.18239698361E+03  0.17222551753E+03 0.  0.
        -24    2    3    3    0    0  0.22850503548E+02 -0.34393525743E+02  0.29361595264E+02  0.93381109463E+02  0.78440220568E+02 0.  0.
          6    2    1    2  501    0 -0.39619412174E+02 -0.44371610218E+02 -0.25906168192E+03  0.31582744556E+03  0.17057398019E+03 0.  0.
         24    2    5    5    0    0 -0.61940847377E+02  0.16843265882E+01 -0.81250180817E+02  0.13073715487E+03  0.81554314732E+02 0.  0.
          5    1    5    5  501    0  0.22321435203E+02 -0.46055936806E+02 -0.17781150110E+03  0.18509029069E+03  0.47000000000E+01 0. -1.
        -13    1    6    6    0    0 -0.35612828757E+02  0.29084018860E+02 -0.80529396119E+02  0.92731533819E+02  0.00000000000E+00 0.  1.
         14    1    6    6    0    0 -0.26328018620E+02 -0.27399692272E+02 -0.72078469804E+00  0.38005621053E+02  0.00000000000E+00 0. -1.
         -5    1    3    3    0  503  0.16768908626E+02  0.78765135961E+02 -0.37637652834E+02  0.89015874148E+02  0.47000000000E+01 0.  1.
         11    1    4    4    0    0 -0.26857363314E+02  0.70874268199E+00  0.28955687656E+01  0.27022298179E+02  0.00000000000E+00 0. -1.
        -12    1    4    4    0    0  0.49707866862E+02 -0.35102268425E+02  0.26466026498E+02  0.66358811285E+02  0.00000000000E+00 0.  1.
</event>
<event>
12    1  0.8417180E-002  0.2217218E+03  0.7818608E-02  0.1132795E+00
         21   -1    0    0  501  502  0.00000000000E+00  0.00000000000E+00  0.10335101802E+04  0.10335101802E+04  0.00000000000E+00 0.  1.
         21   -1    0    0  502  503 -0.00000000000E+00 -0.00000000000E+00 -0.17411925352E+03  0.17411925352E+03  0.00000000000E+00 0.  1.
         -6    2    1    2    0  503 -0.10004049928E+03  0.96711794210E+02 -0.85252660347E+02  0.23754695247E+03  0.17262463872E+03 0.  0.
        -24    2    3    3    0    0 -0.10301311269E+03  0.12297864909E+03 -0.10293524382E+03  0.20539811339E+03  0.76532810254E+02 0.  0.
          6    2    1    2  501    0  0.10004049928E+03 -0.96711794210E+02  0.94464358699E+03  0.97008248122E+03  0.17131036537E+03 0.  0.
         24    2    5    5    0    0  0.20054118244E+02 -0.10805472015E+03  0.67571390554E+03  0.68924133985E+03  0.79914655778E+02 0.  0.
          5    1    5    5  501    0  0.79986381040E+02  0.11342925939E+02  0.26892968145E+03  0.28084114137E+03  0.47000000000E+01 0. -1.
        -11    1    6    6    0    0  0.46041577109E+02 -0.69335720977E+02  0.32711759417E+03  0.33753990793E+03  0.00000000000E+00 0.  1.
         12    1    6    6    0    0 -0.25987458865E+02 -0.38718999171E+02  0.34859631137E+03  0.35170143192E+03  0.00000000000E+00 0. -1.
         -5    1    3    3    0  503  0.29726134037E+01 -0.26266854882E+02  0.17682583473E+02  0.32148839079E+02  0.47000000000E+01 0.  1.
         13    1    4    4    0    0  0.25329851933E+01  0.13757851744E+02  0.90773744212E+01  0.16676127398E+02  0.00000000000E+00 0. -1.
        -14    1    4    4    0    0 -0.10554609788E+03  0.10922079735E+03 -0.11201261824E+03  0.18872198599E+03  0.00000000000E+00 0.  1.
</event>
<event>
12    1  0.8417180E-002  0.1890794E+03  0.7818608E-02  0.1159928E+00
         21   -1    0    0  503  502  0.00000000000E+00  0.00000000000E+00  0.30631171650E+02  0.30631171650E+02  0.00000000000E+00 0.  1.
         21   -1    0    0  501  503 -0.00000000000E+00 -0.00000000000E+00 -0.17869661160E+04  0.17869661160E+04  0.00000000000E+00 0. -1.
          6    2    1    2  501    0 -0.75544668715E+02 -0.34996955482E+01 -0.14165250877E+04  0.14287248592E+04  0.17027082670E+03 0.  0.
         24    2    3    3    0    0 -0.10893889414E+03  0.28646628923E+02 -0.11449041173E+04  0.11531371199E+04  0.78939645381E+02 0.  0.
         -6    2    1    2    0  502  0.75544668715E+02  0.34996955482E+01 -0.33980985670E+03  0.38887242848E+03  0.17329680344E+03 0.  0.
        -24    2    5    5    0    0  0.82874317573E+02  0.35353873274E+02 -0.33228686941E+03  0.35500359725E+03  0.86573330825E+02 0.  0.
          5    1    3    3  501    0  0.33394225425E+02 -0.32146324471E+02 -0.27162097042E+03  0.27558773928E+03  0.47000000000E+01 0. -1.
        -13    1    4    4    0    0  0.57003032493E+01  0.71133522183E+01 -0.17657617659E+02  0.19871705974E+02  0.00000000000E+00 0.  1.
         14    1    4    4    0    0 -0.11463919739E+03  0.21533276705E+02 -0.11272464996E+04  0.11332654140E+04  0.00000000000E+00 0. -1.
         -5    1    5    5    0  502 -0.73296488589E+01 -0.31854177726E+02 -0.75229872859E+01  0.33868831227E+02  0.47000000000E+01 0.  1.
         13    1    6    6    0    0 -0.18203694741E+01 -0.21717084718E+02 -0.77624857021E+02  0.80626074822E+02  0.00000000000E+00 0. -1.
        -14    1    6    6    0    0  0.84694687048E+02  0.57070957992E+02 -0.25466201239E+03  0.27437752243E+03  0.00000000000E+00 0.  1.
</event>
<event>
12    1  0.8417180E-002  0.1952475E+03  0.7818608E-02  0.1153920E+00
         21   -1    0    0  501  502  0.00000000000E+00  0.00000000000E+00  0.24769627877E+03  0.24769627877E+03  0.00000000000E+00 0. -1.
         21   -1    0    0  502  503 -0.00000000000E+00 -0.00000000000E+00 -0.15479576823E+03  0.15479576823E+03  0.00000000000E+00 0. -1.
         -6    2    1    2    0  503  0.85630966142E+02  0.33684647630E+02  0.64717161472E+02  0.20522095367E+03  0.17163918839E+03 0.  0.
        -24    2    3    3    0    0  0.53215788865E+02 -0.31357432448E+02 -0.84291348976E+01  0.10200425652E+03  0.80737904845E+02 0.  0.
          6    2    1    2  501    0 -0.85630966142E+02 -0.33684647630E+02  0.28183349072E+02  0.19727109333E+03  0.17220413831E+03 0.  0.
         24    2    5    5    0    0 -0.10082478673E+03  0.19666043164E+02  0.46847110266E+02  0.13855504464E+03  0.80314741995E+02 0.  0.
          5    1    5    5  501    0  0.15193820584E+02 -0.53350690794E+02 -0.18663761195E+02  0.58716048693E+02  0.47000000000E+01 0. -1.
        -13    1    6    6    0    0 -0.29240849198E+02  0.44424639659E+02  0.92137069206E+01  0.53976552927E+02  0.00000000000E+00 0.  1.
         14    1    6    6    0    0 -0.71583937528E+02 -0.24758596495E+02  0.37633403346E+02  0.84578491709E+02  0.00000000000E+00 0. -1.
         -5    1    3    3    0  503  0.32415177277E+02  0.65042080078E+02  0.73146296370E+02  0.10321669715E+03  0.47000000000E+01 0.  1.
         13    1    4    4    0    0 -0.99679171870E+01  0.17380252841E+02  0.59965899594E+01  0.20913910514E+02  0.00000000000E+00 0. -1.
        -14    1    4    4    0    0  0.63183706052E+02 -0.48737685288E+02 -0.14425724857E+02  0.81090346006E+02  0.00000000000E+00 0.  1.
</event>
<event>
12    1  0.8417180E-002  0.2069933E+03  0.7818608E-02  0.1144599E+00
         21   -1    0    0  501  502  0.00000000000E+00  0.00000000000E+00  0.19008830361E+03  0.19008830361E+03  0.00000000000E+00 0. -1.
         21   -1    0    0  502  503 -0.00000000000E+00 -0.00000000000E+00 -0.22220901229E+03  0.22220901229E+03  0.00000000000E+00 0. -1.
         -6    2    1    2    0  503  0.19748577882E+02 -0.11387930990E+03 -0.10559712078E+02  0.20726245017E+03  0.17171986542E+03 0.  0.
        -24    2    3    3    0    0 -0.87633299870E+01 -0.99117248120E+02  0.52431491554E+02  0.13640464119E+03  0.77176032582E+02 0.  0.
          6    2    1    2  501    0 -0.19748577882E+02  0.11387930990E+03 -0.21560996596E+02  0.20503486573E+03  0.16797593886E+03 0.  0.
         24    2    5    5    0    0  0.13633018466E+00  0.14548420593E+03 -0.21453196908E+02  0.16740003289E+03  0.79980363795E+02 0.  0.
          5    1    5    5  501    0 -0.19884908066E+02 -0.31604896029E+02 -0.10779968807E+00  0.37634832836E+02  0.47000000000E+01 0. -1.
        -13    1    6    6    0    0  0.12185974908E+02 -0.42952085607E+01  0.66493939252E+01  0.14531388117E+02  0.00000000000E+00 0.  1.
         14    1    6    6    0    0 -0.12049644723E+02  0.14977941449E+03 -0.28102590833E+02  0.15286864477E+03  0.00000000000E+00 0. -1.
         -5    1    3    3    0  503  0.28511907869E+02 -0.14762061781E+02 -0.62991203632E+02  0.70857808979E+02  0.47000000000E+01 0.  1.
         13    1    4    4    0    0  0.45733546517E+01 -0.74143500352E+02 -0.28025933682E+01  0.74337263515E+02  0.00000000000E+00 0. -1.
        -14    1    4    4    0    0 -0.13336684639E+02 -0.24973747767E+02  0.55234084922E+02  0.62067377678E+02  0.00000000000E+00 0.  1.
</event>
<event>
12    1  0.8417180E-002  0.2265357E+03  0.7818608E-02  0.1132267E+00
         21   -1    0    0  503  502  0.00000000000E+00  0.00000000000E+00  0.59484044666E+02  0.59484044666E+02  0.00000000000E+00 0. -1.
         21   -1    0    0  501  503 -0.00000000000E+00 -0.00000000000E+00 -0.10407279857E+04  0.10407279857E+04  0.00000000000E+00 0. -1.
          6    2    1    2  501    0  0.95646714549E+02  0.74521644388E+02 -0.76994009131E+03  0.80257470309E+03  0.19135475001E+03 0.  0.
         24    2    3    3    0    0  0.77217557925E+02  0.17900406639E+02 -0.19780972582E+03  0.22733488920E+03  0.79180101075E+02 0.  0.
         -6    2    1    2    0  502 -0.95646714549E+02 -0.74521644388E+02 -0.21130384970E+03  0.29763732725E+03  0.17098798843E+03 0.  0.
        -24    2    5    5    0    0 -0.13505465762E+03 -0.55453035058E+02 -0.16508855237E+03  0.23380519156E+03  0.78075846676E+02 0.  0.
          5    1    3    3  501    0  0.18429156624E+02  0.56621237749E+02 -0.57213036549E+03  0.57523981390E+03  0.47000000000E+01 0. -1.
        -13    1    4    4    0    0  0.22409289849E+02  0.37250509692E+02 -0.39668371155E+02  0.58850288138E+02  0.00000000000E+00 0.  1.
         14    1    4    4    0    0  0.54808268076E+02 -0.19350103053E+02 -0.15814135467E+03  0.16848460106E+03  0.00000000000E+00 0. -1.
         -5    1    5    5    0  502  0.39407943076E+02 -0.19068609330E+02 -0.46215297334E+02  0.63832135691E+02  0.47000000000E+01 0.  1.
         11    1    6    6    0    0 -0.56823383268E+02 -0.11923174615E+02 -0.16550676360E+02  0.60373701782E+02  0.00000000000E+00 0. -1.
        -12    1    6    6    0    0 -0.78231274357E+02 -0.43529860443E+02 -0.14853787601E+03  0.17343148978E+03  0.00000000000E+00 0.  1.
</event>
<event>
12    1  0.8417180E-002  0.1905169E+03  0.7818608E-02  0.1158088E+00
         21   -1    0    0  501  502  0.00000000000E+00  0.00000000000E+00  0.15934092678E+03  0.15934092678E+03  0.00000000000E+00 0. -1.
         21   -1    0    0  502  503 -0.00000000000E+00 -0.00000000000E+00 -0.25092486740E+03  0.25092486740E+03  0.00000000000E+00 0. -1.
         -6    2    1    2    0  503 -0.74070449957E+02  0.30363013798E+02  0.17192421528E+02  0.19088264178E+03  0.17243044804E+03 0.  0.
        -24    2    3    3    0    0 -0.10511201240E+03  0.58427291940E+02 -0.42113917803E+01  0.14364499228E+03  0.78446570299E+02 0.  0.
          6    2    1    2  501    0  0.74070449957E+02 -0.30363013798E+02 -0.10877636215E+03  0.21938315240E+03  0.17288240637E+03 0.  0.
         24    2    5    5    0    0  0.11197112332E+03  0.28684613337E+01 -0.70606966183E+02  0.15598137980E+03  0.82456574278E+02 0.  0.
          5    1    5    5  501    0 -0.37900673364E+02 -0.33231475132E+02 -0.38169395964E+02  0.63401772602E+02  0.47000000000E+01 0. -1.
        -13    1    6    6    0    0 -0.13253642087E+02  0.40104852390E+01 -0.75544283988E+01  0.15773788665E+02  0.00000000000E+00 0.  1.
         14    1    6    6    0    0  0.12522476541E+03 -0.11420239053E+01 -0.63052537784E+02  0.14020759113E+03  0.00000000000E+00 0. -1.
         -5    1    3    3    0  503  0.31041562445E+02 -0.28064278142E+02  0.21403813308E+02  0.47237649505E+02  0.47000000000E+01 0.  1.
         13    1    4    4    0    0 -0.10212149475E+03  0.21811477314E+02  0.85003345229E+01  0.10477020531E+03  0.00000000000E+00 0. -1.
        -14    1    4    4    0    0 -0.29905176487E+01  0.36615814625E+02 -0.12711726303E+02  0.38874786972E+02  0.00000000000E+00 0.  1.
</event>
<event>
12    1  0.8417180E-002  0.2114016E+03  0.7818608E-02  0.1140761E+00
         21   -1    0    0  503  502  0.00000000000E+00  0.00000000000E+00  0.25114825428E+02  0.25114825428E+02  0.00000000000E+00 0.  1.
         21   -1    0    0  501  503 -0.00000000000E+00 -0.00000000000E+00 -0.17865045990E+04  0.17865045990E+04  0.00000000000E+00 0.  1.
          6    2    1    2  501    0 -0.12198627793E+03 -0.73961581526E+01 -0.78211017223E+03  0.80978151994E+03  0.17062952081E+03 0.  0.
         24    2    3    3    0    0 -0.10487822220E+03  0.51243688384E+02 -0.44190338213E+03  0.46410238085E+03  0.80542309874E+02 0.  0.
         -6    2    1    2    0  502  0.12198627793E+03  0.73961581526E+01 -0.97927960132E+03  0.10018379045E+04  0.17249722927E+03 0.  0.
        -24    2    5    5    0    0  0.91574879505E+02 -0.39333182439E+02 -0.40268831292E+03  0.42253825119E+03  0.80297188996E+02 0.  0.
          5    1    3    3  501    0 -0.17108055731E+02 -0.58639846537E+02 -0.34020679010E+03  0.34567913909E+03  0.47000000000E+01 0. -1.
        -13    1    4    4    0    0 -0.33421078853E+01  0.36847711897E+02 -0.83802966274E+02  0.91607099689E+02  0.00000000000E+00 0.  1.
         14    1    4    4    0    0 -0.10153611432E+03  0.14395976487E+02 -0.35810041586E+03  0.37249528116E+03  0.00000000000E+00 0. -1.
         -5    1    5    5    0  502  0.30411398427E+02  0.46729340592E+02 -0.57659128840E+03  0.57929965328E+03  0.47000000000E+01 0.  1.
         11    1    6    6    0    0 -0.10120022337E+02 -0.31165383760E+01 -0.11118879203E+03  0.11169187588E+03  0.00000000000E+00 0. -1.
        -12    1    6    6    0    0  0.10169490184E+03 -0.36216644063E+02 -0.29149952088E+03  0.31084637531E+03  0.00000000000E+00 0.  1.
</event>
<event>
12    1  0.8417180E-002  0.1777987E+03  0.7818608E-02  0.1170110E+00
         21   -1    0    0  501  502  0.00000000000E+00  0.00000000000E+00  0.18113026335E+03  0.18113026335E+03  0.00000000000E+00 0.  1.
         21   -1    0    0  502  503 -0.00000000000E+00 -0.00000000000E+00 -0.20364388443E+03  0.20364388443E+03  0.00000000000E+00 0.  1.
         -6    2    1    2    0  503  0.40991940933E+02  0.16563809105E+02  0.62291634480E+02  0.18778608091E+03  0.17154785182E+03 0.  0.
        -24    2    3    3    0    0  0.65488933904E+02 -0.32152025299E+02  0.46627466439E+01  0.10830958188E+03  0.79916651113E+02 0.  0.
          6    2    1    2  501    0 -0.40991940933E+02 -0.16563809105E+02 -0.84805255562E+02  0.19698806686E+03  0.17221401837E+03 0.  0.
         24    2    5    5    0    0  0.16067091023E+01 -0.39855022948E+02  0.12438785819E+02  0.88196434780E+02  0.77671637982E+02 0.  0.
          5    1    5    5  501    0 -0.42598650036E+02  0.23291213843E+02 -0.97244041381E+02  0.10879163208E+03  0.47000000000E+01 0. -1.
        -11    1    6    6    0    0 -0.36360384112E+02 -0.19339694588E+02 -0.53280373574E+01  0.41526970774E+02  0.00000000000E+00 0.  1.
         12    1    6    6    0    0  0.37967093214E+02 -0.20515328359E+02  0.17766823177E+02  0.46669464006E+02  0.00000000000E+00 0. -1.
         -5    1    3    3    0  503 -0.24496992970E+02  0.48715834404E+02  0.57628887836E+02  0.79476499039E+02  0.47000000000E+01 0.  1.
         11    1    4    4    0    0  0.81933270233E+01 -0.40871293072E+02 -0.18872718033E+02  0.45757760992E+02  0.00000000000E+00 0. -1.
        -12    1    4    4    0    0  0.57295606880E+02  0.87192677721E+01  0.23535464677E+02  0.62551820884E+02  0.00000000000E+00 0.  1.
</event>
<event>
12    1  0.8417180E-002  0.2248109E+03  0.7818608E-02  0.1130495E+00
         21   -1    0    0  501  502  0.00000000000E+00  0.00000000000E+00  0.21873999693E+03  0.21873999693E+03  0.00000000000E+00 0.  1.
         21   -1    0    0  502  503 -0.00000000000E+00 -0.00000000000E+00 -0.23634664042E+03  0.23634664042E+03  0.00000000000E+00 0. -1.
         -6    2    1    2    0  503  0.18182512228E+02  0.14136871117E+03 -0.45456425886E+02  0.22855731018E+03  0.17279016503E+03 0.  0.
        -24    2    3    3    0    0  0.40669472844E+02  0.96796212567E+02  0.32204855737E+02  0.13611416174E+03  0.80413926061E+02 0.  0.
          6    2    1    2  501    0 -0.18182512228E+02 -0.14136871117E+03  0.27849782393E+02  0.22652932717E+03  0.17385111285E+03 0.  0.
         24    2    5    5    0    0 -0.31334853905E+02 -0.36568006912E+02 -0.39151631333E+02  0.10135963776E+03  0.80136344638E+02 0.  0.
          5    1    5    5  501    0  0.13152341677E+02 -0.10480070426E+03  0.67001413725E+02  0.12516968941E+03  0.47000000000E+01 0. -1.
        -11    1    6    6    0    0 -0.50629154270E+02 -0.37612762914E+01 -0.64429362988E+01  0.51175872143E+02  0.00000000000E+00 0.  1.
         12    1    6    6    0    0  0.19294300365E+02 -0.32806730620E+02 -0.32708695034E+02  0.50183765616E+02  0.00000000000E+00 0. -1.
         -5    1    3    3    0  503 -0.22486960616E+02  0.44572498607E+02 -0.77661281623E+02  0.92443148438E+02  0.47000000000E+01 0.  1.
         11    1    4    4    0    0  0.12999668988E+02 -0.87649236078E+01  0.21293179534E+02  0.26442669576E+02  0.00000000000E+00 0. -1.
        -12    1    4    4    0    0  0.27669803856E+02  0.10556113617E+03  0.10911676203E+02  0.10967149216E+03  0.00000000000E+00 0.  1.
</event>
<event>
12    1  0.8417180E-002  0.1809524E+03  0.7818608E-02  0.1166926E+00
         21   -1    0    0  503  502  0.00000000000E+00  0.00000000000E+00  0.10199260153E+03  0.10199260153E+03  0.00000000000E+00 0.  1.
         21   -1    0    0  501  503 -0.00000000000E+00 -0.00000000000E+00 -0.32435370576E+03  0.32435370576E+03  0.00000000000E+00 0.  1.
          6    2    1    2  501    0 -0.48007373822E+02  0.19831576741E+02 -0.88609461399E+02  0.20132789531E+03  0.17315682315E+03 0.  0.
         24    2    3    3    0    0 -0.58803547366E+02  0.62837942779E+00  0.12449062834E+02  0.97789325345E+02  0.77133137772E+02 0.  0.
         -6    2    1    2    0  502  0.48007373822E+02 -0.19831576741E+02 -0.13375164284E+03  0.22501841198E+03  0.17333719852E+03 0.  0.
        -24    2    5    5    0    0 -0.14880195444E+02 -0.44404472258E+02 -0.12720896509E+03  0.15702157239E+03  0.79249454401E+02 0.  0.
          5    1    3    3  501    0  0.10796173544E+02  0.19203197314E+02 -0.10105852423E+03  0.10353856997E+03  0.47000000000E+01 0. -1.
        -11    1    4    4    0    0 -0.34495925035E+02  0.31513047519E+02 -0.15872171463E+02  0.49345383117E+02  0.00000000000E+00 0.  1.
         12    1    4    4    0    0 -0.24307622330E+02 -0.30884668092E+02  0.28321234297E+02  0.48443942228E+02  0.00000000000E+00 0. -1.
         -5    1    5    5    0  502  0.62887569265E+02  0.24572895516E+02 -0.65426777475E+01  0.67996839590E+02  0.47000000000E+01 0.  1.
         11    1    6    6    0    0  0.19546317237E+02  0.39324492768E+01 -0.76210053616E+02  0.78774963961E+02  0.00000000000E+00 0. -1.
        -12    1    6    6    0    0 -0.34426512681E+02 -0.48336921535E+02 -0.50998911474E+02  0.78246608427E+02  0.00000000000E+00 0.  1.
</event>
<event>
12    1  0.8417180E-002  0.2497344E+03  0.7818608E-02  0.1113542E+00
         21   -1    0    0  503  502  0.00000000000E+00  0.00000000000E+00  0.94222171402E+03  0.94222171402E+03  0.00000000000E+00 0.  1.
         21   -1    0    0  501  503 -0.00000000000E+00 -0.00000000000E+00 -0.66429219531E+02  0.66429219531E+02  0.00000000000E+00 0. -1.
          6    2    1    2  501    0 -0.17805516266E+03  0.27953458223E+02  0.40153076595E+03  0.47285753596E+03  0.17286485049E+03 0.  0.
         24    2    3    3    0    0 -0.12627691911E+03  0.73587432374E+02  0.19584863739E+03  0.25585367860E+03  0.75785523557E+02 0.  0.
         -6    2    1    2    0  502  0.17805516266E+03 -0.27953458223E+02  0.47426172854E+03  0.53579339759E+03  0.17223629398E+03 0.  0.
        -24    2    5    5    0    0  0.20102527081E+03 -0.52575214509E+01  0.40071107661E+03  0.45532899668E+03  0.79475324872E+02 0.  0.
          5    1    3    3  501    0 -0.51778243550E+02 -0.45633974151E+02  0.20568212856E+03  0.21700385736E+03  0.47000000000E+01 0. -1.
        -11    1    4    4    0    0 -0.51547310898E+02  0.90676173557E+01  0.12139840147E+03  0.13220029812E+03  0.00000000000E+00 0.  1.
         12    1    4    4    0    0 -0.74729608216E+02  0.64519815018E+02  0.74450235927E+02  0.12365338048E+03  0.00000000000E+00 0. -1.
         -5    1    5    5    0  502 -0.22970108148E+02 -0.22695936772E+02  0.73550651930E+02  0.80464400909E+02  0.47000000000E+01 0.  1.
         13    1    6    6    0    0  0.67416514092E+02  0.35944594526E+02  0.13933810067E+03  0.15890911411E+03  0.00000000000E+00 0. -1.
        -14    1    6    6    0    0  0.13360875672E+03 -0.41202115977E+02  0.26137297594E+03  0.29641988257E+03  0.00000000000E+00 0.  1.
</event>
<event>
12    1  0.8417180E-002  0.2864265E+03  0.7818608E-02  0.1092251E+00
         21   -1    0    0  501  502  0.00000000000E+00  0.00000000000E+00  0.26578557218E+03  0.26578557218E+03  0.00000000000E+00 0.  1.
         21   -1    0    0  502  503 -0.00000000000E+00 -0.00000000000E+00 -0.80862882463E+03  0.80862882463E+03  0.00000000000E+00 0.  1.
         -6    2    1    2    0  503 -0.14555876452E+03 -0.17571503234E+03 -0.69387553817E+03  0.75060751361E+03  0.17287351013E+03 0.  0.
        -24    2    3    3    0    0 -0.61578549109E+02 -0.87196974098E+02 -0.52473993492E+03  0.54200007007E+03  0.83766620165E+02 0.  0.
          6    2    1    2  501    0  0.14555876452E+03  0.17571503234E+03  0.15103228571E+03  0.32380688320E+03  0.17313872981E+03 0.  0.
         24    2    5    5    0    0  0.15704971750E+02  0.85463089380E+02  0.22768845482E+02  0.12013798325E+03  0.79775490668E+02 0.  0.
          5    1    5    5  501    0  0.12985379277E+03  0.90251942963E+02  0.12826344023E+03  0.20366889994E+03  0.47000000000E+01 0. -1.
        -11    1    6    6    0    0  0.35688009661E+02  0.50164715826E+02  0.42720419858E+02  0.74934418129E+02  0.00000000000E+00 0.  1.
         12    1    6    6    0    0 -0.19983037911E+02  0.35298373554E+02 -0.19951574377E+02  0.45203565123E+02  0.00000000000E+00 0. -1.
         -5    1    3    3    0  503 -0.83980215409E+02 -0.88518058244E+02 -0.16913560325E+03  0.20860744354E+03  0.47000000000E+01 0.  1.
         13    1    4    4    0    0 -0.68566863226E+02 -0.26289591424E+02 -0.31753962201E+03  0.32592018792E+03  0.00000000000E+00 0. -1.
        -14    1    4    4    0    0  0.69883141172E+01 -0.60907382674E+02 -0.20720031291E+03  0.21607988215E+03  0.00000000000E+00 0.  1.
</event>
<event>
12    1  0.8417180E-002  0.2004777E+03  0.7818608E-02  0.1149621E+00
         21   -1    0    0  501  502  0.00000000000E+00  0.00000000000E+00  0.39555137044E+02  0.39555137044E+02  0.00000000000E+00 0. -1.
         21   -1    0    0  502  503 -0.00000000000E+00 -0.00000000000E+00 -0.29784754904E+04  0.29784754904E+04  0.00000000000E+00 0. -1.
         -6    2    1    2    0  503 -0.94971607197E+02 -0.40914322422E+02 -0.26947736766E+04  0.27021209539E+04  0.17017312789E+03 0.  0.
        -24    2    3    3    0    0 -0.10016547755E+03 -0.50967069148E+01 -0.11965082060E+04  0.12034110459E+04  0.80666964215E+02 0.  0.
          6    2    1    2  501    0  0.94971607197E+02  0.40914322422E+02 -0.24414667679E+03  0.31590967358E+03  0.17174904401E+03 0.  0.
         24    2    5    5    0    0  0.65916672527E+02 -0.34627122205E+02 -0.18789156940E+03  0.21723127578E+03  0.79637554052E+02 0.  0.
          5    1    5    5  501    0  0.29054934670E+02  0.75541444627E+02 -0.56255107390E+02  0.98678397800E+02  0.47000000000E+01 0. -1.
        -13    1    6    6    0    0 -0.74605084726E+01 -0.11136569145E+02 -0.97685722787E+02  0.98601129787E+02  0.00000000000E+00 0.  1.
         14    1    6    6    0    0  0.73377181000E+02 -0.23490553060E+02 -0.90205846612E+02  0.11863014599E+03  0.00000000000E+00 0. -1.
         -5    1    3    3    0  503  0.51938703505E+01 -0.35817615507E+02 -0.14982654706E+04  0.14987099079E+04  0.47000000000E+01 0.  1.
         13    1    4    4    0    0 -0.29208921078E+02 -0.20897468760E+02 -0.76341546967E+03  0.76425980177E+03  0.00000000000E+00 0. -1.
        -14    1    4    4    0    0 -0.70956556469E+02  0.15800761845E+02 -0.43309273636E+03  0.43915124418E+03  0.00000000000E+00 0.  1.
</event>
<event>
12    1  0.8417180E-002  0.3364445E+03  0.7818608E-02  0.1068637E+00
         21   -1    0    0  503  502  0.00000000000E+00  0.00000000000E+00  0.48053131325E+03  0.48053131325E+03  0.00000000000E+00 0.  1.
         21   -1    0    0  501  503 -0.00000000000E+00 -0.00000000000E+00 -0.37258510238E+03  0.37258510238E+03  0.00000000000E+00 0. -1.
          6    2    1    2  501    0  0.21595696294E+03  0.19228457223E+03 -0.20677347931E+03  0.39241760656E+03  0.16620932475E+03 0.  0.
         24    2    3    3    0    0  0.17211666153E+03  0.68108915212E+02 -0.12550605080E+03  0.23760142278E+03  0.80247727761E+02 0.  0.
         -6    2    1    2    0  502 -0.21595696294E+03 -0.19228457223E+03  0.31471969018E+03  0.46069880907E+03  0.17200041494E+03 0.  0.
        -24    2    5    5    0    0 -0.11207707690E+03 -0.27289913930E+02  0.14561333231E+03  0.20256450631E+03  0.80765872138E+02 0.  0.
          5    1    3    3  501    0  0.43840301405E+02  0.12417565702E+03 -0.81267428511E+02  0.15481618378E+03  0.47000000000E+01 0. -1.
        -11    1    4    4    0    0  0.14290257258E+03  0.70224850059E+02 -0.68145136577E+02  0.17319478761E+03  0.00000000000E+00 0.  1.
         12    1    4    4    0    0  0.29214088952E+02 -0.21159348468E+01 -0.57360914219E+02  0.64406635168E+02  0.00000000000E+00 0. -1.
         -5    1    5    5    0  502 -0.10387988603E+03 -0.16499465830E+03  0.16910635787E+03  0.25813430276E+03  0.47000000000E+01 0.  1.
         11    1    6    6    0    0  0.83246429910E+01  0.11597772031E+02  0.13917892083E+02  0.19937796193E+02  0.00000000000E+00 0. -1.
        -12    1    6    6    0    0 -0.12040171990E+03 -0.38887685961E+02  0.13169544023E+03  0.18262671012E+03  0.00000000000E+00 0.  1.
</event>
<event>
12    1  0.8417180E-002  0.2118986E+03  0.7818608E-02  0.1140432E+00
         21   -1    0    0  501  502  0.00000000000E+00  0.00000000000E+00  0.89991200465E+02  0.89991200465E+02  0.00000000000E+00 0. -1.
         21   -1    0    0  502  503 -0.00000000000E+00 -0.00000000000E+00 -0.79053232660E+03  0.79053232660E+03  0.00000000000E+00 0.  1.
         -6    2    1    2    0  503  0.49729549981E+02  0.11400067229E+03 -0.62057518192E+03  0.65575494975E+03  0.17155703509E+03 0.  0.
        -24    2    3    3    0    0  0.55084803501E+02  0.11197912484E+03 -0.62851309125E+03  0.64489834813E+03  0.72742790545E+02 0.  0.
          6    2    1    2  501    0 -0.49729549981E+02 -0.11400067229E+03 -0.79965944222E+02  0.22476857731E+03  0.16928431613E+03 0.  0.
         24    2    5    5    0    0 -0.74975860342E+02 -0.92851014962E+02 -0.55371175860E+01  0.14324297136E+03  0.79026568691E+02 0.  0.
          5    1    5    5  501    0  0.25246310361E+02 -0.21149657333E+02 -0.74428826636E+02  0.81525605956E+02  0.47000000000E+01 0. -1.
        -13    1    6    6    0    0  0.16522564967E+02 -0.95360538540E+01 -0.39713232206E+01  0.19485966343E+02  0.00000000000E+00 0.  1.
         14    1    6    6    0    0 -0.91498425309E+02 -0.83314961108E+02 -0.15657943653E+01  0.12375700502E+03  0.00000000000E+00 0. -1.
         -5    1    3    3    0  503 -0.53552535201E+01  0.20215474584E+01  0.79379093272E+01  0.10856601627E+02  0.47000000000E+01 0.  1.
         11    1    4    4    0    0  0.60235297936E+02  0.51124450952E+02 -0.27399497081E+03  0.28515827997E+03  0.00000000000E+00 0. -1.
        -12    1    4    4    0    0 -0.51504944346E+01  0.60854673884E+02 -0.35451812043E+03  0.35974006816E+03  0.00000000000E+00 0.  1.
</event>
<event>
12    1  0.8417180E-002  0.2271927E+03  0.7818608E-02  0.1128696E+00
         21   -1    0    0  503  502  0.00000000000E+00  0.00000000000E+00  0.10581096146E+03  0.10581096146E+03  0.00000000000E+00 0. -1.
         21   -1    0    0  501  503 -0.00000000000E+00 -0.00000000000E+00 -0.50610999738E+03  0.50610999738E+03  0.00000000000E+00 0.  1.
          6    2    1    2  501    0 -0.12346544993E+03  0.82277827573E+02 -0.25937671119E+03  0.34457170524E+03  0.17158095323E+03 0.  0.
         24    2    3    3    0    0 -0.13766039178E+02 -0.44891774017E+01 -0.13757357923E+03  0.15904389917E+03  0.78478121870E+02 0.  0.
         -6    2    1    2    0  502  0.12346544993E+03 -0.82277827573E+02 -0.14092232473E+03  0.26734925360E+03  0.17205569899E+03 0.  0.
        -24    2    5    5    0    0  0.15642454423E+03 -0.62946319829E+02 -0.11935198201E+03  0.22322013879E+03  0.84566290767E+02 0.  0.
          5    1    3    3  501    0 -0.10969941075E+03  0.86767004974E+02 -0.12180313196E+03  0.18552780607E+03  0.47000000000E+01 0. -1.
        -11    1    4    4    0    0 -0.35805504800E+02  0.22725146313E+02 -0.94139617628E+02  0.10325083078E+03  0.00000000000E+00 0.  1.
         12    1    4    4    0    0  0.22039465622E+02 -0.27214323715E+02 -0.43433961604E+02  0.55793068394E+02  0.00000000000E+00 0. -1.
         -5    1    5    5    0  502 -0.32959094301E+02 -0.19331507744E+02 -0.21570342721E+02  0.44129114810E+02  0.47000000000E+01 0.  1.
         13    1    6    6    0    0  0.49580400146E+02  0.17267572684E+02 -0.17920673921E+02  0.55475541447E+02  0.00000000000E+00 0. -1.
        -14    1    6    6    0    0  0.10684414408E+03 -0.80213892513E+02 -0.10143130809E+03  0.16774459734E+03  0.00000000000E+00 0.  1.
</event>
<event>
12    1  0.8417180E-002  0.2775839E+03  0.7818608E-02  0.1097128E+00
         21   -1    0    0  501  502  0.00000000000E+00  0.00000000000E+00  0.75043669831E+03  0.75043669831E+03  0.00000000000E+00 0.  1.
         21   -1    0    0  502  503 -0.00000000000E+00 -0.00000000000E+00 -0.23842814082E+03  0.23842814082E+03  0.00000000000E+00 0. -1.
         -6    2    1    2    0  503 -0.19575525893E+03 -0.94934378506E+02 -0.11764384505E+03  0.30074060670E+03  0.17109114710E+03 0.  0.
        -24    2    3    3    0    0 -0.97562253473E+02 -0.12065892723E+03 -0.68461883469E+02  0.18784873775E+03  0.80766012424E+02 0.  0.
          6    2    1    2  501    0  0.19575525893E+03  0.94934378506E+02  0.62965240254E+03  0.68812423243E+03  0.17239534105E+03 0.  0.
         24    2    5    5    0    0  0.20580621672E+03  0.11876233961E+03  0.58065024356E+03  0.63251762251E+03  0.80393689353E+02 0.  0.
          5    1    5    5  501    0 -0.10050957790E+02 -0.23827961100E+02  0.49002158978E+02  0.55606609924E+02  0.47000000000E+01 0.  1.
        -11    1    6    6    0    0  0.11893391399E+03  0.22554277918E+02  0.29194510636E+03  0.31604733266E+03  0.00000000000E+00 0.  1.
         12    1    6    6    0    0  0.86872302730E+02  0.96208061688E+02  0.28870513720E+03  0.31647028985E+03  0.00000000000E+00 0. -1.
         -5    1    3    3    0  503 -0.98193005461E+02  0.25724548728E+02 -0.49181961581E+02  0.11289186894E+03  0.47000000000E+01 0.  1.
         11    1    4    4    0    0 -0.85001874893E+02 -0.43204777173E+02 -0.26994285911E+02  0.99099258210E+02  0.00000000000E+00 0. -1.
        -12    1    4    4    0    0 -0.12560378580E+02 -0.77454150061E+02 -0.41467597558E+02  0.88749479543E+02  0.00000000000E+00 0.  1.
</event>
<event>
12    1  0.8417180E-002  0.1815891E+03  0.7818608E-02  0.1166406E+00
         21   -1    0    0  501  502  0.00000000000E+00  0.00000000000E+00  0.11243362320E+03  0.11243362320E+03  0.00000000000E+00 0.  1.
         21   -1    0    0  502  503 -0.00000000000E+00 -0.00000000000E+00 -0.29810094663E+03  0.29810094663E+03  0.00000000000E+00 0.  1.
         -6    2    1    2    0  503 -0.30218216958E+02  0.49397231360E+02 -0.12138186221E+03  0.21842195827E+03  0.17210859444E+03 0.  0.
        -24    2    3    3    0    0 -0.93055265802E+00  0.92930072236E+02 -0.11037076652E+03  0.16460551336E+03  0.79223763305E+02 0.  0.
          6    2    1    2  501    0  0.30218216958E+02 -0.49397231360E+02 -0.64285461216E+02  0.19211261156E+03  0.17152669732E+03 0.  0.
         24    2    5    5    0    0  0.84491605596E+02 -0.27930822979E+02 -0.27296468656E+02  0.12285452196E+03  0.80182130663E+02 0.  0.
          5    1    5    5  501    0 -0.54273388638E+02 -0.21466408381E+02 -0.36988992560E+02  0.69258089590E+02  0.47000000000E+01 0. -1.
        -13    1    6    6    0    0  0.48103169814E+02 -0.49840817728E+01  0.25563463665E+02  0.54701432265E+02  0.00000000000E+00 0.  1.
         14    1    6    6    0    0  0.36388435782E+02 -0.22946741207E+02 -0.52859932321E+02  0.68153089700E+02  0.00000000000E+00 0. -1.
         -5    1    3    3    0  503 -0.29287664299E+02 -0.43532840876E+02 -0.11011095692E+02  0.53816444914E+02  0.47000000000E+01 0.  1.
         11    1    4    4    0    0  0.40641161623E+01 -0.13206241499E+02 -0.23925003375E+02  0.27628384701E+02  0.00000000000E+00 0. -1.
        -12    1    4    4    0    0 -0.49946688203E+01  0.10613631373E+03 -0.86445763146E+02  0.13697712866E+03  0.00000000000E+00 0.  1.
</event>
<event>
12    1  0.8417180E-002  0.2628400E+03  0.7818608E-02  0.1105729E+00
         21   -1    0    0  501  502  0.00000000000E+00  0.00000000000E+00  0.19021091627E+03  0.19021091627E+03  0.00000000000E+00 0. -1.
         21   -1    0    0  502  503 -0.00000000000E+00 -0.00000000000E+00 -0.42085223184E+03  0.42085223184E+03  0.00000000000E+00 0. -1.
         -6    2    1    2    0  503  0.17124879905E+03  0.97186253185E+02 -0.23128104768E+03  0.35010827746E+03  0.17410790892E+03 0.  0.
        -24    2    3    3    0    0  0.16705812098E+03  0.94645811497E+02 -0.25265434816E+03  0.32768231928E+03  0.81702125489E+02 0.  0.
          6    2    1    2  501    0 -0.17124879905E+03 -0.97186253185E+02  0.63973210330E+00  0.26095487065E+03  0.17124752926E+03 0.  0.
         24    2    5    5    0    0 -0.49149825829E+02 -0.71986512908E+02  0.47741567665E+02  0.12759873437E+03  0.80027597179E+02 0.  0.
          5    1    5    5  501    0 -0.12209897322E+03 -0.25199740277E+02 -0.47101835561E+02  0.13335613628E+03  0.47000000000E+01 0. -1.
        -13    1    6    6    0    0  0.18828301844E+02 -0.98185104461E+01  0.24833292588E+02  0.32674156737E+02  0.00000000000E+00 0.  1.
         14    1    6    6    0    0 -0.67978127672E+02 -0.62168002462E+02  0.22908275077E+02  0.94924577634E+02  0.00000000000E+00 0. -1.
         -5    1    3    3    0  503  0.41906780688E+01  0.25404416880E+01  0.21373300482E+02  0.22425958176E+02  0.47000000000E+01 0.  1.
         13    1    4    4    0    0 -0.10552821436E+01  0.23399889638E+02 -0.14347022354E+02  0.27468263613E+02  0.00000000000E+00 0. -1.
        -14    1    4    4    0    0  0.16811340312E+03  0.71245921860E+02 -0.23830732580E+03  0.30021405567E+03  0.00000000000E+00 0.  1.
</event>
<event>
12    1  0.8417180E-002  0.2013252E+03  0.7818608E-02  0.1148942E+00
         21   -1    0    0  503  502  0.00000000000E+00  0.00000000000E+00  0.44070481603E+03  0.44070481603E+03  0.00000000000E+00 0. -1.
         21   -1    0    0  501  503 -0.00000000000E+00 -0.00000000000E+00 -0.11667680390E+03  0.11667680390E+03  0.00000000000E+00 0.  1.
          6    2    1    2  501    0 -0.10324953314E+03 -0.31715564784E+01  0.32477153126E+02  0.20392796687E+03  0.17280429778E+03 0.  0.
         24    2    3    3    0    0 -0.90697249605E+02  0.59190603606E+02  0.13588776986E+02  0.13740383902E+03  0.83460418628E+02 0.  0.
         -6    2    1    2    0  502  0.10324953314E+03  0.31715564784E+01  0.29155085901E+03  0.35345365306E+03  0.17104694271E+03 0.  0.
        -24    2    5    5    0    0  0.97296647140E+01 -0.46821041664E+02  0.12783007672E+03  0.15833366379E+03  0.80262969402E+02 0.  0.
          5    1    3    3  501    0 -0.12552283535E+02 -0.62362160084E+02  0.18888376140E+02  0.66524127845E+02  0.47000000000E+01 0. -1.
        -13    1    4    4    0    0  0.12531412507E+02  0.14767288154E+02 -0.11127214924E+02  0.22336606968E+02  0.00000000000E+00 0.  1.
         14    1    4    4    0    0 -0.10322866211E+03  0.44423315451E+02  0.24715991910E+02  0.11506723206E+03  0.00000000000E+00 0. -1.
         -5    1    5    5    0  502  0.93519868426E+02  0.49992598142E+02  0.16372078229E+03  0.19511998927E+03  0.47000000000E+01 0.  1.
         13    1    6    6    0    0 -0.10831818634E+02 -0.50756331873E+02  0.12721015592E+03  0.13738980053E+03  0.00000000000E+00 0. -1.
        -14    1    6    6    0    0  0.20561483348E+02  0.39352902087E+01  0.61992079898E+00  0.20943863261E+02  0.00000000000E+00 0.  1.
</event>
<event>
12    1  0.8417180E-002  0.2290103E+03  0.7818608E-02  0.1127612E+00
         21   -1    0    0  503  502  0.00000000000E+00  0.00000000000E+00  0.14222113665E+04  0.14222113665E+04  0.00000000000E+00 0. -1.
         21   -1    0    0  501  503 -0.00000000000E+00 -0.00000000000E+00 -0.48945224355E+02  0.48945224355E+02  0.00000000000E+00 0. -1.
          6    2    1    2  501    0  0.13201261351E+03  0.71385321634E+02  0.31937513934E+03  0.39299640962E+03  0.17298122462E+03 0.  0.
         24    2    3    3    0    0  0.16175001302E+03  0.43564119794E+02  0.28538993182E+03  0.33974778023E+03  0.76943107164E+02 0.  0.
         -6    2    1    2    0  502 -0.13201261351E+03 -0.71385321634E+02  0.10538910028E+04  0.10781601812E+04  0.17093839928E+03 0.  0.
        -24    2    5    5    0    0 -0.66067929447E+02  0.18679850619E+02  0.35229306635E+03  0.36772215365E+03  0.79970429322E+02 0.  0.
          5    1    3    3  501    0 -0.29737399510E+02  0.27821201840E+02  0.33985207521E+02  0.53248629388E+02  0.47000000000E+01 0. -1.
        -11    1    4    4    0    0  0.11084473422E+02 -0.57803013619E+01  0.76462054018E+02  0.77477242721E+02  0.00000000000E+00 0.  1.
         12    1    4    4    0    0  0.15066553960E+03  0.49344421156E+02  0.20892787780E+03  0.26227053751E+03  0.00000000000E+00 0. -1.
         -5    1    5    5    0  502 -0.65944684063E+02 -0.90065172253E+02  0.70159793641E+03  0.71043802755E+03  0.47000000000E+01 0.  1.
         13    1    6    6    0    0 -0.55001946997E+02 -0.11259206666E+02  0.30829700966E+03  0.31336724474E+03  0.00000000000E+00 0. -1.
        -14    1    6    6    0    0 -0.11065982450E+02  0.29939057285E+02  0.43996056690E+02  0.54354908913E+02  0.00000000000E+00 0.  1.
</event>
<event>
12    1  0.8417180E-002  0.1945548E+03  0.7818608E-02  0.1154505E+00
         21   -1    0    0  503  502  0.00000000000E+00  0.00000000000E+00  0.16593168478E+04  0.16593168478E+04  0.00000000000E+00 0. -1.
         21   -1    0    0  501  503 -0.00000000000E+00 -0.00000000000E+00 -0.24125673598E+02  0.24125673598E+02  0.00000000000E+00 0. -1.
          6    2    1    2  501    0 -0.80593021387E+02  0.40638698368E+02  0.61844150534E+03  0.64832202993E+03  0.17235086324E+03 0.  0.
         24    2    3    3    0    0 -0.35337343446E+02 -0.38709321638E+02  0.41715065680E+03  0.42722413222E+03  0.75885764533E+02 0.  0.
         -6    2    1    2    0  502  0.80593021387E+02 -0.40638698368E+02  0.10167496689E+04  0.10351204915E+04  0.17189474637E+03 0.  0.
        -24    2    5    5    0    0  0.58602896476E+02 -0.90743972230E+02  0.60778782300E+03  0.62248750026E+03  0.80099202397E+02 0.  0.
          5    1    3    3  501    0 -0.45255677941E+02  0.79348020005E+02  0.20129084854E+03  0.22109789770E+03  0.47000000000E+01 0. -1.
        -11    1    4    4    0    0 -0.41967796059E+02 -0.10897726020E+02  0.36654207507E+03  0.36909775011E+03  0.00000000000E+00 0.  1.
         12    1    4    4    0    0  0.66304526132E+01 -0.27811595617E+02  0.50608581731E+02  0.58126382112E+02  0.00000000000E+00 0. -1.
         -5    1    5    5    0  502  0.21990124911E+02  0.50105273862E+02  0.40896184586E+03  0.41263299121E+03  0.47000000000E+01 0.  1.
         11    1    6    6    0    0  0.38382954125E+02 -0.53758587180E+02  0.52922175775E+03  0.53332814077E+03  0.00000000000E+00 0. -1.
        -12    1    6    6    0    0  0.20219942351E+02 -0.36985385050E+02  0.78566065250E+02  0.89159359491E+02  0.00000000000E+00 0.  1.
</event>
<event>
12    1  0.8417180E-002  0.2133283E+03  0.7818608E-02  0.1139057E+00
         21   -1    0    0  501  502  0.00000000000E+00  0.00000000000E+00  0.45050296414E+02  0.45050296414E+02  0.00000000000E+00 0. -1.
         21   -1    0    0  502  503 -0.00000000000E+00 -0.00000000000E+00 -0.10299070297E+04  0.10299070297E+04  0.00000000000E+00 0. -1.
         -6    2    1    2    0  503 -0.12381003274E+03  0.10495128760E+02 -0.57184339551E+03  0.61033910927E+03  0.17340671090E+03 0.  0.
        -24    2    3    3    0    0 -0.56147312536E+02 -0.59613923169E+02 -0.33926810833E+03  0.35813507070E+03  0.80321472788E+02 0.  0.
          6    2    1    2  501    0  0.12381003274E+03 -0.10495128760E+02 -0.41301333781E+03  0.46461821687E+03  0.17277441451E+03 0.  0.
         24    2    5    5    0    0 -0.47537967080E+01 -0.20915911390E+02 -0.14109350865E+03  0.16362031914E+03  0.80025975274E+02 0.  0.
          5    1    5    5  501    0  0.12856382945E+03  0.10420782629E+02 -0.27191982916E+03  0.30099789774E+03  0.47000000000E+01 0. -1.
        -11    1    6    6    0    0  0.12602860770E+02 -0.19529537173E+02 -0.18763948234E+01  0.23318571554E+02  0.00000000000E+00 0.  1.
         12    1    6    6    0    0 -0.17356657478E+02 -0.13863742168E+01 -0.13921711383E+03  0.14030174758E+03  0.00000000000E+00 0. -1.
         -5    1    3    3    0  503 -0.67662720205E+02  0.70109051930E+02 -0.23257528718E+03  0.25220403858E+03  0.47000000000E+01 0.  1.
         11    1    4    4    0    0 -0.73182195702E+02 -0.29189201093E+02 -0.25632194249E+03  0.26815775474E+03  0.00000000000E+00 0. -1.
        -12    1    4    4    0    0  0.17034883166E+02 -0.30424722076E+02 -0.82946165844E+02  0.89977315953E+02  0.00000000000E+00 0.  1.
</event>
<event>
12    1  0.8417180E-002  0.2304850E+03  0.7818608E-02  0.1126436E+00
         21   -1    0    0  501  502  0.00000000000E+00  0.00000000000E+00  0.32131418751E+03  0.32131418751E+03  0.00000000000E+00 0.  1.
         21   -1    0    0  502  503 -0.00000000000E+00 -0.00000000000E+00 -0.18806550673E+03  0.18806550673E+03  0.00000000000E+00 0.  1.
         -6    2    1    2    0  503 -0.15089465277E+02  0.15168653644E+03 -0.23110997030E+02  0.23086273242E+03  0.17183418094E+03 0.  0.
        -24    2    3    3    0    0  0.21599339856E+02  0.14719530438E+03  0.23433834568E+02  0.17124100035E+03  0.81494456756E+02 0.  0.
          6    2    1    2  501    0  0.15089465277E+02 -0.15168653644E+03  0.15635967781E+03  0.27851696182E+03  0.17287814170E+03 0.  0.
         24    2    5    5    0    0  0.63862562136E+02 -0.74967200811E+02  0.48145094486E+02  0.13710565576E+03  0.82349879653E+02 0.  0.
          5    1    5    5  501    0 -0.48773096859E+02 -0.76719335632E+02  0.10821458333E+03  0.14141130606E+03  0.47000000000E+01 0. -1.
        -11    1    6    6    0    0  0.81977121349E+02 -0.70478234848E+02  0.48383827258E+02  0.11844165126E+03  0.00000000000E+00 0.  1.
         12    1    6    6    0    0 -0.18114559213E+02 -0.44889659631E+01 -0.23873277217E+00  0.18664004507E+02  0.00000000000E+00 0. -1.
         -5    1    3    3    0  503 -0.36688805132E+02  0.44912320581E+01 -0.46544831597E+02  0.59621732077E+02  0.47000000000E+01 0.  1.
         11    1    4    4    0    0  0.45774220577E+02  0.45768394534E+02  0.18184501685E+01  0.64755941570E+02  0.00000000000E+00 0. -1.
        -12    1    4    4    0    0 -0.24174880721E+02  0.10142690985E+03  0.21615384399E+02  0.10648505878E+03  0.00000000000E+00 0.  1.
</event>
<event>
12    1  0.8417180E-002  0.2130840E+03  0.7818608E-02  0.1139512E+00
         21   -1    0    0  501  502  0.00000000000E+00  0.00000000000E+00  0.41243815507E+03  0.41243815507E+03  0.00000000000E+00 0. -1.
         21   -1    0    0  502  503 -0.00000000000E+00 -0.00000000000E+00 -0.12412958120E+03  0.12412958120E+03  0.00000000000E+00 0. -1.
         -6    2    1    2    0  503  0.36725075037E+02 -0.11608422516E+03  0.50321140952E+02  0.21712633076E+03  0.17259011505E+03 0.  0.
        -24    2    3    3    0    0  0.62721921991E+02 -0.12305897745E+03  0.77665065506E+02  0.17847062702E+03  0.82111819372E+02 0.  0.
          6    2    1    2  501    0 -0.36725075037E+02  0.11608422516E+03  0.23798743292E+03  0.31944140552E+03  0.17487285343E+03 0.  0.
         24    2    5    5    0    0 -0.79516109110E+02  0.11473810538E+03  0.14227531424E+03  0.21448529899E+03  0.79208800059E+02 0.  0.
          5    1    5    5  501    0  0.42791034072E+02  0.13461197758E+01  0.95712118678E+02  0.10495610653E+03  0.47000000000E+01 0. -1.
        -11    1    6    6    0    0 -0.74494990406E+01 -0.40524799216E+01 -0.66747298113E+01  0.10792110430E+02  0.00000000000E+00 0.  1.
         12    1    6    6    0    0 -0.72066610069E+02  0.11879058530E+03  0.14895004405E+03  0.20369318856E+03  0.00000000000E+00 0. -1.
         -5    1    3    3    0  503 -0.25996846954E+02  0.69747522908E+01 -0.27343924554E+02  0.38655703733E+02  0.47000000000E+01 0.  1.
         11    1    4    4    0    0  0.52389833213E+02 -0.48574492799E+02  0.15296097548E+01  0.71459888615E+02  0.00000000000E+00 0. -1.
        -12    1    4    4    0    0  0.10332088778E+02 -0.74484484650E+02  0.76135455751E+02  0.10701073841E+03  0.00000000000E+00 0.  1.
</event>
<event>
12    1  0.8417180E-002  0.2131911E+03  0.7818608E-02  0.1139411E+00
         21   -1    0    0  501  502  0.00000000000E+00  0.00000000000E+00  0.11051545076E+04  0.11051545076E+04  0.00000000000E+00 0. -1.
         21   -1    0    0  502  503 -0.00000000000E+00 -0.00000000000E+00 -0.50695726431E+02  0.50695726431E+02  0.00000000000E+00 0. -1.
         -6    2    1    2    0  503  0.26108056080E+01 -0.12428179912E+03  0.78100278361E+03  0.80911021646E+03  0.17100062126E+03 0.  0.
        -24    2    3    3    0    0 -0.58578758531E+02 -0.54665020632E+02  0.51908823848E+03  0.53123978342E+03  0.79645293180E+02 0.  0.
          6    2    1    2  501    0 -0.26108056080E+01  0.12428179912E+03  0.27345599757E+03  0.34674001759E+03  0.17319836977E+03 0.  0.
         24    2    5    5    0    0 -0.26639917625E+02  0.87120929103E+02  0.72998889429E+02  0.14140256194E+03  0.79787876070E+02 0.  0.
          5    1    5    5  501    0  0.24029112017E+02  0.37160870019E+02  0.20045710814E+03  0.20533745564E+03  0.47000000000E+01 0. -1.
        -11    1    6    6    0    0 -0.20399896739E+02 -0.22624348218E+01  0.41726080559E+02  0.46500969852E+02  0.00000000000E+00 0.  1.
         12    1    6    6    0    0 -0.62400208853E+01  0.89383363925E+02  0.31272808870E+02  0.94901592093E+02  0.00000000000E+00 0. -1.
         -5    1    3    3    0  503  0.61189564139E+02 -0.69616778490E+02  0.26191454513E+03  0.27787043304E+03  0.47000000000E+01 0.  1.
         13    1    4    4    0    0 -0.44903083622E+02 -0.61011985433E+02  0.50485167473E+03  0.51050363638E+03  0.00000000000E+00 0. -1.
        -14    1    4    4    0    0 -0.13675674909E+02  0.63469648010E+01  0.14236563756E+02  0.20736147038E+02  0.00000000000E+00 0.  1.
</event>
<event>
12    1  0.8417180E-002  0.2118229E+03  0.7818608E-02  0.1140257E+00
         21   -1    0    0  503  502  0.00000000000E+00  0.00000000000E+00  0.20989871907E+03  0.20989871907E+03  0.00000000000E+00 0. -1.
         21   -1    0    0  501  503 -0.00000000000E+00 -0.00000000000E+00 -0.25164323374E+03  0.25164323374E+03  0.00000000000E+00 0.  1.
          6    2    1    2  501    0 -0.12027467535E+03 -0.28955426698E+02 -0.11119527180E+03  0.23923484847E+03  0.17194333364E+03 0.  0.
         24    2    3    3    0    0 -0.26391317643E+02 -0.16798932576E+02  0.99420175569E+01  0.85422631536E+02  0.78863657554E+02 0.  0.
         -6    2    1    2    0  502  0.12027467535E+03  0.28955426698E+02  0.69450757134E+02  0.22230710435E+03  0.17115088872E+03 0.  0.
        -24    2    5    5    0    0  0.79211172946E+02  0.36537974471E+02 -0.23234793247E+02  0.12054066828E+03  0.79879681981E+02 0.  0.
          5    1    3    3  501    0 -0.93883357712E+02 -0.12156494121E+02 -0.12113728936E+03  0.15381221693E+03  0.47000000000E+01 0. -1.
        -13    1    4    4    0    0  0.33168332498E+01  0.43786873748E+01 -0.30479849025E+02  0.30970881204E+02  0.00000000000E+00 0.  1.
         14    1    4    4    0    0 -0.29708150893E+02 -0.21177619951E+02  0.40421866582E+02  0.54451750332E+02  0.00000000000E+00 0. -1.
         -5    1    5    5    0  502  0.41063502409E+02 -0.75825477728E+01  0.92685550382E+02  0.10176643607E+03  0.47000000000E+01 0.  1.
         11    1    6    6    0    0  0.11615890708E+02  0.48034582743E+02 -0.55431761348E+01  0.49729034355E+02  0.00000000000E+00 0. -1.
        -12    1    6    6    0    0  0.67595282238E+02 -0.11496608272E+02 -0.17691617113E+02  0.70811633921E+02  0.00000000000E+00 0.  1.
</event>
<event>
12    1  0.8417180E-002  0.2028033E+03  0.7818608E-02  0.1149447E+00
         21   -1    0    0  501  502  0.00000000000E+00  0.00000000000E+00  0.62267026911E+03  0.62267026911E+03  0.00000000000E+00 0.  1.
         21   -1    0    0  502  503 -0.00000000000E+00 -0.00000000000E+00 -0.78183476574E+02  0.78183476574E+02  0.00000000000E+00 0.  1.
         -6    2    1    2    0  503  0.80649843887E+02 -0.38036624561E+02  0.12292714929E+03  0.23715033255E+03  0.18214832986E+03 0.  0.
        -24    2    3    3    0    0  0.13777614882E+02  0.29165484686E+02  0.34487482501E+01  0.84555454477E+02  0.78085100042E+02 0.  0.
          6    2    1    2  501    0 -0.80649843887E+02  0.38036624561E+02  0.42155964324E+03  0.46370341313E+03  0.17133925531E+03 0.  0.
         24    2    5    5    0    0 -0.94111520285E+02  0.73743017867E+02  0.38167254795E+03  0.40830274865E+03  0.82110838248E+02 0.  0.
          5    1    5    5  501    0  0.13461676398E+02 -0.35706393306E+02  0.39887095291E+02  0.55400664483E+02  0.47000000000E+01 0. -1.
        -13    1    6    6    0    0 -0.22932473815E+02  0.66547297336E+02  0.23141478202E+03  0.24188270396E+03  0.00000000000E+00 0.  1.
         14    1    6    6    0    0 -0.71179046470E+02  0.71957205310E+01  0.15025776593E+03  0.16642004469E+03  0.00000000000E+00 0. -1.
         -5    1    3    3    0  503  0.66872229005E+02 -0.67202109247E+02  0.11947840104E+03  0.15259487808E+03  0.47000000000E+01 0.  1.
         13    1    4    4    0    0 -0.23795714450E+02  0.43379705928E+01  0.24863717204E+02  0.34688015917E+02  0.00000000000E+00 0. -1.
        -14    1    4    4    0    0  0.37573329333E+02  0.24827514093E+02 -0.21414968954E+02  0.49867438560E+02  0.00000000000E+00 0.  1.
</event>
<event>
12    1  0.8417180E-002  0.2548635E+03  0.7818608E-02  0.1110472E+00
         21   -1    0    0  503  502  0.00000000000E+00  0.00000000000E+00  0.15707654265E+04  0.15707654265E+04  0.00000000000E+00 0. -1.
         21   -1    0    0  501  503 -0.00000000000E+00 -0.00000000000E+00 -0.44351219309E+02  0.44351219309E+02  0.00000000000E+00 0. -1.
          6    2    1    2  501    0 -0.12186601333E+03  0.14103208163E+03  0.97867814059E+03  0.10109889910E+04  0.17189084880E+03 0.  0.
         24    2    3    3    0    0 -0.11894748877E+02  0.97602999031E+01  0.21415201986E+03  0.22750431414E+03  0.75235475905E+02 0.  0.
         -6    2    1    2    0  502  0.12186601333E+03 -0.14103208163E+03  0.54773606663E+03  0.60412765479E+03  0.17382189546E+03 0.  0.
        -24    2    5    5    0    0  0.22495510801E+02 -0.10147059929E+03  0.19337186532E+03  0.23394434233E+03  0.80839015836E+02 0.  0.
          5    1    3    3  501    0 -0.10997126445E+03  0.13127178172E+03  0.76452612072E+03  0.78348467691E+03  0.47000000000E+01 0. -1.
        -11    1    4    4    0    0 -0.12907571747E+02  0.26237430075E+02  0.27554045386E+02  0.40177525589E+02  0.00000000000E+00 0.  1.
         12    1    4    4    0    0  0.10128228696E+01 -0.16477130171E+02  0.18659797448E+03  0.18732678855E+03  0.00000000000E+00 0. -1.
         -5    1    5    5    0  502  0.99370502530E+02 -0.39561482335E+02  0.35436420130E+03  0.37018331246E+03  0.47000000000E+01 0.  1.
         13    1    6    6    0    0  0.49708714829E+02 -0.77648441623E+02  0.16037103073E+03  0.18498406503E+03  0.00000000000E+00 0. -1.
        -14    1    6    6    0    0 -0.27213204028E+02 -0.23822157669E+02  0.33000834592E+02  0.48960277299E+02  0.00000000000E+00 0.  1.
</event>
<event>
12    1  0.8417180E-002  0.2375142E+03  0.7818608E-02  0.1122774E+00
         21   -1    0    0  501  502  0.00000000000E+00  0.00000000000E+00  0.19032656810E+04  0.19032656810E+04  0.00000000000E+00 0. -1.
         21   -1    0    0  502  503 -0.00000000000E+00 -0.00000000000E+00 -0.15101227342E+03  0.15101227342E+03  0.00000000000E+00 0. -1.
         -6    2    1    2    0  503  0.15690121700E+03 -0.40455510347E+02 -0.45546851692E+02  0.24184191153E+03  0.17366160847E+03 0.  0.
        -24    2    3    3    0    0  0.28343170574E+02  0.18645983204E+02 -0.30589656240E+02  0.99483330693E+02  0.88375324661E+02 0.  0.
          6    2    1    2  501    0 -0.15690121700E+03  0.40455510347E+02  0.17978002592E+04  0.18124360428E+04  0.16304599696E+03 0.  0.
         24    2    5    5    0    0 -0.67417685044E+02  0.63759014489E+02  0.69532267417E+03  0.70607747920E+03  0.80383015856E+02 0.  0.
          5    1    5    5  501    0 -0.89483531961E+02 -0.23303504142E+02  0.11024775851E+04  0.11063585636E+04  0.47000000000E+01 0. -1.
        -11    1    6    6    0    0 -0.33797535380E+01 -0.91455099703E+01  0.25513890114E+03  0.25532512991E+03  0.00000000000E+00 0.  1.
         12    1    6    6    0    0 -0.64037931506E+02  0.72904524459E+02  0.44018377303E+03  0.45075234929E+03  0.00000000000E+00 0. -1.
         -5    1    3    3    0  503  0.12855804643E+03 -0.59101493551E+02 -0.14957195452E+02  0.14235858084E+03  0.47000000000E+01 0.  1.
         13    1    4    4    0    0  0.57739550290E+02  0.29883125745E+01 -0.60899399446E+01  0.58136675586E+02  0.00000000000E+00 0. -1.
        -14    1    4    4    0    0 -0.29396379716E+02  0.15657670629E+02 -0.24499716295E+02  0.41346655106E+02  0.00000000000E+00 0.  1.
</event>
<event>
12    1  0.8417180E-002  0.4071514E+03  0.7818608E-02  0.1041362E+00
         21   -1    0    0  501  502  0.00000000000E+00  0.00000000000E+00  0.47671339316E+03  0.47671339316E+03  0.00000000000E+00 0. -1.
         21   -1    0    0  502  503 -0.00000000000E+00 -0.00000000000E+00 -0.36487930705E+03  0.36487930705E+03  0.00000000000E+00 0.  1.
         -6    2    1    2    0  503  0.36078757943E+03  0.76364172912E+02 -0.36080698654E+02  0.40874694192E+03  0.17254877958E+03 0.  0.
        -24    2    3    3    0    0  0.21121886043E+03  0.37006720995E+02 -0.90763683268E+02  0.24463682787E+03  0.75008179228E+02 0.  0.
          6    2    1    2  501    0 -0.36078757943E+03 -0.76364172912E+02  0.14791478476E+03  0.43284575830E+03  0.17169013526E+03 0.  0.
         24    2    5    5    0    0 -0.32795042582E+03 -0.11512071739E+03  0.13257596856E+03  0.37957552571E+03  0.75478016073E+02 0.  0.
          5    1    5    5  501    0 -0.32837153614E+02  0.38756544480E+02  0.15338816206E+02  0.53270232589E+02  0.47000000000E+01 0. -1.
        -11    1    6    6    0    0 -0.70214302968E+02 -0.60371089545E+00  0.48286256813E+02  0.85217224815E+02  0.00000000000E+00 0.  1.
         12    1    6    6    0    0 -0.25773612285E+03 -0.11451700650E+03  0.84289711745E+02  0.29435830090E+03  0.00000000000E+00 0. -1.
         -5    1    3    3    0  503  0.14956871901E+03  0.39357451917E+02  0.54682984613E+02  0.16411011405E+03  0.47000000000E+01 0.  1.
         13    1    4    4    0    0  0.12559461216E+03  0.41715484871E+02 -0.87827790382E+02  0.15883295956E+03  0.00000000000E+00 0. -1.
        -14    1    4    4    0    0  0.85624248269E+02 -0.47087638757E+01 -0.29358928856E+01  0.85803868304E+02  0.00000000000E+00 0.  1.
</event>
<event>
12    1  0.8417180E-002  0.1793731E+03  0.7818608E-02  0.1170010E+00
         21   -1    0    0  501  502  0.00000000000E+00  0.00000000000E+00  0.23479932832E+03  0.23479932832E+03  0.00000000000E+00 0. -1.
         21   -1    0    0  502  503 -0.00000000000E+00 -0.00000000000E+00 -0.55288106338E+03  0.55288106338E+03  0.00000000000E+00 0. -1.
         -6    2    1    2    0  503 -0.29036448412E+02 -0.26014716298E+02 -0.50189501942E+03  0.53084964833E+03  0.16847212770E+03 0.  0.
        -24    2    3    3    0    0 -0.67027315025E+02  0.26758565241E+02 -0.33937910722E+03  0.35574443165E+03  0.78531779920E+02 0.  0.
          6    2    1    2  501    0  0.29036448412E+02  0.26014716298E+02  0.18381328436E+03  0.25683074336E+03  0.17508519762E+03 0.  0.
         24    2    5    5    0    0 -0.13066645009E+02  0.75013206114E+02  0.86170639763E+02  0.13965694712E+03  0.79252542038E+02 0.  0.
          5    1    5    5  501    0  0.42103093420E+02 -0.48998489816E+02  0.97642644600E+02  0.11717379624E+03  0.47000000000E+01 0. -1.
        -11    1    6    6    0    0 -0.33620915863E+02  0.85998246110E+01  0.91270791242E+01  0.35883513487E+02  0.00000000000E+00 0.  1.
         12    1    6    6    0    0  0.20554270854E+02  0.66413381503E+02  0.77043560639E+02  0.10377343364E+03  0.00000000000E+00 0. -1.
         -5    1    3    3    0  503  0.37990866613E+02 -0.52773281539E+02 -0.16251591220E+03  0.17510521668E+03  0.47000000000E+01 0.  1.
         11    1    4    4    0    0 -0.17448952644E+02  0.44410154051E+02 -0.22257415307E+03  0.22763123983E+03  0.00000000000E+00 0. -1.
        -12    1    4    4    0    0 -0.49578362381E+02 -0.17651588810E+02 -0.11680495415E+03  0.12811319182E+03  0.00000000000E+00 0.  1.
</event>
<event>
12    1  0.8417180E-002  0.1878056E+03  0.7818608E-02  0.1160604E+00
         21   -1    0    0  501  502  0.00000000000E+00  0.00000000000E+00  0.84592730378E+03  0.84592730378E+03  0.00000000000E+00 0.  1.
         21   -1    0    0  502  503 -0.00000000000E+00 -0.00000000000E+00 -0.49504444126E+02  0.49504444126E+02  0.00000000000E+00 0.  1.
         -6    2    1    2    0  503  0.20684740339E+02 -0.71758253828E+02  0.21818580350E+03  0.28746051402E+03  0.17161409265E+03 0.  0.
        -24    2    3    3    0    0  0.16648101867E+02 -0.71188995529E+02  0.49157519805E+02  0.11831776604E+03  0.78978475726E+02 0.  0.
          6    2    1    2  501    0 -0.20684740339E+02  0.71758253828E+02  0.57823705616E+03  0.60797123389E+03  0.17231895613E+03 0.  0.
         24    2    5    5    0    0  0.16771811976E+02 -0.57426083303E+01  0.15356720916E+03  0.17464001427E+03  0.81252542279E+02 0.  0.
          5    1    5    5  501    0 -0.37456552315E+02  0.77500862159E+02  0.42466984700E+03  0.43333121962E+03  0.47000000000E+01 0. -1.
        -11    1    6    6    0    0  0.31319473695E+01  0.19698371824E+02  0.14223801993E+03  0.14362969492E+03  0.00000000000E+00 0.  1.
         12    1    6    6    0    0  0.13639864607E+02 -0.25440980154E+02  0.11329189224E+02  0.31010319350E+02  0.00000000000E+00 0. -1.
         -5    1    3    3    0  503  0.40366384712E+01 -0.56925829898E+00  0.16902828369E+03  0.16914274797E+03  0.47000000000E+01 0.  1.
         11    1    4    4    0    0  0.29055204688E+02 -0.50430906806E+01  0.41031623097E+02  0.50529513920E+02  0.00000000000E+00 0. -1.
        -12    1    4    4    0    0 -0.12407102821E+02 -0.66145904849E+02  0.81258967081E+01  0.67788252124E+02  0.00000000000E+00 0.  1.
</event>
<event>
12    1  0.8417180E-002  0.1901333E+03  0.7818608E-02  0.1160805E+00
         21   -1    0    0  503  502  0.00000000000E+00  0.00000000000E+00  0.26506474695E+03  0.26506474695E+03  0.00000000000E+00 0. -1.
         21   -1    0    0  501  503 -0.00000000000E+00 -0.00000000000E+00 -0.13596172000E+03  0.13596172000E+03  0.00000000000E+00 0. -1.
          6    2    1    2  501    0 -0.67346031563E+01 -0.60539400933E+02  0.20570339040E+02  0.19124284531E+03  0.18011194599E+03 0.  0.
         24    2    3    3    0    0 -0.54885277084E+02 -0.55455186677E+02  0.61621939086E+02  0.12759019021E+03  0.79964503950E+02 0.  0.
         -6    2    1    2    0  502  0.67346031563E+01  0.60539400933E+02  0.10853268792E+03  0.20978362164E+03  0.16887702513E+03 0.  0.
        -24    2    5    5    0    0  0.10421535700E+02  0.67213270319E+02  0.32222366619E+01  0.10409296384E+03  0.78732015073E+02 0.  0.
          5    1    3    3  501    0  0.48150673927E+02 -0.50842142569E+01 -0.41051600046E+02  0.63652655095E+02  0.47000000000E+01 0. -1.
        -11    1    4    4    0    0 -0.55956598844E+02 -0.34975324986E+02  0.77402831932E+02  0.10171338507E+03  0.00000000000E+00 0.  1.
         12    1    4    4    0    0  0.10713217600E+01 -0.20479861691E+02 -0.15780892846E+02  0.25876805139E+02  0.00000000000E+00 0. -1.
         -5    1    5    5    0  502 -0.36869325441E+01 -0.66738693860E+01  0.10531045126E+03  0.10569065781E+03  0.47000000000E+01 0.  1.
         13    1    6    6    0    0 -0.17606075235E+02  0.72335749866E+02 -0.44680520831E+01  0.74581486196E+02  0.00000000000E+00 0. -1.
        -14    1    6    6    0    0  0.28027610935E+02 -0.51224795465E+01  0.76902887450E+01  0.29511477639E+02  0.00000000000E+00 0.  1.
</event>
<event>
12    1  0.8417180E-002  0.1875993E+03  0.7818608E-02  0.1160736E+00
         21   -1    0    0  503  502  0.00000000000E+00  0.00000000000E+00  0.41656408769E+03  0.41656408769E+03  0.00000000000E+00 0.  1.
         21   -1    0    0  501  503 -0.00000000000E+00 -0.00000000000E+00 -0.11526812651E+03  0.11526812651E+03  0.00000000000E+00 0.  1.
          6    2    1    2  501    0  0.50511773983E+02 -0.55403210578E+02  0.12946182828E+02  0.18804550443E+03  0.17196672071E+03 0.  0.
         24    2    3    3    0    0 -0.31324875010E+02 -0.31320070641E+01 -0.17852043708E+02  0.86064444453E+02  0.78085439564E+02 0.  0.
         -6    2    1    2    0  502 -0.50511773983E+02  0.55403210578E+02  0.28834977835E+03  0.34378670978E+03  0.17153061561E+03 0.  0.
        -24    2    5    5    0    0 -0.82644217246E+02  0.76844665701E+01  0.13108090085E+03  0.17626010810E+03  0.83643920696E+02 0.  0.
          5    1    3    3  501    0  0.81836648993E+02 -0.52271203514E+02  0.30798226536E+02  0.10198105997E+03  0.47000000000E+01 0. -1.
        -11    1    4    4    0    0  0.80239988602E+01  0.25453550791E+02  0.11714930907E+02  0.29146310431E+02  0.00000000000E+00 0.  1.
         12    1    4    4    0    0 -0.39348873870E+02 -0.28585557855E+02 -0.29566974616E+02  0.56918134023E+02  0.00000000000E+00 0. -1.
         -5    1    5    5    0  502  0.32132443263E+02  0.47718744008E+02  0.15726887750E+03  0.16752660168E+03  0.47000000000E+01 0.  1.
         13    1    6    6    0    0 -0.68424603011E+02  0.32029654224E+02  0.12699957436E+03  0.14777251752E+03  0.00000000000E+00 0. -1.
        -14    1    6    6    0    0 -0.14219614235E+02 -0.24345187654E+02  0.40813264841E+01  0.28487590575E+02  0.00000000000E+00 0.  1.
</event>
<event>
12    1  0.8417180E-002  0.2805526E+03  0.7818608E-02  0.1095479E+00
         21   -1    0    0  501  502  0.00000000000E+00  0.00000000000E+00  0.53882999559E+03  0.53882999559E+03  0.00000000000E+00 0.  1.
         21   -1    0    0  502  503 -0.00000000000E+00 -0.00000000000E+00 -0.22121445563E+03  0.22121445563E+03  0.00000000000E+00 0.  1.
         -6    2    1    2    0  503 -0.13974649727E+03  0.17099779748E+03  0.38092626791E+03  0.47309046245E+03  0.17303304261E+03 0.  0.
        -24    2    3    3    0    0 -0.19870465158E+02  0.11343463548E+03  0.24817788509E+03  0.28513301026E+03  0.80288971698E+02 0.  0.
          6    2    1    2  501    0  0.13974649727E+03 -0.17099779748E+03 -0.63310727941E+02  0.28695398877E+03  0.17194479682E+03 0.  0.
         24    2    5    5    0    0  0.89247348574E+02 -0.37213751445E+02  0.11277911089E+02  0.12560377939E+03  0.79367282901E+02 0.  0.
          5    1    5    5  501    0  0.50499148700E+02 -0.13378404604E+03 -0.74588639030E+02  0.16135020938E+03  0.47000000000E+01 0. -1.
        -13    1    6    6    0    0  0.24662829791E+02 -0.37567249926E+02 -0.25104136604E+02  0.51475927529E+02  0.00000000000E+00 0.  1.
         14    1    6    6    0    0  0.64584518783E+02  0.35349848142E+00  0.36382047693E+02  0.74127851863E+02  0.00000000000E+00 0. -1.
         -5    1    3    3    0  503 -0.11987603212E+03  0.57563161999E+02  0.13274838282E+03  0.18795745220E+03  0.47000000000E+01 0.  1.
         13    1    4    4    0    0  0.27435108585E+02  0.36255256510E+02  0.51977092321E+02  0.69056114384E+02  0.00000000000E+00 0. -1.
        -14    1    4    4    0    0 -0.47305573743E+02  0.77179378975E+02  0.19620079277E+03  0.21607689587E+03  0.00000000000E+00 0.  1.
</event>
<event>
12    1  0.8417180E-002  0.2019457E+03  0.7818608E-02  0.1148284E+00
         21   -1    0    0  501  502  0.00000000000E+00  0.00000000000E+00  0.12094019104E+03  0.12094019104E+03  0.00000000000E+00 0.  1.
         21   -1    0    0  502  503 -0.00000000000E+00 -0.00000000000E+00 -0.67441191999E+03  0.67441191999E+03  0.00000000000E+00 0.  1.
         -6    2    1    2    0  503 -0.43147791873E+01 -0.10434028210E+03 -0.55880749942E+03  0.59417833224E+03  0.17284836509E+03 0.  0.
        -24    2    3    3    0    0 -0.33629283236E+02 -0.36706688552E+02 -0.23850429510E+03  0.26546892285E+03  0.10540939496E+03 0.  0.
          6    2    1    2  501    0  0.43147791873E+01  0.10434028210E+03  0.53357704619E+01  0.20117377878E+03  0.17186304732E+03 0.  0.
         24    2    5    5    0    0 -0.58005313793E+02  0.83404280254E+02 -0.20953593308E+02  0.13021371389E+03  0.78712564557E+02 0.  0.
          5    1    5    5  501    0  0.62320092980E+02  0.20936001848E+02  0.26289363770E+02  0.70960064895E+02  0.47000000000E+01 0. -1.
        -11    1    6    6    0    0 -0.24363754285E+02 -0.11857670889E+02 -0.30662453773E+00  0.27097802501E+02  0.00000000000E+00 0.  1.
         12    1    6    6    0    0 -0.33641559508E+02  0.95261951144E+02 -0.20646968771E+02  0.10311591139E+03  0.00000000000E+00 0. -1.
         -5    1    3    3    0  503  0.29314504049E+02 -0.67633593550E+02 -0.32030320432E+03  0.32870940939E+03  0.47000000000E+01 0.  1.
         13    1    4    4    0    0  0.21772242587E+02  0.19091771914E+02 -0.26123621326E+02  0.38999614014E+02  0.00000000000E+00 0. -1.
        -14    1    4    4    0    0 -0.55401525823E+02 -0.55798460466E+02 -0.21238067377E+03  0.22646930884E+03  0.00000000000E+00 0.  1.
</event>
<event>
12    1  0.8417180E-002  0.1752400E+03  0.7818608E-02  0.1172544E+00
         21   -1    0    0  501  502  0.00000000000E+00  0.00000000000E+00  0.21047474564E+04  0.21047474564E+04  0.00000000000E+00 0.  1.
         21   -1    0    0  502  503 -0.00000000000E+00 -0.00000000000E+00 -0.40426142030E+02  0.40426142030E+02  0.00000000000E+00 0.  1.
         -6    2    1    2    0  503  0.28493617532E+02 -0.12220426224E+02  0.17463755948E+03  0.24740118849E+03  0.17247563835E+03 0.  0.
        -24    2    3    3    0    0 -0.14822999261E+02 -0.52494018384E+02  0.56111923385E+02  0.11485418577E+03  0.84068976264E+02 0.  0.
          6    2    1    2  501    0 -0.28493617532E+02  0.12220426224E+02  0.18896837549E+04  0.18977724099E+04  0.17226201384E+03 0.  0.
         24    2    5    5    0    0  0.49354841083E+02  0.19286594321E+02  0.10465605793E+04  0.10510203255E+04  0.80912332107E+02 0.  0.
          5    1    5    5  501    0 -0.77848458615E+02 -0.70661680967E+01  0.84312317560E+03  0.84675208442E+03  0.47000000000E+01 0. -1.
        -13    1    6    6    0    0  0.11017919137E+02  0.22003867809E+02  0.86898042581E+03  0.86932879004E+03  0.00000000000E+00 0.  1.
         14    1    6    6    0    0  0.38336921947E+02 -0.27172734888E+01  0.17758015346E+03  0.18169153548E+03  0.00000000000E+00 0. -1.
         -5    1    3    3    0  503  0.43316616793E+02  0.40273592160E+02  0.11852563610E+03  0.13254700272E+03  0.47000000000E+01 0.  1.
         13    1    4    4    0    0 -0.99018837795E+01 -0.59072882396E+02  0.73980071244E+02  0.95187728612E+02  0.00000000000E+00 0. -1.
        -14    1    4    4    0    0 -0.49211154813E+01  0.65788640122E+01 -0.17868147859E+02  0.19666457159E+02  0.00000000000E+00 0.  1.
</event>
<event>
12    1  0.8417180E-002  0.2513557E+03  0.7818608E-02  0.1112565E+00
         21   -1    0    0  503  502  0.00000000000E+00  0.00000000000E+00  0.15439792851E+03  0.15439792851E+03  0.00000000000E+00 0. -1.
         21   -1    0    0  501  503 -0.00000000000E+00 -0.00000000000E+00 -0.41027031885E+03  0.41027031885E+03  0.00000000000E+00 0.  1.
          6    2    1    2  501    0 -0.15000567949E+03  0.10461717765E+03 -0.10683584754E+03  0.27244987860E+03  0.17137263578E+03 0.  0.
         24    2    3    3    0    0 -0.16027661964E+03  0.11888006319E+03 -0.12357126368E+03  0.24772971944E+03  0.79240724729E+02 0.  0.
         -6    2    1    2    0  502  0.15000567949E+03 -0.10461717765E+03 -0.14903654281E+03  0.29221836876E+03  0.17243325146E+03 0.  0.
        -24    2    5    5    0    0  0.15500424587E+02 -0.71052344350E+02 -0.34320355782E+02  0.11221793766E+03  0.78270555836E+02 0.  0.
          5    1    3    3  501    0  0.10270940152E+02 -0.14262885549E+02  0.16735416142E+02  0.24720159167E+02  0.47000000000E+01 0. -1.
        -11    1    4    4    0    0 -0.55817300394E+02  0.17217951130E+02 -0.72888491770E+02  0.93406429633E+02  0.00000000000E+00 0.  1.
         12    1    4    4    0    0 -0.10445931925E+03  0.10166211206E+03 -0.50682771911E+02  0.15432328980E+03  0.00000000000E+00 0. -1.
         -5    1    5    5    0  502  0.13450525490E+03 -0.33564833295E+02 -0.11471618703E+03  0.18000043110E+03  0.47000000000E+01 0.  1.
         13    1    6    6    0    0  0.44717503549E+02 -0.60732477764E+02 -0.28869690678E+02  0.80756102053E+02  0.00000000000E+00 0. -1.
        -14    1    6    6    0    0 -0.29217078962E+02 -0.10319866587E+02 -0.54506651037E+01  0.31461835603E+02  0.00000000000E+00 0.  1.
</event>
<event>
12    1  0.8417180E-002  0.2111393E+03  0.7818608E-02  0.1141548E+00
         21   -1    0    0  501  502  0.00000000000E+00  0.00000000000E+00  0.10317303980E+04  0.10317303980E+04  0.00000000000E+00 0. -1.
         21   -1    0    0  502  503 -0.00000000000E+00 -0.00000000000E+00 -0.42335034326E+02  0.42335034326E+02  0.00000000000E+00 0. -1.
         -6    2    1    2    0  503 -0.10245660506E+03 -0.46927678319E+02  0.50346143464E+03  0.54424319073E+03  0.17328494330E+03 0.  0.
        -24    2    3    3    0    0 -0.68214942658E+02 -0.91820759767E+02  0.26886064072E+03  0.30289799663E+03  0.79855005542E+02 0.  0.
          6    2    1    2  501    0  0.10245660506E+03  0.46927678319E+02  0.48593392905E+03  0.52982224161E+03  0.17855044494E+03 0.  0.
         24    2    5    5    0    0  0.10734874582E+03 -0.25794502511E+02  0.27550487127E+03  0.30707815755E+03  0.78771512366E+02 0.  0.
          5    1    5    5  501    0 -0.48921407605E+01  0.72722180830E+02  0.21042905778E+03  0.22274408407E+03  0.47000000000E+01 0. -1.
        -13    1    6    6    0    0  0.68816160878E+02 -0.54062645483E+02  0.16788282320E+03  0.18932267682E+03  0.00000000000E+00 0.  1.
         14    1    6    6    0    0  0.38532584946E+02  0.28268142972E+02  0.10762204807E+03  0.11775548072E+03  0.00000000000E+00 0. -1.
         -5    1    3    3    0  503 -0.34241662406E+02  0.44893081448E+02  0.23460079392E+03  0.24134519410E+03  0.47000000000E+01 0.  1.
         13    1    4    4    0    0 -0.90570718944E+01 -0.47565540946E+02  0.18455697757E+03  0.19080301152E+03  0.00000000000E+00 0. -1.
        -14    1    4    4    0    0 -0.59157870763E+02 -0.44255218822E+02  0.84303663148E+02  0.11209498511E+03  0.00000000000E+00 0.  1.
</event>
<event>
12    1  0.8417180E-002  0.1895697E+03  0.7818608E-02  0.1159465E+00
         21   -1    0    0  501  502  0.00000000000E+00  0.00000000000E+00  0.12913052299E+03  0.12913052299E+03  0.00000000000E+00 0.  1.
         21   -1    0    0  502  503 -0.00000000000E+00 -0.00000000000E+00 -0.28623144210E+03  0.28623144210E+03  0.00000000000E+00 0.  1.
         -6    2    1    2    0  503  0.66463891121E+02 -0.41108846684E+02 -0.35695733242E+02  0.19024888764E+03  0.16974412443E+03 0.  0.
        -24    2    3    3    0    0  0.93816413731E+01 -0.75798704656E+02 -0.51153067083E+02  0.12152633929E+03  0.79489345488E+02 0.  0.
          6    2    1    2  501    0 -0.66463891121E+02  0.41108846684E+02 -0.12140518587E+03  0.22511307745E+03  0.17271158729E+03 0.  0.
         24    2    5    5    0    0 -0.84921208727E+02  0.66863525463E+02 -0.36827832286E+02  0.13467307087E+03  0.71401709060E+02 0.  0.
          5    1    5    5  501    0  0.18457317606E+02 -0.25754678779E+02 -0.84577353579E+02  0.90440006583E+02  0.47000000000E+01 0. -1.
        -13    1    6    6    0    0 -0.54356711742E+02  0.50720700332E+02 -0.57863756742E+02  0.94209638030E+02  0.00000000000E+00 0.  1.
         14    1    6    6    0    0 -0.30564496985E+02  0.16142825131E+02  0.21035924456E+02  0.40463432836E+02  0.00000000000E+00 0. -1.
         -5    1    3    3    0  503  0.57082249748E+02  0.34689857972E+02  0.15457333842E+02  0.68722548351E+02  0.47000000000E+01 0.  1.
         13    1    4    4    0    0  0.66412054372E+01  0.78601804628E+01  0.12629396517E+02  0.16290785830E+02  0.00000000000E+00 0. -1.
        -14    1    4    4    0    0  0.27404359359E+01 -0.83658885119E+02 -0.63782463601E+02  0.10523555346E+03  0.00000000000E+00 0.  1.
</event>
<event>
12    1  0.8417180E-002  0.1916764E+03  0.7818608E-02  0.1157374E+00
         21   -1    0    0  503  502  0.00000000000E+00  0.00000000000E+00  0.75843714801E+02  0.75843714801E+02  0.00000000000E+00 0. -1.
         21   -1    0    0  501  503 -0.00000000000E+00 -0.00000000000E+00 -0.52338857763E+03  0.52338857763E+03  0.00000000000E+00 0. -1.
          6    2    1    2  501    0  0.71088370068E+02  0.41407267462E+02 -0.30930407945E+03  0.36290547492E+03  0.17106505197E+03 0.  0.
         24    2    3    3    0    0  0.49179473964E+02  0.86901129636E+02 -0.26837301649E+03  0.29773544240E+03  0.81559123894E+02 0.  0.
         -6    2    1    2    0  502 -0.71088370068E+02 -0.41407267462E+02 -0.13824078338E+03  0.23632681751E+03  0.17312345978E+03 0.  0.
        -24    2    5    5    0    0 -0.98626693402E+02 -0.21128491785E+02 -0.15196108520E+03  0.19917948009E+03  0.80041589558E+02 0.  0.
          5    1    3    3  501    0  0.21908896104E+02 -0.45493862174E+02 -0.40931062964E+02  0.65170032526E+02  0.47000000000E+01 0. -1.
        -13    1    4    4    0    0 -0.13076710852E+02 -0.75404099654E+01 -0.22547989850E+02  0.27134295558E+02  0.00000000000E+00 0.  1.
         14    1    4    4    0    0  0.62256184816E+02  0.94441539602E+02 -0.24582502664E+03  0.27060114684E+03  0.00000000000E+00 0. -1.
         -5    1    5    5    0  502  0.27538323334E+02 -0.20278775677E+02  0.13720301820E+02  0.37147337415E+02  0.47000000000E+01 0.  1.
         13    1    6    6    0    0 -0.44541166453E+02  0.36512911621E+01 -0.10775023149E+02  0.45971170966E+02  0.00000000000E+00 0. -1.
        -14    1    6    6    0    0 -0.54085526949E+02 -0.24779782947E+02 -0.14118606205E+03  0.15320830913E+03  0.00000000000E+00 0.  1.
</event>
<event>
12    1  0.8417180E-002  0.1831070E+03  0.7818608E-02  0.1165082E+00
         21   -1    0    0  501  502  0.00000000000E+00  0.00000000000E+00  0.75507215683E+03  0.75507215683E+03  0.00000000000E+00 0. -1.
         21   -1    0    0  502  503 -0.00000000000E+00 -0.00000000000E+00 -0.57284268326E+02  0.57284268326E+02  0.00000000000E+00 0. -1.
         -6    2    1    2    0  503 -0.72831145967E+01 -0.62213789040E+02  0.15515897487E+03  0.24000514463E+03  0.17205976480E+03 0.  0.
        -24    2    3    3    0    0  0.59438850035E+02 -0.61455361576E+02  0.10101202203E+03  0.15394482696E+03  0.78650129004E+02 0.  0.
          6    2    1    2  501    0  0.72831145967E+01  0.62213789040E+02  0.54262891364E+03  0.57235128052E+03  0.17092761948E+03 0.  0.
         24    2    5    5    0    0 -0.37535612831E+02  0.89553801875E+02  0.43239195215E+03  0.45016096869E+03  0.79077757817E+02 0.  0.
          5    1    5    5  501    0  0.44818727428E+02 -0.27340012835E+02  0.11023696148E+03  0.12219031184E+03  0.47000000000E+01 0. -1.
        -13    1    6    6    0    0 -0.25230578829E+02  0.10143849022E+03  0.40111401101E+03  0.41451031258E+03  0.00000000000E+00 0.  1.
         14    1    6    6    0    0 -0.12305034002E+02 -0.11884688341E+02  0.31277941139E+02  0.35650656104E+02  0.00000000000E+00 0. -1.
         -5    1    3    3    0  503 -0.66721964631E+02 -0.75842746377E+00  0.54146952835E+02  0.86060317672E+02  0.47000000000E+01 0.  1.
         11    1    4    4    0    0  0.37997963412E+02  0.10775614203E+02  0.24058842421E+02  0.46247021348E+02  0.00000000000E+00 0. -1.
        -12    1    4    4    0    0  0.21440886623E+02 -0.72230975778E+02  0.76953179613E+02  0.10769780561E+03  0.00000000000E+00 0.  1.
</event>
<event>
12    1  0.8417180E-002  0.2048986E+03  0.7818608E-02  0.1145696E+00
         21   -1    0    0  501  502  0.00000000000E+00  0.00000000000E+00  0.29993022664E+03  0.29993022664E+03  0.00000000000E+00 0.  1.
         21   -1    0    0  502  503 -0.00000000000E+00 -0.00000000000E+00 -0.41280930525E+03  0.41280930525E+03  0.00000000000E+00 0.  1.
         -6    2    1    2    0  503 -0.98666380129E+02 -0.48281879699E+02 -0.34620681811E+03  0.40229667618E+03  0.17296606685E+03 0.  0.
        -24    2    3    3    0    0 -0.17538326474E+02 -0.42787059970E+01 -0.27054082363E+03  0.28285852019E+03  0.80564911539E+02 0.  0.
          6    2    1    2  501    0  0.98666380129E+02  0.48281879699E+02  0.23332773950E+03  0.31044285571E+03  0.17281995883E+03 0.  0.
         24    2    5    5    0    0  0.72246604499E+02  0.89846340785E+02  0.11198123845E+03  0.17939831258E+03  0.79699560700E+02 0.  0.
          5    1    5    5  501    0  0.26419775630E+02 -0.41564461086E+02  0.12134650104E+03  0.13104454313E+03  0.47000000000E+01 0. -1.
        -13    1    6    6    0    0  0.10786456730E+02  0.72329535659E+02  0.78372334210E+02  0.10719203397E+03  0.00000000000E+00 0.  1.
         14    1    6    6    0    0  0.61460147770E+02  0.17516805126E+02  0.33608904245E+02  0.72206278607E+02  0.00000000000E+00 0. -1.
         -5    1    3    3    0  503 -0.81128053656E+02 -0.44003173702E+02 -0.75665994479E+02  0.11943815599E+03  0.47000000000E+01 0.  1.
         11    1    4    4    0    0  0.85406175709E+01 -0.99635653318E+00  0.21827285704E+01  0.88712557649E+01  0.00000000000E+00 0. -1.
        -12    1    4    4    0    0 -0.26078944045E+02 -0.32823494638E+01 -0.27272355220E+03  0.27398726442E+03  0.00000000000E+00 0.  1.
</event>
<event>
12    1  0.8417180E-002  0.2105940E+03  0.7818608E-02  0.1141164E+00
         21   -1    0    0  501  502  0.00000000000E+00  0.00000000000E+00  0.44462521837E+03  0.44462521837E+03  0.00000000000E+00 0.  1.
         21   -1    0    0  502  503 -0.00000000000E+00 -0.00000000000E+00 -0.12953963217E+03  0.12953963217E+03  0.00000000000E+00 0. -1.
         -6    2    1    2    0  503  0.79203164446E+02  0.92157939780E+02  0.19395290926E+02  0.21114614384E+03  0.17158172871E+03 0.  0.
        -24    2    3    3    0    0  0.87911651812E+02  0.58564704691E+02 -0.43358146799E+02  0.13928219501E+03  0.79757869784E+02 0.  0.
          6    2    1    2  501    0 -0.79203164446E+02 -0.92157939780E+02  0.29569029527E+03  0.36301870670E+03  0.17199884759E+03 0.  0.
         24    2    5    5    0    0 -0.38286929178E+02 -0.11926178780E+03  0.16320423613E+03  0.22165604277E+03  0.82501609870E+02 0.  0.
          5    1    5    5  501    0 -0.40916235268E+02  0.27103848019E+02  0.13248605914E+03  0.14136266393E+03  0.47000000000E+01 0. -1.
        -11    1    6    6    0    0 -0.63742539648E+02 -0.78737128872E+02  0.12136643326E+03  0.15809003114E+03  0.00000000000E+00 0.  1.
         12    1    6    6    0    0  0.25455610470E+02 -0.40524658926E+02  0.41837802868E+02  0.63566011628E+02  0.00000000000E+00 0. -1.
         -5    1    3    3    0  503 -0.87084873659E+01  0.33593235089E+02  0.62753437726E+02  0.71863948836E+02  0.47000000000E+01 0.  1.
         13    1    4    4    0    0  0.32247898812E+02  0.67814062531E+02 -0.32487930598E+02  0.81817722342E+02  0.00000000000E+00 0. -1.
        -14    1    4    4    0    0  0.55663753000E+02 -0.92493578401E+01 -0.10870216201E+02  0.57464472666E+02  0.00000000000E+00 0.  1.
</event>
<event>
12    1  0.8417180E-002  0.2011697E+03  0.7818608E-02  0.1149281E+00
         21   -1    0    0  503  502  0.00000000000E+00  0.00000000000E+00  0.19380196779E+02  0.19380196779E+02  0.00000000000E+00 0.  1.
         21   -1    0    0  501  503 -0.00000000000E+00 -0.00000000000E+00 -0.20647762783E+04  0.20647762783E+04  0.00000000000E+00 0. -1.
          6    2    1    2  501    0 -0.32111097786E+02 -0.93403085645E+02 -0.98083007829E+03  0.10007497993E+04  0.17238694672E+03 0.  0.
         24    2    3    3    0    0  0.19620686415E+01 -0.69373699468E+02 -0.92452435294E+03  0.93053002451E+03  0.79525388669E+02 0.  0.
         -6    2    1    2    0  502  0.32111097786E+02  0.93403085645E+02 -0.10645660033E+04  0.10834066758E+04  0.17525407494E+03 0.  0.
        -24    2    5    5    0    0  0.81861159128E+02  0.75005376938E+02 -0.89829336219E+03  0.90881507958E+03  0.81773029643E+02 0.  0.
          5    1    3    3  501    0 -0.34073166427E+02 -0.24029386177E+02 -0.56305725346E+02  0.70219774830E+02  0.47000000000E+01 0. -1.
        -13    1    4    4    0    0 -0.10454245420E+02 -0.95163675886E+01 -0.23430720242E+02  0.27365144809E+02  0.00000000000E+00 0.  1.
         14    1    4    4    0    0  0.12416314061E+02 -0.59857331879E+02 -0.90109363270E+03  0.90316487970E+03  0.00000000000E+00 0. -1.
         -5    1    5    5    0  502 -0.49750061342E+02  0.18397708707E+02 -0.16627264108E+03  0.17459159619E+03  0.47000000000E+01 0.  1.
         11    1    6    6    0    0  0.57818477860E+02  0.50028802633E+02 -0.30246739529E+03  0.31198138195E+03  0.00000000000E+00 0. -1.
        -12    1    6    6    0    0  0.24042681268E+02  0.24976574305E+02 -0.59582596691E+03  0.59683369763E+03  0.00000000000E+00 0.  1.
</event>
<event>
12    1  0.8417180E-002  0.2052510E+03  0.7818608E-02  0.1145424E+00
         21   -1    0    0  501  502  0.00000000000E+00  0.00000000000E+00  0.10225235910E+04  0.10225235910E+04  0.00000000000E+00 0.  1.
         21   -1    0    0  502  503 -0.00000000000E+00 -0.00000000000E+00 -0.55365130345E+02  0.55365130345E+02  0.00000000000E+00 0.  1.
         -6    2    1    2    0  503 -0.45411421162E+02  0.10084262279E+03  0.21076030056E+03  0.29419023139E+03  0.17290620639E+03 0.  0.
        -24    2    3    3    0    0  0.57599178257E+01  0.14538911178E+01  0.77534378569E+02  0.12021361742E+03  0.91675751972E+02 0.  0.
          6    2    1    2  501    0  0.45411421162E+02 -0.10084262279E+03  0.75639816006E+03  0.78369848992E+03  0.17266648437E+03 0.  0.
         24    2    5    5    0    0  0.60787863725E+02 -0.92335120727E+02  0.75288666787E+03  0.76517193723E+03  0.80179922480E+02 0.  0.
          5    1    5    5  501    0 -0.15376442563E+02 -0.85075020646E+01  0.35114921847E+01  0.18526552692E+02  0.47000000000E+01 0. -1.
        -11    1    6    6    0    0 -0.24672056466E+01 -0.63190060523E+02  0.44736748732E+03  0.45181493950E+03  0.00000000000E+00 0.  1.
         12    1    6    6    0    0  0.63255069372E+02 -0.29145060204E+02  0.30551918056E+03  0.31335699773E+03  0.00000000000E+00 0. -1.
         -5    1    3    3    0  503 -0.51171338988E+02  0.99388731674E+02  0.13322592199E+03  0.17397661397E+03  0.47000000000E+01 0.  1.
         13    1    4    4    0    0 -0.33346570231E+02  0.42158022099E+01  0.73477427550E+02  0.80800365679E+02  0.00000000000E+00 0. -1.
        -14    1    4    4    0    0  0.39106488056E+02 -0.27619110921E+01  0.40569510189E+01  0.39413251738E+02  0.00000000000E+00 0.  1.
</event>
<event>
12    1  0.8417180E-002  0.2159927E+03  0.7818608E-02  0.1137188E+00
         21   -1    0    0  501  502  0.00000000000E+00  0.00000000000E+00  0.68695724413E+02  0.68695724413E+02  0.00000000000E+00 0.  1.
         21   -1    0    0  502  503 -0.00000000000E+00 -0.00000000000E+00 -0.20508649228E+04  0.20508649228E+04  0.00000000000E+00 0.  1.
         -6    2    1    2    0  503 -0.12914512677E+03  0.69211986794E+01 -0.18581557480E+04  0.18704980741E+04  0.17115459321E+03 0.  0.
        -24    2    3    3    0    0 -0.30205038029E+02  0.50651345560E+02 -0.11364790607E+04  0.11407441444E+04  0.78959765446E+02 0.  0.
          6    2    1    2  501    0  0.12914512677E+03 -0.69211986794E+01 -0.12401345043E+03  0.24906257312E+03  0.17299266655E+03 0.  0.
         24    2    5    5    0    0  0.15277180059E+03  0.11354386522E+02 -0.68917024590E+02  0.18621416128E+03  0.80361759777E+02 0.  0.
          5    1    5    5  501    0 -0.23626673819E+02 -0.18275585201E+02 -0.55096425843E+02  0.62848411841E+02  0.47000000000E+01 0. -1.
        -11    1    6    6    0    0  0.13205101849E+03  0.26212175830E+01 -0.86317672700E+02  0.15778175714E+03  0.00000000000E+00 0.  1.
         12    1    6    6    0    0  0.20720782094E+02  0.87331689387E+01  0.17400648110E+02  0.28432404136E+02  0.00000000000E+00 0. -1.
         -5    1    3    3    0  503 -0.98940088738E+02 -0.43730146881E+02 -0.72167668733E+03  0.72975392972E+03  0.47000000000E+01 0.  1.
         13    1    4    4    0    0 -0.70498963977E+01 -0.66208760746E+01 -0.16974189158E+02  0.19536123893E+02  0.00000000000E+00 0. -1.
        -14    1    4    4    0    0 -0.23155141631E+02  0.57272221635E+02 -0.11195048715E+04  0.11212080205E+04  0.00000000000E+00 0.  1.
</event>
<event>
12    1  0.8417180E-002  0.2551437E+03  0.7818608E-02  0.1110655E+00
         21   -1    0    0  501  502  0.00000000000E+00  0.00000000000E+00  0.15280911915E+04  0.15280911915E+04  0.00000000000E+00 0.  1.
         21   -1    0    0  502  503 -0.00000000000E+00 -0.00000000000E+00 -0.16609937808E+03  0.16609937808E+03  0.00000000000E+00 0.  1.
         -6    2    1    2    0  503  0.15328422488E+03  0.10601354376E+03 -0.49975267279E+02  0.25999197341E+03  0.17425089337E+03 0.  0.
        -24    2    3    3    0    0  0.13622346579E+03  0.63004026773E+02  0.24595975346E+02  0.17210654641E+03  0.80556571998E+02 0.  0.
          6    2    1    2  501    0 -0.15328422488E+03 -0.10601354376E+03  0.14119670807E+04  0.14341985961E+04  0.16893682609E+03 0.  0.
         24    2    5    5    0    0 -0.68492508013E+02 -0.61404105666E+01  0.37614463895E+03  0.39011311172E+03  0.77295033708E+02 0.  0.
          5    1    5    5  501    0 -0.84791716865E+02 -0.99873133193E+02  0.10358224417E+04  0.10440854844E+04  0.47000000000E+01 0. -1.
        -13    1    6    6    0    0 -0.18855748436E+02 -0.38377075384E+02  0.19145259295E+03  0.19616940259E+03  0.00000000000E+00 0.  1.
         14    1    6    6    0    0 -0.49636759577E+02  0.32236664818E+02  0.18469204600E+03  0.19394370914E+03  0.00000000000E+00 0. -1.
         -5    1    3    3    0  503  0.17060759089E+02  0.43009516987E+02 -0.74571242626E+02  0.87885427000E+02  0.47000000000E+01 0.  1.
         11    1    4    4    0    0  0.15277460740E+01  0.31499913733E+02 -0.37859929317E+00  0.31539212271E+02  0.00000000000E+00 0. -1.
        -12    1    4    4    0    0  0.13469571971E+03  0.31504113040E+02  0.24974574640E+02  0.14056733414E+03  0.00000000000E+00 0.  1.
</event>
<event>
12    1  0.8417180E-002  0.3227223E+03  0.7818608E-02  0.1074905E+00
         21   -1    0    0  503  502  0.00000000000E+00  0.00000000000E+00  0.99484945291E+03  0.99484945291E+03  0.00000000000E+00 0. -1.
         21   -1    0    0  501  503 -0.00000000000E+00 -0.00000000000E+00 -0.24107339354E+03  0.24107339354E+03  0.00000000000E+00 0.  1.
          6    2    1    2  501    0 -0.27079046045E+03 -0.15560794771E+02 -0.89212959539E+02  0.33482629625E+03  0.17487162351E+03 0.  0.
         24    2    3    3    0    0 -0.27272059411E+03 -0.13939573337E+02 -0.11622681143E+03  0.30729101037E+03  0.79675963737E+02 0.  0.
         -6    2    1    2    0  502  0.27079046045E+03  0.15560794771E+02  0.84298901890E+03  0.90109655020E+03  0.16665801808E+03 0.  0.
        -24    2    5    5    0    0  0.26530037626E+03  0.25815880828E+02  0.84391570458E+03  0.88851654381E+03  0.78849114413E+02 0.  0.
          5    1    3    3  501    0  0.19301336687E+01 -0.16212214337E+01  0.27013851891E+02  0.27535285887E+02  0.47000000000E+01 0. -1.
        -11    1    4    4    0    0 -0.90964899403E+02  0.23337938631E+02 -0.66910865874E+02  0.11530974059E+03  0.00000000000E+00 0.  1.
         12    1    4    4    0    0 -0.18175569471E+03 -0.37277511968E+02 -0.49315945555E+02  0.19198126978E+03  0.00000000000E+00 0. -1.
         -5    1    5    5    0  502  0.54900841860E+01 -0.10255086058E+02 -0.92668567646E+00  0.12580006390E+02  0.47000000000E+01 0.  1.
         13    1    6    6    0    0  0.15042604574E+03 -0.23476870384E+02  0.49501840754E+03  0.51790190430E+03  0.00000000000E+00 0. -1.
        -14    1    6    6    0    0  0.11487433052E+03  0.49292751212E+02  0.34889729704E+03  0.37061463951E+03  0.00000000000E+00 0.  1.
</event>
<event>
12    1  0.8417180E-002  0.1868080E+03  0.7818608E-02  0.1162183E+00
         21   -1    0    0  501  502  0.00000000000E+00  0.00000000000E+00  0.10945345788E+04  0.10945345788E+04  0.00000000000E+00 0.  1.
         21   -1    0    0  502  503 -0.00000000000E+00 -0.00000000000E+00 -0.55243750098E+02  0.55243750098E+02  0.00000000000E+00 0.  1.
         -6    2    1    2    0  503 -0.23091082412E+02 -0.57514672121E+02  0.13834510439E+03  0.22966940255E+03  0.17253269535E+03 0.  0.
        -24    2    3    3    0    0 -0.81207474164E+02 -0.48072440548E+02  0.82782466058E+02  0.14857706318E+03  0.79477000543E+02 0.  0.
          6    2    1    2  501    0  0.23091082412E+02  0.57514672121E+02  0.90094572431E+03  0.92010892634E+03  0.17622741723E+03 0.  0.
         24    2    5    5    0    0 -0.39980037892E+02 -0.10317919258E+02  0.49313143318E+03  0.50188193926E+03  0.83677999987E+02 0.  0.
          5    1    5    5  501    0  0.63071120304E+02  0.67832591378E+02  0.40781429113E+03  0.41822698707E+03  0.47000000000E+01 0. -1.
        -13    1    6    6    0    0  0.21682840681E+02  0.16777888730E+01  0.24344352188E+03  0.24441298840E+03  0.00000000000E+00 0.  1.
         14    1    6    6    0    0 -0.61662878572E+02 -0.11995708131E+02  0.24968791130E+03  0.25746895086E+03  0.00000000000E+00 0. -1.
         -5    1    3    3    0  503  0.58116391752E+02 -0.94422315723E+01  0.55562638331E+02  0.81092339377E+02  0.47000000000E+01 0.  1.
         13    1    4    4    0    0 -0.25931470200E+02 -0.34755038112E+02  0.80781465988E+02  0.91684235658E+02  0.00000000000E+00 0. -1.
        -14    1    4    4    0    0 -0.55276003964E+02 -0.13317402436E+02  0.20010000695E+01  0.56892827519E+02  0.00000000000E+00 0.  1.
</event>
<event>
12    1  0.8417180E-002  0.2261535E+03  0.7818608E-02  0.1129430E+00
         21   -1    0    0  503  502  0.00000000000E+00  0.00000000000E+00  0.78318187675E+02  0.78318187675E+02  0.00000000000E+00 0. -1.
         21   -1    0    0  501  503 -0.00000000000E+00 -0.00000000000E+00 -0.68648771999E+03  0.68648771999E+03  0.00000000000E+00 0.  1.
          6    2    1    2  501    0 -0.40902506167E+02 -0.14082218493E+03 -0.38975449628E+03  0.45061513018E+03  0.17216714377E+03 0.  0.
         24    2    3    3    0    0 -0.77343524968E+01 -0.88888390307E+02 -0.36501656264E+03  0.38404711382E+03  0.79335543648E+02 0.  0.
         -6    2    1    2    0  502  0.40902506167E+02  0.14082218493E+03 -0.21841503603E+03  0.31419077749E+03  0.17177547530E+03 0.  0.
        -24    2    5    5    0    0  0.29623037340E+02  0.17060398840E+03 -0.16405033212E+03  0.25101013752E+03  0.78168615625E+02 0.  0.
          5    1    3    3  501    0 -0.33168153670E+02 -0.51933794620E+02 -0.24737933638E+02  0.66568016361E+02  0.47000000000E+01 0. -1.
        -13    1    4    4    0    0 -0.28630647970E+02 -0.93678428834E+02 -0.29904398025E+03  0.31467866810E+03  0.00000000000E+00 0.  1.
         14    1    4    4    0    0  0.20896295473E+02  0.47900385275E+01 -0.65972582397E+02  0.69368445721E+02  0.00000000000E+00 0. -1.
         -5    1    5    5    0  502  0.11279468827E+02 -0.29781803477E+02 -0.54364703917E+02  0.63180639972E+02  0.47000000000E+01 0.  1.
         13    1    6    6    0    0 -0.30979267946E+01  0.56551778719E+02 -0.11574781233E+02  0.57807234731E+02  0.00000000000E+00 0. -1.
        -14    1    6    6    0    0  0.32720964134E+02  0.11405220968E+03 -0.15247555088E+03  0.19320290279E+03  0.00000000000E+00 0.  1.
</event>
<event>
12    1  0.8417180E-002  0.2031276E+03  0.7818608E-02  0.1148366E+00
         21   -1    0    0  503  502  0.00000000000E+00  0.00000000000E+00  0.27356805937E+03  0.27356805937E+03  0.00000000000E+00 0. -1.
         21   -1    0    0  501  503 -0.00000000000E+00 -0.00000000000E+00 -0.73281912348E+03  0.73281912348E+03  0.00000000000E+00 0. -1.
          6    2    1    2  501    0 -0.95080480849E+02 -0.10609228890E+02 -0.67904300313E+03  0.70710585246E+03  0.17247154232E+03 0.  0.
         24    2    3    3    0    0  0.10388473001E+00  0.38088210260E+02 -0.36335327291E+03  0.37376878612E+03  0.78909961297E+02 0.  0.
         -6    2    1    2    0  502  0.95080480849E+02  0.10609228890E+02  0.21979193902E+03  0.29928133039E+03  0.17918695457E+03 0.  0.
        -24    2    5    5    0    0  0.14786269568E+02 -0.12654055473E+02  0.36601647148E+02  0.97863570997E+02  0.88650093439E+02 0.  0.
          5    1    3    3  501    0 -0.95184365579E+02 -0.48697439150E+02 -0.31568973022E+03  0.33333706634E+03  0.47000000000E+01 0. -1.
        -11    1    4    4    0    0 -0.50894465531E+01 -0.19020313571E+00  0.26441348252E+01  0.57384747471E+01  0.00000000000E+00 0.  1.
         12    1    4    4    0    0  0.51933312831E+01  0.38278413396E+02 -0.36599740774E+03  0.36803031138E+03  0.00000000000E+00 0. -1.
         -5    1    5    5    0  502  0.80294211281E+02  0.23263284362E+02  0.18319029187E+03  0.20141775940E+03  0.47000000000E+01 0.  1.
         11    1    6    6    0    0  0.31337598062E+02 -0.43811760691E+02  0.30975125527E+02  0.62136734936E+02  0.00000000000E+00 0. -1.
        -12    1    6    6    0    0 -0.16551328494E+02  0.31157705218E+02  0.56265216212E+01  0.35726836061E+02  0.00000000000E+00 0.  1.
</event>
<event>
12    1  0.8417180E-002  0.2299678E+03  0.7818608E-02  0.1126992E+00
         21   -1    0    0  501  502  0.00000000000E+00  0.00000000000E+00  0.16036878746E+03  0.16036878746E+03  0.00000000000E+00 0. -1.
         21   -1    0    0  502  503 -0.00000000000E+00 -0.00000000000E+00 -0.56726959661E+03  0.56726959661E+03  0.00000000000E+00 0. -1.
         -6    2    1    2    0  503 -0.15032025046E+03  0.23989448727E+02 -0.43969686234E+03  0.49534383495E+03  0.16988382125E+03 0.  0.
        -24    2    3    3    0    0 -0.37638271699E+02  0.61665913926E+02 -0.16698237509E+03  0.19783412768E+03  0.77691080858E+02 0.  0.
          6    2    1    2  501    0  0.15032025046E+03 -0.23989448727E+02  0.32796053192E+02  0.23229454912E+03  0.17237605721E+03 0.  0.
         24    2    5    5    0    0  0.18909666215E+02 -0.24742756900E+02  0.49429782946E+02  0.99749914789E+02  0.80851484605E+02 0.  0.
          5    1    5    5  501    0  0.13141058425E+03  0.75330817310E+00 -0.16633729754E+02  0.13254463433E+03  0.47000000000E+01 0. -1.
        -13    1    6    6    0    0 -0.19411269099E+02 -0.38001150236E+02  0.11426106881E+02  0.44175114100E+02  0.00000000000E+00 0.  1.
         14    1    6    6    0    0  0.38320935314E+02  0.13258393335E+02  0.38003676066E+02  0.55574800689E+02  0.00000000000E+00 0. -1.
         -5    1    3    3    0  503 -0.11268197876E+03 -0.37676465199E+02 -0.27271448725E+03  0.29750970727E+03  0.47000000000E+01 0.  1.
         11    1    4    4    0    0 -0.51419820970E+02  0.98367566665E+01 -0.78019540357E+02  0.93956417811E+02  0.00000000000E+00 0. -1.
        -12    1    4    4    0    0  0.13781549272E+02  0.51829157259E+02 -0.88962834737E+02  0.10387770987E+03  0.00000000000E+00 0.  1.
</event>
<event>
12    1  0.8417180E-002  0.1951003E+03  0.7818608E-02  0.1155723E+00
         21   -1    0    0  501  502  0.00000000000E+00  0.00000000000E+00  0.83745775913E+02  0.83745775913E+02  0.00000000000E+00 0.  1.
         21   -1    0    0  502  503 -0.00000000000E+00 -0.00000000000E+00 -0.49967096687E+03  0.49967096687E+03  0.00000000000E+00 0.  1.
         -6    2    1    2    0  503  0.20062736296E+02 -0.71168898693E+02 -0.31582004673E+03  0.37122290905E+03  0.18054534265E+03 0.  0.
        -24    2    3    3    0    0  0.71563078591E+02  0.41740400074E+00 -0.16102169278E+03  0.19300533310E+03  0.78750394385E+02 0.  0.
          6    2    1    2  501    0 -0.20062736296E+02  0.71168898693E+02 -0.10010514422E+03  0.21219383373E+03  0.17186523106E+03 0.  0.
         24    2    5    5    0    0  0.33909960371E+01  0.11088095736E+03 -0.92611054148E+02  0.16523239690E+03  0.80117738824E+02 0.  0.
          5    1    5    5  501    0 -0.23453732333E+02 -0.39712058668E+02 -0.74940900740E+01  0.46961436839E+02  0.47000000000E+01 0. -1.
        -11    1    6    6    0    0 -0.17567886126E+02  0.10863550802E+03 -0.57205829449E+02  0.12402746127E+03  0.00000000000E+00 0.  1.
         12    1    6    6    0    0  0.20958882163E+02  0.22454493431E+01 -0.35405224699E+02  0.41204935630E+02  0.00000000000E+00 0. -1.
         -5    1    3    3    0  503 -0.51500342295E+02 -0.71586302693E+02 -0.15479835395E+03  0.17821757595E+03  0.47000000000E+01 0.  1.
         13    1    4    4    0    0  0.42318299660E+02  0.38964235683E+02 -0.96707513285E+02  0.11252285667E+03  0.00000000000E+00 0. -1.
        -14    1    4    4    0    0  0.29244778931E+02 -0.38546831682E+02 -0.64314179496E+02  0.80482476427E+02  0.00000000000E+00 0.  1.
</event>
<event>
12    1  0.8417180E-002  0.1812296E+03  0.7818608E-02  0.1167897E+00
         21   -1    0    0  501  502  0.00000000000E+00  0.00000000000E+00  0.55814171938E+03  0.55814171938E+03  0.00000000000E+00 0.  1.
         21   -1    0    0  502  503 -0.00000000000E+00 -0.00000000000E+00 -0.57455924334E+02  0.57455924334E+02  0.00000000000E+00 0.  1.
         -6    2    1    2    0  503 -0.31590838562E+02  0.31931015861E+02  0.23169206521E+03  0.29415198648E+03  0.17557507573E+03 0.  0.
        -24    2    3    3    0    0 -0.81868924396E+02  0.44523699281E+02  0.19732880550E+03  0.23178705075E+03  0.78113371691E+02 0.  0.
          6    2    1    2  501    0  0.31590838562E+02 -0.31931015861E+02  0.26899372984E+03  0.32144565724E+03  0.17015320451E+03 0.  0.
         24    2    5    5    0    0 -0.43871691069E+02 -0.23738337225E+02  0.19087336814E+03  0.21241999845E+03  0.78748835830E+02 0.  0.
          5    1    5    5  501    0  0.75462529631E+02 -0.81926786364E+01  0.78120361703E+02  0.10902565879E+03  0.47000000000E+01 0. -1.
        -11    1    6    6    0    0 -0.55280970918E+02 -0.43387851334E+02  0.13770428869E+03  0.15459936129E+03  0.00000000000E+00 0.  1.
         12    1    6    6    0    0  0.11409279849E+02  0.19649514110E+02  0.53169079449E+02  0.57820637154E+02  0.00000000000E+00 0. -1.
         -5    1    3    3    0  503  0.50278085835E+02 -0.12592683420E+02  0.34363259711E+02  0.62364935732E+02  0.47000000000E+01 0.  1.
         11    1    4    4    0    0 -0.80338202373E+02  0.19799469889E+02  0.18784735220E+03  0.20526293746E+03  0.00000000000E+00 0. -1.
        -12    1    4    4    0    0 -0.15307220234E+01  0.24724229392E+02  0.94814532989E+01  0.26524113286E+02  0.00000000000E+00 0.  1.
</event>
<event>
12    1  0.8417180E-002  0.2098202E+03  0.7818608E-02  0.1141781E+00
         21   -1    0    0  503  502  0.00000000000E+00  0.00000000000E+00  0.62606273461E+03  0.62606273461E+03  0.00000000000E+00 0.  1.
         21   -1    0    0  501  503 -0.00000000000E+00 -0.00000000000E+00 -0.73061202724E+02  0.73061202724E+02  0.00000000000E+00 0. -1.
          6    2    1    2  501    0  0.55196104276E+02  0.10530930305E+03  0.20706864057E+03  0.29453267796E+03  0.17243960463E+03 0.  0.
         24    2    3    3    0    0 -0.12962841303E+02  0.19922998071E+02  0.11518497166E+03  0.15170004320E+03  0.95814217650E+02 0.  0.
         -6    2    1    2    0  502 -0.55196104276E+02 -0.10530930305E+03  0.34593289132E+03  0.40459125938E+03  0.17288106497E+03 0.  0.
        -24    2    5    5    0    0 -0.67725797134E+02 -0.90594226988E+02  0.14774867611E+03  0.20541144155E+03  0.87006272582E+02 0.  0.
          5    1    3    3  501    0  0.68158945578E+02  0.85386304983E+02  0.91883668905E+02  0.14283263476E+03  0.47000000000E+01 0. -1.
        -13    1    4    4    0    0  0.13716862692E+02  0.68577079540E+01  0.12054221774E+03  0.12151381295E+03  0.00000000000E+00 0.  1.
         14    1    4    4    0    0 -0.26679703994E+02  0.13065290117E+02 -0.53572460793E+01  0.30186230249E+02  0.00000000000E+00 0. -1.
         -5    1    5    5    0  502  0.12529692858E+02 -0.14715076067E+02  0.19818421522E+03  0.19917981782E+03  0.47000000000E+01 0.  1.
         11    1    6    6    0    0 -0.18419017855E+02  0.88135208494E+01 -0.26644485598E+00  0.20420807070E+02  0.00000000000E+00 0. -1.
        -12    1    6    6    0    0 -0.49306779278E+02 -0.99407747837E+02  0.14801512096E+03  0.18499063448E+03  0.00000000000E+00 0.  1.
</event>
<event>
12    1  0.8417180E-002  0.1875987E+03  0.7818608E-02  0.1160774E+00
         21   -1    0    0  503  502  0.00000000000E+00  0.00000000000E+00  0.78807094816E+02  0.78807094816E+02  0.00000000000E+00 0.  1.
         21   -1    0    0  501  503 -0.00000000000E+00 -0.00000000000E+00 -0.80733183193E+03  0.80733183193E+03  0.00000000000E+00 0.  1.
          6    2    1    2  501    0 -0.64330894452E+02 -0.37728621796E+02 -0.66068739870E+03  0.68665165402E+03  0.17152475703E+03 0.  0.
         24    2    3    3    0    0 -0.29049469089E+02 -0.63281625182E+02 -0.22448454693E+03  0.24825371509E+03  0.79925962660E+02 0.  0.
         -6    2    1    2    0  502  0.64330894452E+02  0.37728621796E+02 -0.67837338411E+02  0.19948727273E+03  0.17213760372E+03 0.  0.
        -24    2    5    5    0    0  0.82228531468E+02  0.47054320585E+02  0.33075552565E+01  0.12538612589E+03  0.82067656052E+02 0.  0.
          5    1    3    3  501    0 -0.35281425364E+02  0.25553003385E+02 -0.43620285178E+03  0.43839793893E+03  0.47000000000E+01 0. -1.
        -13    1    4    4    0    0 -0.63171199740E+01 -0.38008272388E+02 -0.20597630027E+03  0.20954897052E+03  0.00000000000E+00 0.  1.
         14    1    4    4    0    0 -0.22732349114E+02 -0.25273352793E+02 -0.18508246658E+02  0.38704744568E+02  0.00000000000E+00 0. -1.
         -5    1    5    5    0  502 -0.17897637015E+02 -0.93256987890E+01 -0.71144893667E+02  0.74101146844E+02  0.47000000000E+01 0.  1.
         13    1    6    6    0    0  0.64689219337E+02 -0.38612348356E+00 -0.22642758847E+02  0.68538592909E+02  0.00000000000E+00 0. -1.
        -14    1    6    6    0    0  0.17539312131E+02  0.47440444069E+02  0.25950314104E+02  0.56847532977E+02  0.00000000000E+00 0.  1.
</event>
<event>
12    1  0.8417180E-002  0.1872064E+03  0.7818608E-02  0.1163663E+00
         21   -1    0    0  501  502  0.00000000000E+00  0.00000000000E+00  0.41511667951E+02  0.41511667951E+02  0.00000000000E+00 0. -1.
         21   -1    0    0  502  503 -0.00000000000E+00 -0.00000000000E+00 -0.12346731684E+04  0.12346731684E+04  0.00000000000E+00 0. -1.
         -6    2    1    2    0  503 -0.13932644254E+02 -0.14969420621E+01 -0.96561102570E+03  0.98152326654E+03  0.17546199130E+03 0.  0.
        -24    2    3    3    0    0  0.36015357386E+02  0.49752110489E+02 -0.49623342210E+03  0.50669835879E+03  0.81995360402E+02 0.  0.
          6    2    1    2  501    0  0.13932644254E+02  0.14969420621E+01 -0.22755047478E+03  0.29466156984E+03  0.18668117944E+03 0.  0.
         24    2    5    5    0    0 -0.16977159075E+02 -0.69573327383E+02 -0.15273690542E+03  0.18683968291E+03  0.80323303095E+02 0.  0.
          5    1    5    5  501    0  0.30909803329E+02  0.71070269445E+02 -0.74813569362E+02  0.10782188693E+03  0.47000000000E+01 0. -1.
        -11    1    6    6    0    0 -0.17348966488E+02 -0.12205414387E+00 -0.94858760146E+02  0.96432286667E+02  0.00000000000E+00 0.  1.
         12    1    6    6    0    0  0.37180741381E+00 -0.69451273239E+02 -0.57878145270E+02  0.90407396242E+02  0.00000000000E+00 0. -1.
         -5    1    3    3    0  503 -0.49948001640E+02 -0.51249052551E+02 -0.46937760360E+03  0.47482490775E+03  0.47000000000E+01 0.  1.
         13    1    4    4    0    0 -0.47315453176E+01 -0.20586274729E+02 -0.96965514927E+02  0.99239575338E+02  0.00000000000E+00 0. -1.
        -14    1    4    4    0    0  0.40746902704E+02  0.70338385217E+02 -0.39926790717E+03  0.40745878345E+03  0.00000000000E+00 0.  1.
</event>
<event>
12    1  0.8417180E-002  0.4170363E+03  0.7818608E-02  0.1038072E+00
         21   -1    0    0  501  502  0.00000000000E+00  0.00000000000E+00  0.77101619436E+03  0.77101619436E+03  0.00000000000E+00 0. -1.
         21   -1    0    0  502  503 -0.00000000000E+00 -0.00000000000E+00 -0.27526447647E+03  0.27526447647E+03  0.00000000000E+00 0.  1.
         -6    2    1    2    0  503  0.11614558753E+03  0.36217453260E+03  0.24958650655E+02  0.41734077402E+03  0.16997116769E+03 0.  0.
        -24    2    3    3    0    0 -0.79554726005E+01  0.11305973537E+03  0.20105378461E+02  0.13894375611E+03  0.77816115387E+02 0.  0.
          6    2    1    2  501    0 -0.11614558753E+03 -0.36217453260E+03  0.47079306723E+03  0.62893989681E+03  0.17105289263E+03 0.  0.
         24    2    5    5    0    0 -0.65656254926E+02 -0.34131734765E+03  0.36832254590E+03  0.51272246003E+03  0.80090870765E+02 0.  0.
          5    1    5    5  501    0 -0.50489332604E+02 -0.20857184954E+02  0.10247052133E+03  0.11621743678E+03  0.47000000000E+01 0. -1.
        -13    1    6    6    0    0 -0.68640563968E+02 -0.16783140923E+03  0.21421724285E+03  0.28065625965E+03  0.00000000000E+00 0.  1.
         14    1    6    6    0    0  0.29843090418E+01 -0.17348593841E+03  0.15410530305E+03  0.23206620037E+03  0.00000000000E+00 0. -1.
         -5    1    3    3    0  503  0.12410106013E+03  0.24911479723E+03  0.48532721939E+01  0.27839701790E+03  0.47000000000E+01 0.  1.
         13    1    4    4    0    0 -0.12097492076E+02  0.98812281131E+02  0.45560170997E+02  0.10948034252E+03  0.00000000000E+00 0. -1.
        -14    1    4    4    0    0  0.41420194753E+01  0.14247454237E+02 -0.25454792536E+02  0.29463413594E+02  0.00000000000E+00 0.  1.
</event>
<event>
12    1  0.8417180E-002  0.3004281E+03  0.7818608E-02  0.1085189E+00
         21   -1    0    0  501  502  0.00000000000E+00  0.00000000000E+00  0.20134417745E+03  0.20134417745E+03  0.00000000000E+00 0.  1.
         21   -1    0    0  502  503 -0.00000000000E+00 -0.00000000000E+00 -0.57780298821E+03  0.57780298821E+03  0.00000000000E+00 0. -1.
         -6    2    1    2    0  503 -0.12735276265E+03 -0.20891587500E+03 -0.37373918536E+03  0.47870671810E+03  0.17208885581E+03 0.  0.
        -24    2    3    3    0    0 -0.15760340446E+03 -0.19741115944E+03 -0.32031118590E+03  0.41606407338E+03  0.81853884297E+02 0.  0.
          6    2    1    2  501    0  0.12735276265E+03  0.20891587500E+03 -0.27196253988E+01  0.30044044757E+03  0.17433444063E+03 0.  0.
         24    2    5    5    0    0  0.39289135122E+02  0.27481150212E+02 -0.27382967107E+02  0.97206266687E+02  0.80002385214E+02 0.  0.
          5    1    5    5  501    0  0.88063627525E+02  0.18143472479E+03  0.24663341708E+02  0.20323418088E+03  0.47000000000E+01 0. -1.
        -11    1    6    6    0    0 -0.81294268276E+01  0.41199424307E+02 -0.22394077348E+02  0.47591751849E+02  0.00000000000E+00 0.  1.
         12    1    6    6    0    0  0.47418561950E+02 -0.13718274095E+02 -0.49888897590E+01  0.49614514838E+02  0.00000000000E+00 0. -1.
         -5    1    3    3    0  503  0.30250641817E+02 -0.11504715562E+02 -0.53427999469E+02  0.62642644722E+02  0.47000000000E+01 0.  1.
         13    1    4    4    0    0 -0.25842228550E+02 -0.92065363268E+02 -0.97160840741E+02  0.13632344209E+03  0.00000000000E+00 0. -1.
        -14    1    4    4    0    0 -0.13176117591E+03 -0.10534579617E+03 -0.22315034515E+03  0.27974063129E+03  0.00000000000E+00 0.  1.
</event>
<event>
12    1  0.8417180E-002  0.1923315E+03  0.7818608E-02  0.1156884E+00
         21   -1    0    0  501  502  0.00000000000E+00  0.00000000000E+00  0.44655785926E+03  0.44655785926E+03  0.00000000000E+00 0. -1.
         21   -1    0    0  502  503 -0.00000000000E+00 -0.00000000000E+00 -0.10245408913E+04  0.10245408913E+04  0.00000000000E+00 0.  1.
         -6    2    1    2    0  503 -0.62676490954E+02  0.57142061749E+02 -0.99440638605E+03  0.10124051421E+04  0.17007808034E+03 0.  0.
        -24    2    3    3    0    0 -0.10679977816E+03  0.43245710307E+02 -0.80062726667E+03  0.81312541368E+03  0.83021287336E+02 0.  0.
          6    2    1    2  501    0  0.62676490954E+02 -0.57142061749E+02  0.41642335403E+03  0.45869360843E+03  0.17262056335E+03 0.  0.
         24    2    5    5    0    0  0.23701901616E+02 -0.93510280621E+02  0.35983357919E+03  0.38080806051E+03  0.78921616265E+02 0.  0.
          5    1    5    5  501    0  0.38974589337E+02  0.36368218873E+02  0.56589774844E+02  0.77885547920E+02  0.47000000000E+01 0. -1.
        -13    1    6    6    0    0 -0.10892486577E+01  0.10544422827E+02  0.86092011423E+01  0.13656121693E+02  0.00000000000E+00 0.  1.
         14    1    6    6    0    0  0.24791150274E+02 -0.10405470345E+03  0.35122437805E+03  0.36715193882E+03  0.00000000000E+00 0. -1.
         -5    1    3    3    0  503  0.44123287210E+02  0.13896351442E+02 -0.19377911937E+03  0.19927972843E+03  0.47000000000E+01 0.  1.
         13    1    4    4    0    0 -0.28896763391E+02  0.13070398757E+02 -0.60600759922E+02  0.68398175131E+02  0.00000000000E+00 0. -1.
        -14    1    4    4    0    0 -0.77903014773E+02  0.30175311550E+02 -0.74002650675E+03  0.74472723854E+03  0.00000000000E+00 0.  1.
</event>
<event>
12    1  0.8417180E-002  0.1855742E+03  0.7818608E-02  0.1162845E+00
         21   -1    0    0  503  502  0.00000000000E+00  0.00000000000E+00  0.21515757596E+02  0.21515757596E+02  0.00000000000E+00 0. -1.
         21   -1    0    0  501  503 -0.00000000000E+00 -0.00000000000E+00 -0.15889627319E+04  0.15889627319E+04  0.00000000000E+00 0.  1.
          6    2    1    2  501    0  0.24653686443E+02  0.59317245456E+02 -0.79591730300E+03  0.81694473898E+03  0.17259204345E+03 0.  0.
         24    2    3    3    0    0  0.13351178709E+02 -0.20344172551E+01 -0.68251361801E+03  0.68742926126E+03  0.80942928305E+02 0.  0.
         -6    2    1    2    0  502 -0.24653686443E+02 -0.59317245456E+02 -0.77152967134E+03  0.79353375055E+03  0.17410180828E+03 0.  0.
        -24    2    5    5    0    0 -0.39885102846E+02 -0.10416576352E+03 -0.60430848061E+03  0.61967057950E+03  0.79759385960E+02 0.  0.
          5    1    3    3  501    0  0.11302507734E+02  0.61351662711E+02 -0.11340368499E+03  0.12951547771E+03  0.47000000000E+01 0. -1.
        -11    1    4    4    0    0  0.23317202678E+02 -0.37390078030E+02 -0.31142992866E+03  0.31453189082E+03  0.00000000000E+00 0.  1.
         12    1    4    4    0    0 -0.99660239685E+01  0.35355660775E+02 -0.37108368935E+03  0.37289737045E+03  0.00000000000E+00 0. -1.
         -5    1    5    5    0  502  0.15231416403E+02  0.44848518064E+02 -0.16722119073E+03  0.17386317105E+03  0.47000000000E+01 0.  1.
         11    1    6    6    0    0 -0.39301554751E+02 -0.15649314672E+02 -0.29241920926E+03  0.29546320786E+03  0.00000000000E+00 0. -1.
        -12    1    6    6    0    0 -0.58354809509E+00 -0.88516448848E+02 -0.31188927135E+03  0.32420737164E+03  0.00000000000E+00 0.  1.
</event>
<event>
12    1  0.8417180E-002  0.2347832E+03  0.7818608E-02  0.1123802E+00
         21   -1    0    0  501  502  0.00000000000E+00  0.00000000000E+00  0.64986199422E+03  0.64986199422E+03  0.00000000000E+00 0.  1.
         21   -1    0    0  502  503 -0.00000000000E+00 -0.00000000000E+00 -0.16760495562E+03  0.16760495562E+03  0.00000000000E+00 0.  1.
         -6    2    1    2    0  503  0.12673510108E+03 -0.98652486663E+02 -0.47145545970E+02  0.23946991190E+03  0.17125722535E+03 0.  0.
        -24    2    3    3    0    0  0.12805775700E+03 -0.69145647340E+02  0.18550013279E+02  0.16728681492E+03  0.80379510944E+02 0.  0.
          6    2    1    2  501    0 -0.12673510108E+03  0.98652486663E+02  0.52940258458E+03  0.57799703794E+03  0.16738990513E+03 0.  0.
         24    2    5    5    0    0 -0.85718966842E+02  0.31634410193E+02  0.13293717415E+03  0.17379330526E+03  0.64678771629E+02 0.  0.
          5    1    5    5  501    0 -0.41016134235E+02  0.67018076470E+02  0.39646541043E+03  0.40420373268E+03  0.47000000000E+01 0. -1.
        -11    1    6    6    0    0 -0.83836396343E+02  0.38334537565E+02  0.85122436073E+02  0.12547472752E+03  0.00000000000E+00 0.  1.
         12    1    6    6    0    0 -0.18825704992E+01 -0.67001273722E+01  0.47814738074E+02  0.48318577747E+02  0.00000000000E+00 0. -1.
         -5    1    3    3    0  503 -0.13226559201E+01 -0.29506839323E+02 -0.65695559249E+02  0.72183096986E+02  0.47000000000E+01 0.  1.
         11    1    4    4    0    0 -0.40679632481E+01 -0.27235866920E+02  0.88223597810E+00  0.27552116293E+02  0.00000000000E+00 0. -1.
        -12    1    4    4    0    0  0.13212572025E+03 -0.41909780420E+02  0.17667777301E+02  0.13973469863E+03  0.00000000000E+00 0.  1.
</event>
<event>
12    1  0.8417180E-002  0.2648220E+03  0.7818608E-02  0.1104491E+00
         21   -1    0    0  501  502  0.00000000000E+00  0.00000000000E+00  0.65635585722E+03  0.65635585722E+03  0.00000000000E+00 0.  1.
         21   -1    0    0  502  503 -0.00000000000E+00 -0.00000000000E+00 -0.11607686446E+03  0.11607686446E+03  0.00000000000E+00 0. -1.
         -6    2    1    2    0  503  0.18663829781E+03 -0.74969502885E+02  0.15856261552E+03  0.30866290456E+03  0.17226840987E+03 0.  0.
        -24    2    3    3    0    0  0.13492619571E+03  0.12225159669E+02  0.64369024954E+02  0.17020145438E+03  0.80440231747E+02 0.  0.
          6    2    1    2  501    0 -0.18663829781E+03  0.74969502885E+02  0.38171637724E+03  0.46376981711E+03  0.17006107738E+03 0.  0.
         24    2    5    5    0    0 -0.17472929147E+03  0.20881161750E+02  0.21834784013E+03  0.29120463524E+03  0.78473002229E+02 0.  0.
          5    1    5    5  501    0 -0.11909006336E+02  0.54088341134E+02  0.16336853711E+03  0.17256518188E+03  0.47000000000E+01 0. -1.
        -13    1    6    6    0    0 -0.55280095068E+02 -0.27362023365E+02  0.91993295880E+02  0.11075800522E+03  0.00000000000E+00 0.  1.
         14    1    6    6    0    0 -0.11944919640E+03  0.48243185115E+02  0.12635454425E+03  0.18044663002E+03  0.00000000000E+00 0. -1.
         -5    1    3    3    0  503  0.51712102099E+02 -0.87194662554E+02  0.94193590568E+02  0.13846145018E+03  0.47000000000E+01 0.  1.
         13    1    4    4    0    0  0.72267944113E+02  0.17035529870E+02  0.76047318390E+02  0.10628292270E+03  0.00000000000E+00 0. -1.
        -14    1    4    4    0    0  0.62658251595E+02 -0.48103702007E+01 -0.11678293437E+02  0.63918531679E+02  0.00000000000E+00 0.  1.
</event>
<event>
12    1  0.8417180E-002  0.1998128E+03  0.7818608E-02  0.1149990E+00
         21   -1    0    0  503  502  0.00000000000E+00  0.00000000000E+00  0.15026933795E+04  0.15026933795E+04  0.00000000000E+00 0.  1.
         21   -1    0    0  501  503 -0.00000000000E+00 -0.00000000000E+00 -0.31889030679E+02  0.31889030679E+02  0.00000000000E+00 0. -1.
          6    2    1    2  501    0  0.97848522633E+02 -0.25514128511E+02  0.41960848048E+03  0.46456468674E+03  0.17182481526E+03 0.  0.
         24    2    3    3    0    0  0.11303322955E+03  0.19873804298E+02  0.37045021611E+03  0.39579503700E+03  0.79049792025E+02 0.  0.
         -6    2    1    2    0  502 -0.97848522633E+02  0.25514128511E+02  0.10511958684E+04  0.10700177235E+04  0.17233650434E+03 0.  0.
        -24    2    5    5    0    0 -0.19766785883E+02 -0.10911404606E+02  0.23235259423E+03  0.24664054704E+03  0.79586725151E+02 0.  0.
          5    1    3    3  501    0 -0.15184706921E+02 -0.45387932809E+02  0.49158264376E+02  0.68769649740E+02  0.47000000000E+01 0. -1.
        -13    1    4    4    0    0  0.38046097703E+02  0.42779646403E+02  0.11308265164E+03  0.12674892425E+03  0.00000000000E+00 0.  1.
         14    1    4    4    0    0  0.74987131851E+02 -0.22905842105E+02  0.25736756446E+03  0.26904611275E+03  0.00000000000E+00 0. -1.
         -5    1    5    5    0  502 -0.78081736750E+02  0.36425533117E+02  0.81884327413E+03  0.82337717643E+03  0.47000000000E+01 0.  1.
         11    1    6    6    0    0 -0.13200665230E+02  0.29381276627E+02  0.47890537118E+02  0.57714993929E+02  0.00000000000E+00 0. -1.
        -12    1    6    6    0    0 -0.65661206527E+01 -0.40292681232E+02  0.18446205712E+03  0.18892555311E+03  0.00000000000E+00 0.  1.
</event>
<event>
12    1  0.8417180E-002  0.1943058E+03  0.7818608E-02  0.1155306E+00
         21   -1    0    0  503  502  0.00000000000E+00  0.00000000000E+00  0.17512901138E+03  0.17512901138E+03  0.00000000000E+00 0.  1.
         21   -1    0    0  501  503 -0.00000000000E+00 -0.00000000000E+00 -0.22215778330E+03  0.22215778330E+03  0.00000000000E+00 0. -1.
          6    2    1    2  501    0  0.71503145256E+02  0.47608611110E+02 -0.65351878873E+02  0.20211897850E+03  0.17088573306E+03 0.  0.
         24    2    3    3    0    0  0.20360466621E+02  0.34376491831E+02  0.28117340617E+02  0.94651552970E+02  0.81068118546E+02 0.  0.
         -6    2    1    2    0  502 -0.71503145256E+02 -0.47608611110E+02  0.18323106950E+02  0.19516781618E+03  0.17428557195E+03 0.  0.
        -24    2    5    5    0    0 -0.11387300235E+03 -0.19297501914E+02  0.24221779888E+02  0.14365463304E+03  0.81917670435E+02 0.  0.
          5    1    3    3  501    0  0.51142678634E+02  0.13232119279E+02 -0.93469219490E+02  0.10746742553E+03  0.47000000000E+01 0. -1.
        -11    1    4    4    0    0  0.37894720715E+02 -0.12795331732E+02  0.10784369552E+02  0.41425028653E+02  0.00000000000E+00 0.  1.
         12    1    4    4    0    0 -0.17534254094E+02  0.47171823563E+02  0.17332971065E+02  0.53226524317E+02  0.00000000000E+00 0. -1.
         -5    1    5    5    0  502  0.42369857095E+02 -0.28311109197E+02 -0.58986729378E+01  0.51513183135E+02  0.47000000000E+01 0.  1.
         11    1    6    6    0    0 -0.27070475741E+02 -0.39207926015E+02 -0.92141474410E+01  0.48528060257E+02  0.00000000000E+00 0. -1.
        -12    1    6    6    0    0 -0.86802526610E+02  0.19910424102E+02  0.33435927329E+02  0.95126572787E+02  0.00000000000E+00 0.  1.
</event>
<event>
12    1  0.8417180E-002  0.1803299E+03  0.7818608E-02  0.1168452E+00
         21   -1    0    0  503  502  0.00000000000E+00  0.00000000000E+00  0.18188104716E+04  0.18188104716E+04  0.00000000000E+00 0.  1.
         21   -1    0    0  501  503 -0.00000000000E+00 -0.00000000000E+00 -0.56679503890E+02  0.56679503890E+02  0.00000000000E+00 0.  1.
          6    2    1    2  501    0 -0.23276436512E+02 -0.44192936679E+02  0.10433339676E+03  0.20833708823E+03  0.17327456969E+03 0.  0.
         24    2    3    3    0    0 -0.36806204403E+02  0.23496197691E+01 -0.49776042117E+01  0.88669844948E+02  0.80481969806E+02 0.  0.
         -6    2    1    2    0  502  0.23276436512E+02  0.44192936679E+02  0.16577975709E+04  0.16671528873E+04  0.16914832284E+03 0.  0.
        -24    2    5    5    0    0 -0.31310074401E+02  0.47343479530E+01  0.49742841934E+03  0.50482103904E+03  0.80040703880E+02 0.  0.
          5    1    3    3  501    0  0.13529767891E+02 -0.46542556448E+02  0.10931100098E+03  0.11966724328E+03  0.47000000000E+01 0. -1.
        -11    1    4    4    0    0 -0.55326859306E+02 -0.13070267010E+02 -0.20007451332E+02  0.60267664209E+02  0.00000000000E+00 0.  1.
         12    1    4    4    0    0  0.18520654903E+02  0.15419886779E+02  0.15029847120E+02  0.28402180740E+02  0.00000000000E+00 0. -1.
         -5    1    5    5    0  502  0.54586510913E+02  0.39458588726E+02  0.11603691516E+04  0.11623318482E+04  0.47000000000E+01 0.  1.
         13    1    6    6    0    0 -0.15363577278E+02  0.37918112535E+02  0.36771603160E+03  0.36998500329E+03  0.00000000000E+00 0. -1.
        -14    1    6    6    0    0 -0.15946497123E+02 -0.33183764582E+02  0.12971238774E+03  0.13483603575E+03  0.00000000000E+00 0.  1.
</event>
<event>
12    1  0.8417180E-002  0.1737749E+03  0.7818608E-02  0.1175727E+00
         21   -1    0    0  501  502  0.00000000000E+00  0.00000000000E+00  0.77426856555E+02  0.77426856555E+02  0.00000000000E+00 0.  1.
         21   -1    0    0  502  503 -0.00000000000E+00 -0.00000000000E+00 -0.47084657253E+03  0.47084657253E+03  0.00000000000E+00 0.  1.
         -6    2    1    2    0  503  0.12542819223E+02 -0.16543952905E+02 -0.31731019019E+03  0.35856210823E+03  0.16568042724E+03 0.  0.
        -24    2    3    3    0    0 -0.13128715490E+02 -0.20570500082E+02 -0.84293832190E+02  0.12405421099E+03  0.87684026333E+02 0.  0.
          6    2    1    2  501    0 -0.12542819223E+02  0.16543952905E+02 -0.76109525793E+02  0.18971132086E+03  0.17253028909E+03 0.  0.
         24    2    5    5    0    0  0.19642726321E+02  0.15935020959E+02  0.18924394335E+02  0.89263244146E+02  0.83486720287E+02 0.  0.
          5    1    5    5  501    0 -0.32185545545E+02  0.60893194614E+00 -0.95033920128E+02  0.10044807671E+03  0.47000000000E+01 0. -1.
        -11    1    6    6    0    0 -0.32105241000E+02  0.20776779316E+01 -0.78341379969E+00  0.32181935654E+02  0.00000000000E+00 0.  1.
         12    1    6    6    0    0  0.51747967321E+02  0.13857343028E+02  0.19707808135E+02  0.57081308492E+02  0.00000000000E+00 0. -1.
         -5    1    3    3    0  503  0.25671534713E+02  0.40265471764E+01 -0.23301635800E+03  0.23450789725E+03  0.47000000000E+01 0.  1.
         13    1    4    4    0    0 -0.46220794880E+02  0.40400205707E+00 -0.66591287143E+02  0.81061239939E+02  0.00000000000E+00 0. -1.
        -14    1    4    4    0    0  0.33092079390E+02 -0.20974502139E+02 -0.17702545046E+02  0.42992971047E+02  0.00000000000E+00 0.  1.
</event>
<event>
12    1  0.8417180E-002  0.3340351E+03  0.7818608E-02  0.1069623E+00
         21   -1    0    0  501  502  0.00000000000E+00  0.00000000000E+00  0.11496219814E+03  0.11496219814E+03  0.00000000000E+00 0. -1.
         21   -1    0    0  502  503 -0.00000000000E+00 -0.00000000000E+00 -0.96770735489E+03  0.96770735489E+03  0.00000000000E+00 0.  1.
         -6    2    1    2    0  503 -0.38935925711E+02 -0.28266872466E+03 -0.46252812067E+03  0.57053634979E+03  0.17367167245E+03 0.  0.
        -24    2    3    3    0    0 -0.30971496463E+02 -0.29744237174E+03 -0.40018963447E+03  0.50580714739E+03  0.79107071218E+02 0.  0.
          6    2    1    2  501    0  0.38935925711E+02  0.28266872466E+03 -0.39021703608E+03  0.51213320325E+03  0.16909603310E+03 0.  0.
         24    2    5    5    0    0 -0.90790885160E+01  0.14016834829E+03 -0.11389839673E+03  0.19751298885E+03  0.79428837805E+02 0.  0.
          5    1    5    5  501    0  0.48015014227E+02  0.14250037636E+03 -0.27631863935E+03  0.31462021439E+03  0.47000000000E+01 0. -1.
        -13    1    6    6    0    0 -0.11414122402E+02  0.49900538218E+02 -0.90915772891E+02  0.10433610911E+03  0.00000000000E+00 0.  1.
         14    1    6    6    0    0  0.23350338863E+01  0.90267810075E+02 -0.22982623843E+02  0.93176879738E+02  0.00000000000E+00 0. -1.
         -5    1    3    3    0  503 -0.79644292482E+01  0.14773647083E+02 -0.62338486197E+02  0.64729202395E+02  0.47000000000E+01 0.  1.
         11    1    4    4    0    0 -0.28446673683E+02 -0.38833495885E+02 -0.88952670124E+02  0.10114262785E+03  0.00000000000E+00 0. -1.
        -12    1    4    4    0    0 -0.25248227801E+01 -0.25860887586E+03 -0.31123696435E+03  0.40466451954E+03  0.00000000000E+00 0.  1.
</event>
<event>
12    1  0.8417180E-002  0.3600439E+03  0.7818608E-02  0.1058699E+00
         21   -1    0    0  503  502  0.00000000000E+00  0.00000000000E+00  0.48459995828E+03  0.48459995828E+03  0.00000000000E+00 0. -1.
         21   -1    0    0  501  503 -0.00000000000E+00 -0.00000000000E+00 -0.36550394248E+03  0.36550394248E+03  0.00000000000E+00 0.  1.
          6    2    1    2  501    0 -0.31594736540E+03  0.15678225500E+02 -0.16173811121E+03  0.39348657077E+03  0.16912693547E+03 0.  0.
         24    2    3    3    0    0 -0.32158320709E+03  0.44454068327E+02 -0.15140906290E+03  0.36204470249E+03  0.52533218037E+02 0.  0.
         -6    2    1    2    0  502  0.31594736540E+03 -0.15678225500E+02  0.28083412701E+03  0.45661733000E+03  0.17193904357E+03 0.  0.
        -24    2    5    5    0    0  0.28125276252E+03 -0.59954167722E+02  0.20473641917E+03  0.36187016293E+03  0.79595193523E+02 0.  0.
          5    1    3    3  501    0  0.56358416934E+01 -0.28775842827E+02 -0.10329048308E+02  0.31441868280E+02  0.47000000000E+01 0. -1.
        -13    1    4    4    0    0 -0.75758325337E+02  0.27961139556E+02 -0.21744733348E+02  0.83630034148E+02  0.00000000000E+00 0.  1.
         14    1    4    4    0    0 -0.24582488175E+03  0.16492928771E+02 -0.12966432955E+03  0.27841466834E+03  0.00000000000E+00 0. -1.
         -5    1    5    5    0  502  0.34694602876E+02  0.44275942222E+02  0.76097707844E+02  0.94747167069E+02  0.47000000000E+01 0.  1.
         11    1    6    6    0    0  0.16446312456E+03 -0.72938678121E+02  0.10950249753E+03  0.21061568572E+03  0.00000000000E+00 0. -1.
        -12    1    6    6    0    0  0.11678963796E+03  0.12984510399E+02  0.95233921636E+02  0.15125447721E+03  0.00000000000E+00 0.  1.
</event>
<event>
12    1  0.8417180E-002  0.1851797E+03  0.7818608E-02  0.1163049E+00
         21   -1    0    0  503  502  0.00000000000E+00  0.00000000000E+00  0.10946281825E+04  0.10946281825E+04  0.00000000000E+00 0. -1.
         21   -1    0    0  501  503 -0.00000000000E+00 -0.00000000000E+00 -0.40094381591E+02  0.40094381591E+02  0.00000000000E+00 0. -1.
          6    2    1    2  501    0 -0.40741465652E+02  0.58511312584E+02  0.26093238108E+03  0.31996443762E+03  0.17090375397E+03 0.  0.
         24    2    3    3    0    0 -0.35972174006E+02  0.29842278463E+02  0.40571904466E+02  0.97645996381E+02  0.75525507550E+02 0.  0.
         -6    2    1    2    0  502  0.40741465652E+02 -0.58511312584E+02  0.79360141980E+03  0.81475812645E+03  0.17012980448E+03 0.  0.
        -24    2    5    5    0    0 -0.16624184694E+02 -0.19777666192E+02  0.64866728106E+03  0.65407487350E+03  0.79857241609E+02 0.  0.
          5    1    3    3  501    0 -0.47692916455E+01  0.28669034121E+02  0.22036047662E+03  0.22231844124E+03  0.47000000000E+01 0. -1.
        -13    1    4    4    0    0 -0.42483710531E+01 -0.24184269723E+02  0.20105910895E+02  0.31736023877E+02  0.00000000000E+00 0.  1.
         14    1    4    4    0    0 -0.31723802953E+02  0.54026548186E+02  0.20465993571E+02  0.65909972504E+02  0.00000000000E+00 0. -1.
         -5    1    5    5    0  502  0.57365650346E+02 -0.38733646392E+02  0.14493413875E+03  0.16068325294E+03  0.47000000000E+01 0.  1.
         13    1    6    6    0    0 -0.20781257857E+01 -0.39061370774E+02  0.15647413030E+03  0.16128937580E+03  0.00000000000E+00 0. -1.
        -14    1    6    6    0    0 -0.14546058908E+02  0.19283704582E+02  0.49219315075E+03  0.49278549770E+03  0.00000000000E+00 0.  1.
</event>
<event>
12    1  0.8417180E-002  0.2400940E+03  0.7818608E-02  0.1119749E+00
         21   -1    0    0  503  502  0.00000000000E+00  0.00000000000E+00  0.89066512891E+03  0.89066512891E+03  0.00000000000E+00 0. -1.
         21   -1    0    0  501  503 -0.00000000000E+00 -0.00000000000E+00 -0.65922840757E+02  0.65922840757E+02  0.00000000000E+00 0. -1.
          6    2    1    2  501    0  0.12411056275E+03  0.11280308967E+03  0.47785765478E+03  0.53478320637E+03  0.17180561912E+03 0.  0.
         24    2    3    3    0    0  0.20939301824E+02  0.94461544760E+01  0.11911054657E+03  0.14742220836E+03  0.83775300762E+02 0.  0.
         -6    2    1    2    0  502 -0.12411056275E+03 -0.11280308967E+03  0.34688463337E+03  0.42180476329E+03  0.17164597474E+03 0.  0.
        -24    2    5    5    0    0 -0.75854586251E+02 -0.12833333209E+03  0.32183163532E+03  0.36506350486E+03  0.86443037355E+02 0.  0.
          5    1    3    3  501    0  0.10317126092E+03  0.10335693519E+03  0.35874710821E+03  0.38736099802E+03  0.47000000000E+01 0. -1.
        -13    1    4    4    0    0 -0.27727973255E+02  0.13690773098E+01  0.79333315572E+02  0.84050519529E+02  0.00000000000E+00 0.  1.
         14    1    4    4    0    0  0.48667275079E+02  0.80770771663E+01  0.39777231000E+02  0.63371688830E+02  0.00000000000E+00 0. -1.
         -5    1    5    5    0  502 -0.48255976497E+02  0.15530242420E+02  0.25052998047E+02  0.56741258432E+02  0.47000000000E+01 0.  1.
         11    1    6    6    0    0 -0.19966065946E+02  0.45689456623E+01  0.13063924319E+02  0.24293727018E+02  0.00000000000E+00 0. -1.
        -12    1    6    6    0    0 -0.55888520305E+02 -0.13290227775E+03  0.30876771100E+03  0.34076977784E+03  0.00000000000E+00 0.  1.
</event>
<event>
12    1  0.8417180E-002  0.2507309E+03  0.7818608E-02  0.1112912E+00
         21   -1    0    0  503  502  0.00000000000E+00  0.00000000000E+00  0.24667267383E+03  0.24667267383E+03  0.00000000000E+00 0.  1.
         21   -1    0    0  501  503 -0.00000000000E+00 -0.00000000000E+00 -0.28641839360E+03  0.28641839360E+03  0.00000000000E+00 0.  1.
          6    2    1    2  501    0  0.15497600724E+03  0.95185764427E+02 -0.10895401003E+03  0.27298385067E+03  0.17196311771E+03 0.  0.
         24    2    3    3    0    0  0.80671273703E+02 -0.94056852686E+01 -0.88611638449E+02  0.14299744039E+03  0.77459177458E+02 0.  0.
         -6    2    1    2    0  502 -0.15497600724E+03 -0.95185764427E+02  0.69208290256E+02  0.26010721676E+03  0.17259224838E+03 0.  0.
        -24    2    5    5    0    0 -0.16408034092E+03 -0.84234029316E+02  0.98553730086E+01  0.19888885204E+03  0.73769350782E+02 0.  0.
          5    1    3    3  501    0  0.74304733541E+02  0.10459144970E+03 -0.20342371584E+02  0.12998641028E+03  0.47000000000E+01 0. -1.
        -11    1    4    4    0    0  0.84547560014E+02  0.88885780475E+01 -0.90541548929E+02  0.12419770049E+03  0.00000000000E+00 0.  1.
         12    1    4    4    0    0 -0.38762863107E+01 -0.18294263316E+02  0.19299104795E+01  0.18799739900E+02  0.00000000000E+00 0. -1.
         -5    1    5    5    0  502  0.91043336794E+01 -0.10951735111E+02  0.59352917247E+02  0.61218364724E+02  0.47000000000E+01 0.  1.
         13    1    6    6    0    0 -0.10743289363E+03 -0.90541654862E+02  0.16679050331E+02  0.14148430520E+03  0.00000000000E+00 0. -1.
        -14    1    6    6    0    0 -0.56647447296E+02  0.63076255457E+01 -0.68236773226E+01  0.57404546835E+02  0.00000000000E+00 0.  1.
</event>
<event>
12    1  0.8417180E-002  0.1802586E+03  0.7818608E-02  0.1167675E+00
         21   -1    0    0  501  502  0.00000000000E+00  0.00000000000E+00  0.34525800050E+03  0.34525800050E+03  0.00000000000E+00 0.  1.
         21   -1    0    0  502  503 -0.00000000000E+00 -0.00000000000E+00 -0.22533033158E+03  0.22533033158E+03  0.00000000000E+00 0.  1.
         -6    2    1    2    0  503 -0.50870176004E+02  0.12984026521E+02  0.27785788564E+03  0.33093212193E+03  0.17191481891E+03 0.  0.
        -24    2    3    3    0    0  0.62338312475E+00 -0.56647587925E+01  0.44156737101E+02  0.90853633401E+02  0.79196509847E+02 0.  0.
          6    2    1    2  501    0  0.50870176004E+02 -0.12984026521E+02 -0.15793021671E+03  0.23965621015E+03  0.17244357327E+03 0.  0.
         24    2    5    5    0    0  0.64136709984E+02  0.41015159829E+02 -0.14364913497E+03  0.18205454051E+03  0.81933026540E+02 0.  0.
          5    1    5    5  501    0 -0.13266533980E+02 -0.53999186350E+02 -0.14281081744E+02  0.57601669646E+02  0.47000000000E+01 0. -1.
        -13    1    6    6    0    0  0.12740005642E+02  0.25671396270E+02  0.62978581993E-01  0.28658895592E+02  0.00000000000E+00 0.  1.
         14    1    6    6    0    0  0.51396704343E+02  0.15343763559E+02 -0.14371211355E+03  0.15339564491E+03  0.00000000000E+00 0. -1.
         -5    1    3    3    0  503 -0.51493559129E+02  0.18648785313E+02  0.23370114854E+03  0.24007848853E+03  0.47000000000E+01 0.  1.
         13    1    4    4    0    0  0.16167152165E+02 -0.32960029546E+02  0.57801877943E-01  0.36711628919E+02  0.00000000000E+00 0. -1.
        -14    1    4    4    0    0 -0.15543769040E+02  0.27295270754E+02  0.44098935224E+02  0.54142004482E+02  0.00000000000E+00 0.  1.
</event>
<event>
12    1  0.8417180E-002  0.2685939E+03  0.7818608E-02  0.1102136E+00
         21   -1    0    0  501  502  0.00000000000E+00  0.00000000000E+00  0.72107314420E+03  0.72107314420E+03  0.00000000000E+00 0. -1.
         21   -1    0    0  502  503 -0.00000000000E+00 -0.00000000000E+00 -0.13161508550E+03  0.13161508550E+03  0.00000000000E+00 0.  1.
         -6    2    1    2    0  503 -0.11276958127E+03  0.17204147377E+03  0.85373836843E+02  0.28151087436E+03  0.17217558831E+03 0.  0.
        -24    2    3    3    0    0 -0.10468117922E+03  0.19259662359E+03  0.47882396651E+02  0.23774291211E+03  0.78596180883E+02 0.  0.
          6    2    1    2  501    0  0.11276958127E+03 -0.17204147377E+03  0.50408422186E+03  0.57117735534E+03  0.17270617060E+03 0.  0.
         24    2    5    5    0    0  0.12287790673E+03 -0.84349303123E+02  0.40125928400E+03  0.43557811904E+03  0.80656679185E+02 0.  0.
          5    1    5    5  501    0 -0.10108325456E+02 -0.87692170648E+02  0.10282493786E+03  0.13559923629E+03  0.47000000000E+01 0. -1.
        -13    1    6    6    0    0  0.82721592969E+01 -0.34242689103E+02  0.40118517944E+02  0.53389941547E+02  0.00000000000E+00 0.  1.
         14    1    6    6    0    0  0.11460574743E+03 -0.50106614020E+02  0.36114076605E+03  0.38218817750E+03  0.00000000000E+00 0. -1.
         -5    1    3    3    0  503 -0.80884020463E+01 -0.20555149817E+02  0.37491440193E+02  0.43767962249E+02  0.47000000000E+01 0.  1.
         11    1    4    4    0    0 -0.67449307839E+02  0.70498152173E+02  0.50924525091E+02  0.11005773868E+03  0.00000000000E+00 0. -1.
        -12    1    4    4    0    0 -0.37231871385E+02  0.12209847142E+03 -0.30421284407E+01  0.12768517343E+03  0.00000000000E+00 0.  1.
</event>
<event>
12    1  0.8417180E-002  0.1997590E+03  0.7818608E-02  0.1150308E+00
         21   -1    0    0  503  502  0.00000000000E+00  0.00000000000E+00  0.84378829825E+02  0.84378829825E+02  0.00000000000E+00 0. -1.
         21   -1    0    0  501  503 -0.00000000000E+00 -0.00000000000E+00 -0.61993285435E+03  0.61993285435E+03  0.00000000000E+00 0. -1.
          6    2    1    2  501    0 -0.70080576419E+02 -0.68959561203E+02 -0.44250641527E+03  0.48550550843E+03  0.17388778822E+03 0.  0.
         24    2    3    3    0    0 -0.56690360130E+02 -0.91241562459E+02 -0.19302383042E+03  0.23462817662E+03  0.79078204992E+02 0.  0.
         -6    2    1    2    0  502  0.70080576419E+02  0.68959561203E+02 -0.93047609256E+02  0.21880617574E+03  0.17190572033E+03 0.  0.
        -24    2    5    5    0    0  0.14360459574E+01 -0.23787556041E+02 -0.31964794426E+02  0.88164300422E+02  0.78633871429E+02 0.  0.
          5    1    3    3  501    0 -0.13390216290E+02  0.22282001256E+02 -0.24948258485E+03  0.25087733181E+03  0.47000000000E+01 0. -1.
        -11    1    4    4    0    0  0.49620297153E+01 -0.65915924109E+02 -0.84696363911E+02  0.10743837699E+03  0.00000000000E+00 0.  1.
         12    1    4    4    0    0 -0.61652389845E+02 -0.25325638349E+02 -0.10832746650E+03  0.12718979963E+03  0.00000000000E+00 0. -1.
         -5    1    5    5    0  502  0.68644530462E+02  0.92747117243E+02 -0.61082814830E+02  0.13064187532E+03  0.47000000000E+01 0.  1.
         13    1    6    6    0    0  0.28912746160E+02 -0.10897125882E+02  0.13322225396E+02  0.33647822106E+02  0.00000000000E+00 0. -1.
        -14    1    6    6    0    0 -0.27476700202E+02 -0.12890430159E+02 -0.45287019822E+02  0.54516478316E+02  0.00000000000E+00 0.  1.
</event>
<event>
12    1  0.8417180E-002  0.2072572E+03  0.7818608E-02  0.1144318E+00
         21   -1    0    0  503  502  0.00000000000E+00  0.00000000000E+00  0.23729067633E+03  0.23729067633E+03  0.00000000000E+00 0.  1.
         21   -1    0    0  501  503 -0.00000000000E+00 -0.00000000000E+00 -0.19177787536E+03  0.19177787536E+03  0.00000000000E+00 0.  1.
          6    2    1    2  501    0 -0.47196990109E+02  0.10441258765E+03 -0.33592664340E+02  0.20722801875E+03  0.16936776649E+03 0.  0.
         24    2    3    3    0    0 -0.76576119735E+02  0.11294716638E+03  0.74280637406E+00  0.16100046376E+03  0.85437890089E+02 0.  0.
         -6    2    1    2    0  502  0.47196990109E+02 -0.10441258765E+03  0.79105465314E+02  0.22184053294E+03  0.17270206448E+03 0.  0.
        -24    2    5    5    0    0  0.36986660807E+01 -0.64344139361E+02 -0.21736378501E+02  0.10484159189E+03  0.79783712873E+02 0.  0.
          5    1    3    3  501    0  0.29379129626E+02 -0.85345787291E+01 -0.34335470714E+02  0.46227554995E+02  0.47000000000E+01 0. -1.
        -13    1    4    4    0    0 -0.34342877195E+02  0.25786481719E+01 -0.21712928837E+02  0.40712822539E+02  0.00000000000E+00 0.  1.
         14    1    4    4    0    0 -0.42233242539E+02  0.11036851820E+03  0.22455735211E+02  0.12028764122E+03  0.00000000000E+00 0. -1.
         -5    1    5    5    0  502  0.43498324028E+02 -0.40068448286E+02  0.10084184381E+03  0.11699894104E+03  0.47000000000E+01 0.  1.
         13    1    6    6    0    0  0.20142488735E+02  0.91697944411E+01  0.84474223019E+01  0.23688898794E+02  0.00000000000E+00 0. -1.
        -14    1    6    6    0    0 -0.16443822655E+02 -0.73513933802E+02 -0.30183800802E+02  0.81152693101E+02  0.00000000000E+00 0.  1.
</event>
<event>
12    1  0.8417180E-002  0.2141132E+03  0.7818608E-02  0.1139325E+00
         21   -1    0    0  501  502  0.00000000000E+00  0.00000000000E+00  0.50920766499E+02  0.50920766499E+02  0.00000000000E+00 0.  1.
         21   -1    0    0  502  503 -0.00000000000E+00 -0.00000000000E+00 -0.12177558772E+04  0.12177558772E+04  0.00000000000E+00 0.  1.
         -6    2    1    2    0  503 -0.63703293816E+02  0.10177780186E+03 -0.91277819812E+03  0.93642766958E+03  0.17121889731E+03 0.  0.
        -24    2    3    3    0    0 -0.51650518376E+02  0.72138045835E+02 -0.88780052748E+03  0.89556499023E+03  0.77299427106E+02 0.  0.
          6    2    1    2  501    0  0.63703293816E+02 -0.10177780186E+03 -0.25405691253E+03  0.33224897407E+03  0.17727841203E+03 0.  0.
         24    2    5    5    0    0  0.69343821231E+02 -0.14314912526E+03 -0.21246999562E+03  0.27313075685E+03  0.64472270699E+02 0.  0.
          5    1    5    5  501    0 -0.56405274149E+01  0.41371323404E+02 -0.41586916910E+02  0.59118217224E+02  0.47000000000E+01 0. -1.
        -13    1    6    6    0    0  0.36534904414E+02 -0.51840441584E+02 -0.39236228851E+02  0.74576888367E+02  0.00000000000E+00 0.  1.
         14    1    6    6    0    0  0.32808916817E+02 -0.91308683680E+02 -0.17323376677E+03  0.19855386848E+03  0.00000000000E+00 0. -1.
         -5    1    3    3    0  503 -0.12052775440E+02  0.29639756025E+02 -0.24977670646E+02  0.40862679354E+02  0.47000000000E+01 0.  1.
         13    1    4    4    0    0 -0.18414472480E+02 -0.96923728747E+01 -0.34487861499E+03  0.34550585229E+03  0.00000000000E+00 0. -1.
        -14    1    4    4    0    0 -0.33236045896E+02  0.81830418710E+02 -0.54292191248E+03  0.55005913794E+03  0.00000000000E+00 0.  1.
</event>
<event>
12    1  0.8417180E-002  0.2245999E+03  0.7818608E-02  0.1131252E+00
         21   -1    0    0  501  502  0.00000000000E+00  0.00000000000E+00  0.34561469503E+03  0.34561469503E+03  0.00000000000E+00 0. -1.
         21   -1    0    0  502  503 -0.00000000000E+00 -0.00000000000E+00 -0.15455271275E+03  0.15455271275E+03  0.00000000000E+00 0.  1.
         -6    2    1    2    0  503  0.13478112432E+03  0.50564474028E+02  0.16382254955E+03  0.27799810626E+03  0.17240186147E+03 0.  0.
        -24    2    3    3    0    0  0.11746512044E+02  0.57275016251E+02  0.94541692693E+02  0.13656093179E+03  0.79324324157E+02 0.  0.
          6    2    1    2  501    0 -0.13478112432E+03 -0.50564474028E+02  0.27239432726E+02  0.22216930152E+03  0.16701644929E+03 0.  0.
         24    2    5    5    0    0 -0.15931697837E+03 -0.24434158136E+02  0.39175904697E+02  0.18409869730E+03  0.79866458281E+02 0.  0.
          5    1    5    5  501    0  0.24535854047E+02 -0.26130315892E+02 -0.11936471971E+02  0.38070604218E+02  0.47000000000E+01 0. -1.
        -13    1    6    6    0    0 -0.79166593533E+02 -0.33333009227E+02 -0.14655996680E+02  0.87139183347E+02  0.00000000000E+00 0.  1.
         14    1    6    6    0    0 -0.80150384836E+02  0.88988510914E+01  0.53831901377E+02  0.96959513953E+02  0.00000000000E+00 0. -1.
         -5    1    3    3    0  503  0.12303461228E+03 -0.67105422231E+01  0.69280856854E+02  0.14143717447E+03  0.47000000000E+01 0.  1.
         11    1    4    4    0    0  0.23102273371E+02  0.23641788675E+02  0.95490281925E+02  0.10104970633E+03  0.00000000000E+00 0. -1.
        -12    1    4    4    0    0 -0.11355761328E+02  0.33633227577E+02 -0.94858923195E+00  0.35511225466E+02  0.00000000000E+00 0.  1.
</event>
<event>
12    1  0.8417180E-002  0.2712854E+03  0.7818608E-02  0.1100712E+00
         21   -1    0    0  503  502  0.00000000000E+00  0.00000000000E+00  0.13141871513E+04  0.13141871513E+04  0.00000000000E+00 0.  1.
         21   -1    0    0  501  503 -0.00000000000E+00 -0.00000000000E+00 -0.31040069168E+03  0.31040069168E+03  0.00000000000E+00 0.  1.
          6    2    1    2  501    0 -0.21326243659E+02  0.20822147683E+03 -0.23363663111E+03  0.35802488585E+03  0.17258259300E+03 0.  0.
         24    2    3    3    0    0 -0.69986663741E+01  0.18906898728E+03 -0.25415401332E+03  0.32616346247E+03  0.77409808676E+02 0.  0.
         -6    2    1    2    0  502  0.21326243659E+02 -0.20822147683E+03  0.12374230908E+04  0.12665629572E+04  0.17074784573E+03 0.  0.
        -24    2    5    5    0    0  0.38478914674E+02 -0.43659372122E+02  0.58813226594E+03  0.59650656727E+03  0.80831645505E+02 0.  0.
          5    1    3    3  501    0 -0.14327577285E+02  0.19152489552E+02  0.20517382212E+02  0.31861423379E+02  0.47000000000E+01 0. -1.
        -13    1    4    4    0    0 -0.51712941192E+01  0.79848026480E+02 -0.17127864116E+03  0.18904714368E+03  0.00000000000E+00 0.  1.
         14    1    4    4    0    0 -0.18273722549E+01  0.10922096080E+03 -0.82875372164E+02  0.13711631879E+03  0.00000000000E+00 0. -1.
         -5    1    5    5    0  502 -0.17152671015E+02 -0.16456210471E+03  0.64929082483E+03  0.67005638989E+03  0.47000000000E+01 0.  1.
         11    1    6    6    0    0 -0.98194794577E+01  0.13711082193E+02  0.22941017377E+03  0.23002922375E+03  0.00000000000E+00 0. -1.
        -12    1    6    6    0    0  0.48298394132E+02 -0.57370454315E+02  0.35872209217E+03  0.36647734352E+03  0.00000000000E+00 0.  1.
</event>
<event>
12    1  0.8417180E-002  0.1758759E+03  0.7818608E-02  0.1171905E+00
         21   -1    0    0  501  502  0.00000000000E+00  0.00000000000E+00  0.68166095848E+03  0.68166095848E+03  0.00000000000E+00 0.  1.
         21   -1    0    0  502  503 -0.00000000000E+00 -0.00000000000E+00 -0.57897360659E+02  0.57897360659E+02  0.00000000000E+00 0.  1.
         -6    2    1    2    0  503  0.17997694297E+02  0.29796662796E+02  0.13944002067E+03  0.22428979853E+03  0.17219360105E+03 0.  0.
        -24    2    3    3    0    0 -0.35448625560E+02  0.32517857726E+02  0.22986792126E+02  0.96042543401E+02  0.79885927456E+02 0.  0.
          6    2    1    2  501    0 -0.17997694297E+02 -0.29796662796E+02  0.48432357715E+03  0.51526852061E+03  0.17239652792E+03 0.  0.
         24    2    5    5    0    0 -0.32215611883E+02 -0.80020346772E+02  0.39076318794E+03  0.40802951632E+03  0.79693886809E+02 0.  0.
          5    1    5    5  501    0  0.14217917587E+02  0.50223683976E+02  0.93560389209E+02  0.10723900429E+03  0.47000000000E+01 0. -1.
        -11    1    6    6    0    0 -0.68435667949E+01 -0.14389158830E+02  0.25145321302E+03  0.25195753737E+03  0.00000000000E+00 0.  1.
         12    1    6    6    0    0 -0.25372045088E+02 -0.65631187942E+02  0.13930997492E+03  0.15607197895E+03  0.00000000000E+00 0. -1.
         -5    1    3    3    0  503  0.53446319857E+02 -0.27211949304E+01  0.11645322855E+03  0.12824725512E+03  0.47000000000E+01 0.  1.
         11    1    4    4    0    0 -0.27081101956E+01 -0.80250313682E+01  0.40260851571E+02  0.41142085004E+02  0.00000000000E+00 0. -1.
        -12    1    4    4    0    0 -0.32740515364E+02  0.40542889094E+02 -0.17274059444E+02  0.54900458396E+02  0.00000000000E+00 0.  1.
</event>
<event>
12    1  0.8417180E-002  0.1750399E+03  0.7818608E-02  0.1173202E+00
         21   -1    0    0  503  502  0.00000000000E+00  0.00000000000E+00  0.10388216015E+03  0.10388216015E+03  0.00000000000E+00 0.  1.
         21   -1    0    0  501  503 -0.00000000000E+00 -0.00000000000E+00 -0.48696590750E+03  0.48696590750E+03  0.00000000000E+00 0.  1.
          6    2    1    2  501    0  0.25680835238E+02 -0.15849693788E+02 -0.37802168814E+03  0.41573499442E+03  0.17036569724E+03 0.  0.
         24    2    3    3    0    0 -0.48362565359E+02 -0.99042821531E+00 -0.25163124052E+03  0.26842627712E+03  0.79965407309E+02 0.  0.
         -6    2    1    2    0  502 -0.25680835238E+02  0.15849693788E+02 -0.50620592127E+01  0.17511307322E+03  0.17241880953E+03 0.  0.
        -24    2    5    5    0    0 -0.67919022624E+02  0.49785778109E+02 -0.12445314944E+02  0.12022842366E+03  0.84902123975E+02 0.  0.
          5    1    3    3  501    0  0.74043400597E+02 -0.14859265572E+02 -0.12639044761E+03  0.14730871730E+03  0.47000000000E+01 0. -1.
        -11    1    4    4    0    0 -0.73097866029E+01 -0.34976251645E+02 -0.14340060928E+03  0.14778533723E+03  0.00000000000E+00 0.  1.
         12    1    4    4    0    0 -0.41052778756E+02  0.33985823430E+02 -0.10823063124E+03  0.12064093989E+03  0.00000000000E+00 0. -1.
         -5    1    5    5    0  502  0.42238187385E+02 -0.33936084322E+02  0.73832557317E+01  0.54884649565E+02  0.47000000000E+01 0.  1.
         11    1    6    6    0    0 -0.54401835817E+02 -0.38365786212E+01 -0.29955892206E+02  0.62222460203E+02  0.00000000000E+00 0. -1.
        -12    1    6    6    0    0 -0.13517186807E+02  0.53622356730E+02  0.17510577262E+02  0.58005963457E+02  0.00000000000E+00 0.  1.
</event>
<event>
12    1  0.8417180E-002  0.2003316E+03  0.7818608E-02  0.1150194E+00
         21   -1    0    0  501  502  0.00000000000E+00  0.00000000000E+00  0.12602377210E+03  0.12602377210E+03  0.00000000000E+00 0. -1.
         21   -1    0    0  502  503 -0.00000000000E+00 -0.00000000000E+00 -0.49020240054E+03  0.49020240054E+03  0.00000000000E+00 0.  1.
         -6    2    1    2    0  503 -0.50260062067E+02 -0.90530601336E+02 -0.36633228096E+03  0.41588302670E+03  0.16744398528E+03 0.  0.
        -24    2    3    3    0    0  0.11027299978E+02 -0.95015299956E+02 -0.29951346303E+03  0.32498144422E+03  0.82189512592E+02 0.  0.
          6    2    1    2  501    0  0.50260062067E+02  0.90530601336E+02  0.21536525234E+01  0.20034314594E+03  0.17149598914E+03 0.  0.
         24    2    5    5    0    0 -0.68157510761E+01  0.22300329482E+01 -0.37311432071E+02  0.87941092023E+02  0.79309931240E+02 0.  0.
          5    1    5    5  501    0  0.57075813143E+02  0.88300568388E+02  0.39465084595E+02  0.11240205392E+03  0.47000000000E+01 0. -1.
        -11    1    6    6    0    0 -0.32492788438E+02 -0.15677518370E+02  0.37898847827E+01  0.36275737200E+02  0.00000000000E+00 0.  1.
         12    1    6    6    0    0  0.25677037362E+02  0.17907551318E+02 -0.41101316854E+02  0.51665354823E+02  0.00000000000E+00 0. -1.
         -5    1    3    3    0  503 -0.61287362045E+02  0.44846986205E+01 -0.66818817932E+02  0.90901582483E+02  0.47000000000E+01 0.  1.
         11    1    4    4    0    0  0.22953425403E+01  0.95061351797E+01 -0.26470388751E+01  0.10131239719E+02  0.00000000000E+00 0. -1.
        -12    1    4    4    0    0  0.87319574380E+01 -0.10452143514E+03 -0.29686642416E+03  0.31485020450E+03  0.00000000000E+00 0.  1.
</event>
<event>
12    1  0.8417180E-002  0.1935463E+03  0.7818608E-02  0.1155628E+00
         21   -1    0    0  503  502  0.00000000000E+00  0.00000000000E+00  0.19896101116E+04  0.19896101116E+04  0.00000000000E+00 0.  1.
         21   -1    0    0  501  503 -0.00000000000E+00 -0.00000000000E+00 -0.22050878059E+02  0.22050878059E+02  0.00000000000E+00 0.  1.
          6    2    1    2  501    0  0.58920734580E+02  0.62788914645E+02  0.58755900612E+03  0.61815433330E+03  0.17168311897E+03 0.  0.
         24    2    3    3    0    0  0.64505693002E+02 -0.19304299118E+02  0.25927437125E+03  0.27968220890E+03  0.80407076750E+02 0.  0.
         -6    2    1    2    0  502 -0.58920734580E+02 -0.62788914645E+02  0.13800002274E+04  0.13935066563E+04  0.17333803065E+03 0.  0.
        -24    2    5    5    0    0 -0.19438648382E+02 -0.29202176994E+02  0.29483589150E+03  0.30709484216E+03  0.78411803784E+02 0.  0.
          5    1    3    3  501    0 -0.55849584226E+01  0.82093213763E+02  0.32828463487E+03  0.33847212440E+03  0.47000000000E+01 0. -1.
        -13    1    4    4    0    0  0.43215850771E+02  0.26235500154E+02  0.16845893748E+03  0.17588156482E+03  0.00000000000E+00 0.  1.
         14    1    4    4    0    0  0.21289842231E+02 -0.45539799272E+02  0.90815433770E+02  0.10380064408E+03  0.00000000000E+00 0. -1.
         -5    1    5    5    0  502 -0.39482086197E+02 -0.33586737651E+02  0.10851643359E+04  0.10864118142E+04  0.47000000000E+01 0.  1.
         11    1    6    6    0    0 -0.16695398265E+02  0.19055217666E+02  0.18965217615E+03  0.19133683796E+03  0.00000000000E+00 0. -1.
        -12    1    6    6    0    0 -0.27432501177E+01 -0.48257394661E+02  0.10518371535E+03  0.11575800419E+03  0.00000000000E+00 0.  1.
</event>
<event>
12    1  0.8417180E-002  0.1897443E+03  0.7818608E-02  0.1158823E+00
         21   -1    0    0  503  502  0.00000000000E+00  0.00000000000E+00  0.84129211974E+03  0.84129211974E+03  0.00000000000E+00 0.  1.
         21   -1    0    0  501  503 -0.00000000000E+00 -0.00000000000E+00 -0.20522509143E+03  0.20522509143E+03  0.00000000000E+00 0.  1.
          6    2    1    2  501    0  0.25920338887E+02  0.74978323471E+02 -0.14756803171E+03  0.24037305508E+03  0.17236376843E+03 0.  0.
         24    2    3    3    0    0  0.61902253054E+02  0.73093311537E+02 -0.15951880656E+03  0.20212174875E+03  0.78945744325E+02 0.  0.
         -6    2    1    2    0  502 -0.25920338887E+02 -0.74978323471E+02  0.78363506003E+03  0.80614415609E+03  0.17172908937E+03 0.  0.
        -24    2    5    5    0    0  0.52366877074E+01 -0.12467588826E+02  0.17753168358E+03  0.19601159247E+03  0.81976716436E+02 0.  0.
          5    1    3    3  501    0 -0.35981914167E+02  0.18850119341E+01  0.11950774843E+02  0.38251306337E+02  0.47000000000E+01 0. -1.
        -11    1    4    4    0    0 -0.17808754279E+02  0.12067259410E+02 -0.15279874731E+02  0.26386455814E+02  0.00000000000E+00 0.  1.
         12    1    4    4    0    0  0.79711007333E+02  0.61026052127E+02 -0.14423893183E+03  0.17573529293E+03  0.00000000000E+00 0. -1.
         -5    1    5    5    0  502 -0.31157026594E+02 -0.62510734645E+02  0.60610337644E+03  0.61013256362E+03  0.47000000000E+01 0.  1.
         13    1    6    6    0    0 -0.28790648125E+02  0.16288889838E+02  0.11190429771E+03  0.11669105020E+03  0.00000000000E+00 0. -1.
        -14    1    6    6    0    0  0.34027335833E+02 -0.28756478664E+02  0.65627385876E+02  0.79320542269E+02  0.00000000000E+00 0.  1.
</event>
<event>
12    1  0.8417180E-002  0.2033660E+03  0.7818608E-02  0.1147661E+00
         21   -1    0    0  501  502  0.00000000000E+00  0.00000000000E+00  0.35289206630E+03  0.35289206630E+03  0.00000000000E+00 0. -1.
         21   -1    0    0  502  503 -0.00000000000E+00 -0.00000000000E+00 -0.13835631252E+03  0.13835631252E+03  0.00000000000E+00 0. -1.
         -6    2    1    2    0  503 -0.97134445708E+02  0.40477956760E+02  0.75265666658E+01  0.20350520261E+03  0.17402342589E+03 0.  0.
        -24    2    3    3    0    0 -0.58188828833E+02  0.93594945312E+02  0.17013427763E+01  0.13721644957E+03  0.81728244052E+02 0.  0.
          6    2    1    2  501    0  0.97134445708E+02 -0.40477956760E+02  0.20700918711E+03  0.28774317621E+03  0.16991105432E+03 0.  0.
         24    2    5    5    0    0 -0.60400594968E+01 -0.18252661872E+02  0.43614610351E+02  0.93169745415E+02  0.80054514179E+02 0.  0.
          5    1    5    5  501    0  0.10317450521E+03 -0.22225294888E+02  0.16339457676E+03  0.19457343080E+03  0.47000000000E+01 0. -1.
        -13    1    6    6    0    0 -0.20093562902E+01  0.23856908899E+02 -0.90718946448E+01  0.25602517208E+02  0.00000000000E+00 0.  1.
         14    1    6    6    0    0 -0.40307032067E+01 -0.42109570772E+02  0.52686504996E+02  0.67567228207E+02  0.00000000000E+00 0. -1.
         -5    1    3    3    0  503 -0.38945616875E+02 -0.53116988552E+02  0.58252238895E+01  0.66288753043E+02  0.47000000000E+01 0.  1.
         11    1    4    4    0    0  0.69991759923E+01 -0.95759933595E+00 -0.19222684899E+02  0.20479674699E+02  0.00000000000E+00 0. -1.
        -12    1    4    4    0    0 -0.65188004826E+02  0.94552544648E+02  0.20924027675E+02  0.11673677487E+03  0.00000000000E+00 0.  1.
</event>
<event>
12    1  0.8417180E-002  0.2349742E+03  0.7818608E-02  0.1123359E+00
         21   -1    0    0  501  502  0.00000000000E+00  0.00000000000E+00  0.22253293108E+03  0.22253293108E+03  0.00000000000E+00 0.  1.
         21   -1    0    0  502  503 -0.00000000000E+00 -0.00000000000E+00 -0.41808618809E+03  0.41808618809E+03  0.00000000000E+00 0. -1.
         -6    2    1    2    0  503  0.13708615480E+03 -0.80212193934E+02  0.10697019573E+03  0.25817727281E+03  0.17316544553E+03 0.  0.
        -24    2    3    3    0    0  0.12629639848E+03 -0.99194257742E+02  0.34573994553E+02  0.18241423741E+03  0.79305181879E+02 0.  0.
          6    2    1    2  501    0 -0.13708615480E+03  0.80212193934E+02 -0.30252345274E+03  0.38244184636E+03  0.17179847640E+03 0.  0.
         24    2    5    5    0    0 -0.84122997254E+01  0.58342134573E+02 -0.10192380524E+03  0.14307274005E+03  0.81282073166E+02 0.  0.
          5    1    5    5  501    0 -0.12867385508E+03  0.21870059361E+02 -0.20059964750E+03  0.23936910631E+03  0.47000000000E+01 0. -1.
        -13    1    6    6    0    0  0.18975873674E+02 -0.12505667572E+02 -0.35594198797E+02  0.42230587151E+02  0.00000000000E+00 0.  1.
         14    1    6    6    0    0 -0.27388173399E+02  0.70847802144E+02 -0.66329606443E+02  0.10084215290E+03  0.00000000000E+00 0. -1.
         -5    1    3    3    0  503  0.10789756327E+02  0.18982063808E+02  0.72396201178E+02  0.75763035400E+02  0.47000000000E+01 0.  1.
         13    1    4    4    0    0 -0.26749511957E+01 -0.25273646034E+02 -0.98622470702E+01  0.27261263086E+02  0.00000000000E+00 0. -1.
        -14    1    4    4    0    0  0.12897134967E+03 -0.73920611708E+02  0.44436241624E+02  0.15515297432E+03  0.00000000000E+00 0.  1.
</event>
<event>
12    1  0.8417180E-002  0.2707082E+03  0.7818608E-02  0.1100983E+00
         21   -1    0    0  503  502  0.00000000000E+00  0.00000000000E+00  0.64964578217E+03  0.64964578217E+03  0.00000000000E+00 0.  1.
         21   -1    0    0  501  503 -0.00000000000E+00 -0.00000000000E+00 -0.11446346441E+03  0.11446346441E+03  0.00000000000E+00 0.  1.
          6    2    1    2  501    0 -0.20342630968E+03  0.43110011410E+02  0.21703309751E+03  0.34637508029E+03  0.17213829985E+03 0.  0.
         24    2    3    3    0    0 -0.19227730578E+03  0.54622860461E+02  0.23746206012E+03  0.31998799074E+03  0.77780878262E+02 0.  0.
         -6    2    1    2    0  502  0.20342630968E+03 -0.43110011410E+02  0.31814922025E+03  0.41773416629E+03  0.17332677460E+03 0.  0.
        -24    2    5    5    0    0  0.19212348832E+03 -0.57599697003E+02  0.33114304439E+03  0.39474211930E+03  0.77048459023E+02 0.  0.
          5    1    3    3  501    0 -0.11149003902E+02 -0.11512849051E+02 -0.20428962609E+02  0.26387089543E+02  0.47000000000E+01 0. -1.
        -11    1    4    4    0    0 -0.10587184198E+03 -0.13840162141E+01  0.83869331896E+02  0.13507341433E+03  0.00000000000E+00 0.  1.
         12    1    4    4    0    0 -0.86405463795E+02  0.56006876675E+02  0.15359272822E+03  0.18491457642E+03  0.00000000000E+00 0. -1.
         -5    1    5    5    0  502  0.11302821358E+02  0.14489685592E+02 -0.12993824146E+02  0.22992046998E+02  0.47000000000E+01 0.  1.
         11    1    6    6    0    0 -0.15670008733E+00 -0.18502422876E+02  0.32779313111E+02  0.37641035789E+02  0.00000000000E+00 0. -1.
        -12    1    6    6    0    0  0.19228018841E+03 -0.39097274126E+02  0.29836373128E+03  0.35710108351E+03  0.00000000000E+00 0.  1.
</event>
<event>
12    1  0.8417180E-002  0.1977469E+03  0.7818608E-02  0.1151685E+00
         21   -1    0    0  501  502  0.00000000000E+00  0.00000000000E+00  0.26035252002E+03  0.26035252002E+03  0.00000000000E+00 0. -1.
         21   -1    0    0  502  503 -0.00000000000E+00 -0.00000000000E+00 -0.46489030754E+03  0.46489030754E+03  0.00000000000E+00 0. -1.
         -6    2    1    2    0  503  0.18499224069E+02  0.94319203069E+02 -0.40065697194E+03  0.44673504901E+03  0.17264953371E+03 0.  0.
        -24    2    3    3    0    0  0.66963093908E+02  0.97684601895E+02 -0.34254183872E+03  0.37084347307E+03  0.78508807479E+02 0.  0.
          6    2    1    2  501    0 -0.18499224069E+02 -0.94319203069E+02  0.19611918441E+03  0.27850777856E+03  0.17281641954E+03 0.  0.
         24    2    5    5    0    0 -0.41187544079E+02 -0.18290418512E+02  0.10237419520E+02  0.76346317180E+02  0.60770076452E+02 0.  0.
          5    1    5    5  501    0  0.22688320011E+02 -0.76028784557E+02  0.18588176489E+03  0.20216146138E+03  0.47000000000E+01 0. -1.
        -13    1    6    6    0    0 -0.26342703112E+02  0.23571274128E+01  0.32948974627E+02  0.42250786807E+02  0.00000000000E+00 0.  1.
         14    1    6    6    0    0 -0.14844840968E+02 -0.20647545925E+02 -0.22711555107E+02  0.34095530373E+02  0.00000000000E+00 0. -1.
         -5    1    3    3    0  503 -0.48463869840E+02 -0.33653988267E+01 -0.58115133216E+02  0.75891575935E+02  0.47000000000E+01 0.  1.
         11    1    4    4    0    0  0.12674528808E+02  0.84288542726E+02 -0.18556135695E+03  0.20420141848E+03  0.00000000000E+00 0. -1.
        -12    1    4    4    0    0  0.54288565100E+02  0.13396059170E+02 -0.15698048177E+03  0.16664205459E+03  0.00000000000E+00 0.  1.
</event>
<event>
12    1  0.8417180E-002  0.2174806E+03  0.7818608E-02  0.1135953E+00
         21   -1    0    0  501  502  0.00000000000E+00  0.00000000000E+00  0.81447933940E+03  0.81447933940E+03  0.00000000000E+00 0.  1.
         21   -1    0    0  502  503 -0.00000000000E+00 -0.00000000000E+00 -0.64516471661E+02  0.64516471661E+02  0.00000000000E+00 0. -1.
         -6    2    1    2    0  503  0.92935504550E+02 -0.94805743889E+02  0.23412684802E+03  0.31955155860E+03  0.17225759944E+03 0.  0.
        -24    2    3    3    0    0  0.18503123800E+02 -0.99762601430E+02  0.21132236078E+03  0.24140500155E+03  0.57656676753E+02 0.  0.
          6    2    1    2  501    0 -0.92935504550E+02  0.94805743889E+02  0.51583601972E+03  0.55944425246E+03  0.17107289465E+03 0.  0.
         24    2    5    5    0    0 -0.55111952989E+02  0.77069729349E+02  0.49914204542E+03  0.51421189631E+03  0.79334874190E+02 0.  0.
          5    1    5    5  501    0 -0.37823551561E+02  0.17736014540E+02  0.16693974308E+02  0.45232356148E+02  0.47000000000E+01 0. -1.
        -11    1    6    6    0    0 -0.30854552856E+02 -0.10461779127E+02  0.14382927145E+03  0.14747308765E+03  0.00000000000E+00 0.  1.
         12    1    6    6    0    0 -0.24257400133E+02  0.87531508477E+02  0.35531277396E+03  0.36673880866E+03  0.00000000000E+00 0. -1.
         -5    1    3    3    0  503  0.74432380751E+02  0.49568575405E+01  0.22804487237E+02  0.78146557052E+02  0.47000000000E+01 0.  1.
         11    1    4    4    0    0  0.16691589700E+02 -0.15336906407E+02  0.13673969873E+02  0.26472765570E+02  0.00000000000E+00 0. -1.
        -12    1    4    4    0    0  0.18115340999E+01 -0.84425695023E+02  0.19764839091E+03  0.21493223598E+03  0.00000000000E+00 0.  1.
</event>
<event>
12    1  0.8417180E-002  0.1875150E+03  0.7818608E-02  0.1160729E+00
         21   -1    0    0  503  502  0.00000000000E+00  0.00000000000E+00  0.80555161768E+02  0.80555161768E+02  0.00000000000E+00 0.  1.
         21   -1    0    0  501  503 -0.00000000000E+00 -0.00000000000E+00 -0.66319674087E+03  0.66319674087E+03  0.00000000000E+00 0.  1.
          6    2    1    2  501    0 -0.73784567295E+02 -0.35352806637E+01 -0.50879684608E+03  0.54225095033E+03  0.17235197120E+03 0.  0.
         24    2    3    3    0    0 -0.52707690461E+02 -0.62779695509E+02 -0.23350191566E+03  0.25982658144E+03  0.79166388105E+02 0.  0.
         -6    2    1    2    0  502  0.73784567295E+02  0.35352806637E+01 -0.73844733027E+02  0.20150095231E+03  0.17231636198E+03 0.  0.
        -24    2    5    5    0    0  0.93254786306E+02 -0.13542882939E+02 -0.26423583260E+00  0.12335408630E+03  0.79600853880E+02 0.  0.
          5    1    3    3  501    0 -0.21076876834E+02  0.59244414845E+02 -0.27529493042E+03  0.28242436889E+03  0.47000000000E+01 0. -1.
        -11    1    4    4    0    0  0.10199776082E+02 -0.20751298502E+02 -0.12759263943E+03  0.12967086588E+03  0.00000000000E+00 0.  1.
         12    1    4    4    0    0 -0.62907466543E+02 -0.42028397008E+02 -0.10590927623E+03  0.13015571556E+03  0.00000000000E+00 0. -1.
         -5    1    5    5    0  502 -0.19470219011E+02  0.17078163602E+02 -0.73580497195E+02  0.78146866014E+02  0.47000000000E+01 0.  1.
         13    1    6    6    0    0  0.44578076427E+02 -0.37049306972E+02 -0.25948290664E+02  0.63507242370E+02  0.00000000000E+00 0. -1.
        -14    1    6    6    0    0  0.48676709879E+02  0.23506424034E+02  0.25684054831E+02  0.59846843927E+02  0.00000000000E+00 0.  1.
</event>
<event>
12    1  0.8417180E-002  0.2225398E+03  0.7818608E-02  0.1132300E+00
         21   -1    0    0  503  502  0.00000000000E+00  0.00000000000E+00  0.82135375954E+03  0.82135375954E+03  0.00000000000E+00 0.  1.
         21   -1    0    0  501  503 -0.00000000000E+00 -0.00000000000E+00 -0.64881051931E+02  0.64881051931E+02  0.00000000000E+00 0. -1.
          6    2    1    2  501    0 -0.11959994133E+03  0.68432083838E+02  0.25624081719E+03  0.33938670106E+03  0.17474804835E+03 0.  0.
         24    2    3    3    0    0 -0.34330959632E+02 -0.11528808892E+02  0.18175493228E+03  0.20069718936E+03  0.77025828050E+02 0.  0.
         -6    2    1    2    0  502  0.11959994133E+03 -0.68432083838E+02  0.50023189042E+03  0.54684811041E+03  0.17269573127E+03 0.  0.
        -24    2    5    5    0    0  0.32029590227E+02  0.27458666435E+02  0.23713054750E+03  0.25340644836E+03  0.78765846017E+02 0.  0.
          5    1    3    3  501    0 -0.85268981694E+02  0.79960892730E+02  0.74485884909E+02  0.13868951170E+03  0.47000000000E+01 0. -1.
        -11    1    4    4    0    0  0.21964257033E+02  0.10753621850E+02  0.47683390107E+02  0.53588941602E+02  0.00000000000E+00 0.  1.
         12    1    4    4    0    0 -0.56295216664E+02 -0.22282430742E+02  0.13407154217E+03  0.14710824776E+03  0.00000000000E+00 0. -1.
         -5    1    5    5    0  502  0.87570351099E+02 -0.95890750273E+02  0.26310134292E+03  0.29344166205E+03  0.47000000000E+01 0.  1.
         11    1    6    6    0    0 -0.79213282338E+01 -0.16260722025E+02  0.14944213124E+02  0.23462481277E+02  0.00000000000E+00 0. -1.
        -12    1    6    6    0    0  0.39950918460E+02  0.43719388460E+02  0.22218633438E+03  0.22994396708E+03  0.00000000000E+00 0.  1.
</event>
<event>
12    1  0.8417180E-002  0.1742219E+03  0.7818608E-02  0.1173698E+00
         21   -1    0    0  503  502  0.00000000000E+00  0.00000000000E+00  0.24469736834E+03  0.24469736834E+03  0.00000000000E+00 0.  1.
         21   -1    0    0  501  503 -0.00000000000E+00 -0.00000000000E+00 -0.19387619717E+03  0.19387619717E+03  0.00000000000E+00 0.  1.
          6    2    1    2  501    0 -0.16831711102E+02  0.18222160733E+02 -0.10671190662E+03  0.20369073535E+03  0.17171817322E+03 0.  0.
         24    2    3    3    0    0 -0.51130431666E+02  0.64201884699E+02 -0.58843855169E+02  0.12883101589E+03  0.79991426561E+02 0.  0.
         -6    2    1    2    0  502  0.16831711102E+02 -0.18222160733E+02  0.15753307779E+03  0.23488283016E+03  0.17244686041E+03 0.  0.
        -24    2    5    5    0    0 -0.36267696910E+02 -0.55638493155E+02  0.69274988818E+02  0.12519641654E+03  0.80399818902E+02 0.  0.
          5    1    3    3  501    0  0.34298720565E+02 -0.45979723966E+02 -0.47868051449E+02  0.74859719462E+02  0.47000000000E+01 0. -1.
        -13    1    4    4    0    0 -0.15813799300E+02 -0.13498620016E+02 -0.34148405222E+02  0.39980027137E+02  0.00000000000E+00 0.  1.
         14    1    4    4    0    0 -0.35316632366E+02  0.77700504715E+02 -0.24695449946E+02  0.88850988755E+02  0.00000000000E+00 0. -1.
         -5    1    5    5    0  502  0.53099408011E+02  0.37416332422E+02  0.88258088970E+02  0.10968641361E+03  0.47000000000E+01 0.  1.
         13    1    6    6    0    0 -0.24183525077E+02  0.16131427896E+02  0.82514394838E+01  0.30218406719E+02  0.00000000000E+00 0. -1.
        -14    1    6    6    0    0 -0.12084171833E+02 -0.71769921051E+02  0.61023549334E+02  0.94978009822E+02  0.00000000000E+00 0.  1.
</event>
<event>
12    1  0.8417180E-002  0.2954355E+03  0.7818608E-02  0.1087737E+00
         21   -1    0    0  503  502  0.00000000000E+00  0.00000000000E+00  0.15239087185E+03  0.15239087185E+03  0.00000000000E+00 0.  1.
         21   -1    0    0  501  503 -0.00000000000E+00 -0.00000000000E+00 -0.57269355125E+03  0.57269355125E+03  0.00000000000E+00 0. -1.
          6    2    1    2  501    0  0.12195340558E+02 -0.23991953769E+03 -0.18509405187E+03  0.34862866582E+03  0.17196519327E+03 0.  0.
         24    2    3    3    0    0  0.71512356386E+02 -0.13520217165E+03 -0.12502861837E+03  0.21403973084E+03  0.82384504811E+02 0.  0.
         -6    2    1    2    0  502 -0.12195340558E+02  0.23991953769E+03 -0.23520862753E+03  0.37645575727E+03  0.16936861523E+03 0.  0.
        -24    2    5    5    0    0  0.36988427589E+02  0.18721706768E+03 -0.22147709860E+03  0.30292183122E+03  0.79316810437E+02 0.  0.
          5    1    3    3  501    0 -0.59317015828E+02 -0.10471736604E+03 -0.60065433507E+02  0.13458893498E+03  0.47000000000E+01 0. -1.
        -13    1    4    4    0    0 -0.65241927803E+01  0.27313316883E+01  0.53132763487E+01  0.88462517364E+01  0.00000000000E+00 0.  1.
         14    1    4    4    0    0  0.78036549167E+02 -0.13793350334E+03 -0.13034189472E+03  0.20519347910E+03  0.00000000000E+00 0. -1.
         -5    1    5    5    0  502 -0.49183768147E+02  0.52702470011E+02 -0.13731528923E+02  0.73533926055E+02  0.47000000000E+01 0.  1.
         11    1    6    6    0    0  0.32377146064E+02  0.18456106036E+02 -0.49116141588E+02  0.61654706242E+02  0.00000000000E+00 0. -1.
        -12    1    6    6    0    0  0.46112815244E+01  0.16876096164E+03 -0.17236095702E+03  0.24126712498E+03  0.00000000000E+00 0.  1.
</event>
<event>
12    1  0.8417180E-002  0.1983935E+03  0.7818608E-02  0.1151955E+00
         21   -1    0    0  503  502  0.00000000000E+00  0.00000000000E+00  0.34832011157E+03  0.34832011157E+03  0.00000000000E+00 0. -1.
         21   -1    0    0  501  503 -0.00000000000E+00 -0.00000000000E+00 -0.11557397027E+03  0.11557397027E+03  0.00000000000E+00 0. -1.
          6    2    1    2  501    0 -0.48904395863E+02  0.78358804211E+02  0.16261244564E+03  0.25346901421E+03  0.17109059458E+03 0.  0.
         24    2    3    3    0    0 -0.38308517288E+02  0.49756397377E+01  0.15551486664E+02  0.88707437603E+02  0.78325355161E+02 0.  0.
         -6    2    1    2    0  502  0.48904395863E+02 -0.78358804211E+02  0.70133695653E+02  0.21042506763E+03  0.17557970181E+03 0.  0.
        -24    2    5    5    0    0 -0.20972397239E+02 -0.95518966483E+02  0.40135844889E+02  0.13232770254E+03  0.79599123181E+02 0.  0.
          5    1    3    3  501    0 -0.10595878575E+02  0.73383164474E+02  0.14706095898E+03  0.16476157661E+03  0.47000000000E+01 0. -1.
        -13    1    4    4    0    0 -0.13568330687E+02 -0.21887121963E+02 -0.23768567187E+02  0.35044122069E+02  0.00000000000E+00 0.  1.
         14    1    4    4    0    0 -0.24740186601E+02  0.26862761701E+02  0.39320053852E+02  0.53663315534E+02  0.00000000000E+00 0. -1.
         -5    1    5    5    0  502  0.69876793102E+02  0.17160162271E+02  0.29997850764E+02  0.78097365089E+02  0.47000000000E+01 0.  1.
         13    1    6    6    0    0  0.12418452221E+01 -0.49357430686E+02  0.59717130640E+02  0.77484410273E+02  0.00000000000E+00 0. -1.
        -14    1    6    6    0    0 -0.22214242461E+02 -0.46161535797E+02 -0.19581285751E+02  0.54843292269E+02  0.00000000000E+00 0.  1.
</event>
<event>
12    1  0.8417180E-002  0.2461966E+03  0.7818608E-02  0.1115741E+00
         21   -1    0    0  501  502  0.00000000000E+00  0.00000000000E+00  0.22214088954E+03  0.22214088954E+03  0.00000000000E+00 0.  1.
         21   -1    0    0  502  503 -0.00000000000E+00 -0.00000000000E+00 -0.29172444148E+03  0.29172444148E+03  0.00000000000E+00 0.  1.
         -6    2    1    2    0  503 -0.74346401689E+02  0.15875401598E+03 -0.10024157342E+03  0.26582161079E+03  0.17286564346E+03 0.  0.
        -24    2    3    3    0    0  0.64936375304E+01  0.59601544887E+02  0.59336248616E+01  0.99503881143E+02  0.79191558749E+02 0.  0.
          6    2    1    2  501    0  0.74346401689E+02 -0.15875401598E+03  0.30658021485E+02  0.24804372022E+03  0.17278758007E+03 0.  0.
         24    2    5    5    0    0  0.97746428735E+02 -0.13901398445E+03 -0.19745331344E+02  0.18888445986E+03  0.80051288952E+02 0.  0.
          5    1    5    5  501    0 -0.23400027047E+02 -0.19740031534E+02  0.50403352829E+02  0.59159260367E+02  0.47000000000E+01 0. -1.
        -13    1    6    6    0    0  0.43794687940E+02 -0.19425452262E+02  0.19828300082E+02  0.51850596636E+02  0.00000000000E+00 0.  1.
         14    1    6    6    0    0  0.53951740795E+02 -0.11958853218E+03 -0.39573631425E+02  0.13703386322E+03  0.00000000000E+00 0. -1.
         -5    1    3    3    0  503 -0.80840039219E+02  0.99152471094E+02 -0.10617519828E+03  0.16631772965E+03  0.47000000000E+01 0.  1.
         13    1    4    4    0    0  0.30800133856E+01  0.77111273477E+02 -0.69700529554E+01  0.77486880295E+02  0.00000000000E+00 0. -1.
        -14    1    4    4    0    0  0.34136241448E+01 -0.17509728590E+02  0.12903677817E+02  0.22017000847E+02  0.00000000000E+00 0.  1.
</event>
<event>
12    1  0.8417180E-002  0.1958857E+03  0.7818608E-02  0.1154300E+00
         21   -1    0    0  501  502  0.00000000000E+00  0.00000000000E+00  0.25420977314E+03  0.25420977314E+03  0.00000000000E+00 0.  1.
         21   -1    0    0  502  503 -0.00000000000E+00 -0.00000000000E+00 -0.14750650332E+03  0.14750650332E+03  0.00000000000E+00 0.  1.
         -6    2    1    2    0  503 -0.50904153306E+02 -0.65386533843E+02  0.46599395793E+02  0.20135220990E+03  0.17749528757E+03 0.  0.
        -24    2    3    3    0    0 -0.28882745128E+02 -0.71519817391E+02 -0.34531137843E+02  0.11693175578E+03  0.80816698663E+02 0.  0.
          6    2    1    2  501    0  0.50904153306E+02  0.65386533843E+02  0.60103874023E+02  0.20036406656E+03  0.17224009947E+03 0.  0.
         24    2    5    5    0    0  0.98409435252E+02  0.42291143860E+02  0.23737068125E+02  0.13606178493E+03  0.80476102793E+02 0.  0.
          5    1    5    5  501    0 -0.47505281947E+02  0.23095389983E+02  0.36366805898E+02  0.64302281628E+02  0.47000000000E+01 0. -1.
        -13    1    6    6    0    0  0.60662428046E+02 -0.34875133542E-01  0.44961046593E+02  0.75507794985E+02  0.00000000000E+00 0.  1.
         14    1    6    6    0    0  0.37747007206E+02  0.42326018993E+02 -0.21223978468E+02  0.60553989950E+02  0.00000000000E+00 0. -1.
         -5    1    3    3    0  503 -0.22021408178E+02  0.61332835481E+01  0.81130533636E+02  0.84420454117E+02  0.47000000000E+01 0.  1.
         11    1    4    4    0    0  0.27938559527E+02 -0.16158028072E+02 -0.12353708497E+02  0.34558053957E+02  0.00000000000E+00 0. -1.
        -12    1    4    4    0    0 -0.56821304655E+02 -0.55361789319E+02 -0.22177429346E+02  0.82373701821E+02  0.00000000000E+00 0.  1.
</event>
<event>
12    1  0.8417180E-002  0.1872588E+03  0.7818608E-02  0.1161174E+00
         21   -1    0    0  501  502  0.00000000000E+00  0.00000000000E+00  0.95536331115E+02  0.95536331115E+02  0.00000000000E+00 0.  1.
         21   -1    0    0  502  503 -0.00000000000E+00 -0.00000000000E+00 -0.43797355423E+03  0.43797355423E+03  0.00000000000E+00 0.  1.
         -6    2    1    2    0  503  0.65304692666E+02  0.22430374846E+02 -0.27959498582E+03  0.33598769159E+03  0.17305070992E+03 0.  0.
        -24    2    3    3    0    0 -0.82727304390E+01  0.43318421756E+02 -0.78417715956E+02  0.12071035510E+03  0.80478120759E+02 0.  0.
          6    2    1    2  501    0 -0.65304692666E+02 -0.22430374846E+02 -0.62842237294E+02  0.19752219376E+03  0.17406333801E+03 0.  0.
         24    2    5    5    0    0 -0.96237508226E+02 -0.35928227801E+01  0.33570672692E+00  0.12454798559E+03  0.78977982067E+02 0.  0.
          5    1    5    5  501    0  0.30932815560E+02 -0.18837552066E+02 -0.63177944020E+02  0.72974208163E+02  0.47000000000E+01 0. -1.
        -13    1    6    6    0    0 -0.24543728692E+02 -0.37804534219E+02  0.15653383560E+01  0.45100196339E+02  0.00000000000E+00 0.  1.
         14    1    6    6    0    0 -0.71693779534E+02  0.34211711439E+02 -0.12296316291E+01  0.79447789254E+02  0.00000000000E+00 0. -1.
         -5    1    3    3    0  503  0.73577423105E+02 -0.20888046910E+02 -0.20117726987E+03  0.21527733649E+03  0.47000000000E+01 0.  1.
         13    1    4    4    0    0 -0.30563426377E+02  0.54523800010E+01 -0.69155934721E+02  0.75804978641E+02  0.00000000000E+00 0. -1.
        -14    1    4    4    0    0  0.22290695938E+02  0.37866041754E+02 -0.92617812348E+01  0.44905376462E+02  0.00000000000E+00 0.  1.
</event>
<event>
12    1  0.8417180E-002  0.2926550E+03  0.7818608E-02  0.1088976E+00
         21   -1    0    0  501  502  0.00000000000E+00  0.00000000000E+00  0.16035947133E+03  0.16035947133E+03  0.00000000000E+00 0.  1.
         21   -1    0    0  502  503 -0.00000000000E+00 -0.00000000000E+00 -0.63646877788E+03  0.63646877788E+03  0.00000000000E+00 0.  1.
         -6    2    1    2    0  503  0.12569566560E+02  0.23709500472E+03 -0.78225832544E+02  0.30292943126E+03  0.17109916475E+03 0.  0.
        -24    2    3    3    0    0 -0.22459477225E+02  0.51241338373E+02 -0.54512699486E+02  0.11226474684E+03  0.80632723526E+02 0.  0.
          6    2    1    2  501    0 -0.12569566560E+02 -0.23709500472E+03 -0.39788347401E+03  0.49389881795E+03  0.17103434805E+03 0.  0.
         24    2    5    5    0    0  0.13182915064E+01 -0.47248086274E+02 -0.19130561738E+03  0.21295180178E+03  0.80724909971E+02 0.  0.
          5    1    5    5  501    0 -0.13887858066E+02 -0.18984691845E+03 -0.20657785663E+03  0.28094701617E+03  0.47000000000E+01 0. -1.
        -13    1    6    6    0    0  0.54801646279E+01 -0.68565398463E+02 -0.16548482012E+03  0.17921069098E+03  0.00000000000E+00 0.  1.
         14    1    6    6    0    0 -0.41618731215E+01  0.21317312189E+02 -0.25820797265E+02  0.33741110803E+02  0.00000000000E+00 0. -1.
         -5    1    3    3    0  503  0.35029043785E+02  0.18585366635E+03 -0.23713133057E+02  0.19066468442E+03  0.47000000000E+01 0.  1.
         13    1    4    4    0    0  0.64485000992E+01  0.15336033419E+02  0.19150402269E+02  0.25367597081E+02  0.00000000000E+00 0. -1.
        -14    1    4    4    0    0 -0.28907977324E+02  0.35905304953E+02 -0.73663101756E+02  0.86897149764E+02  0.00000000000E+00 0.  1.
</event>
<event>
12    1  0.8417180E-002  0.1989432E+03  0.7818608E-02  0.1151331E+00
         21   -1    0    0  503  502  0.00000000000E+00  0.00000000000E+00  0.80275057944E+03  0.80275057944E+03  0.00000000000E+00 0. -1.
         21   -1    0    0  501  503 -0.00000000000E+00 -0.00000000000E+00 -0.50000525412E+02  0.50000525412E+02  0.00000000000E+00 0. -1.
          6    2    1    2  501    0  0.38047017767E+02  0.90242310333E+02  0.44720990586E+03  0.48815106673E+03  0.16942111416E+03 0.  0.
         24    2    3    3    0    0  0.43254570436E+02  0.11609426705E+03  0.26025999405E+03  0.29929185516E+03  0.80569928379E+02 0.  0.
         -6    2    1    2    0  502 -0.38047017767E+02 -0.90242310333E+02  0.30554014818E+03  0.36460003812E+03  0.17316799796E+03 0.  0.
        -24    2    5    5    0    0 -0.89132496995E+02 -0.69486172249E+02  0.26188925641E+03  0.29411575755E+03  0.71729812917E+02 0.  0.
          5    1    3    3  501    0 -0.52075526698E+01 -0.25851956714E+02  0.18694991181E+03  0.18885921157E+03  0.47000000000E+01 0. -1.
        -13    1    4    4    0    0  0.16192128739E+02 -0.97611628031E+01  0.37968667593E+02  0.42415622725E+02  0.00000000000E+00 0.  1.
         14    1    4    4    0    0  0.27062441698E+02  0.12585542985E+03  0.22229132645E+03  0.25687623243E+03  0.00000000000E+00 0. -1.
         -5    1    5    5    0  502  0.51085479228E+02 -0.20756138083E+02  0.43650891765E+02  0.70484280574E+02  0.47000000000E+01 0.  1.
         13    1    6    6    0    0 -0.11968725952E+02 -0.38240506636E+02  0.37892873134E+02  0.55149402381E+02  0.00000000000E+00 0. -1.
        -14    1    6    6    0    0 -0.77163771043E+02 -0.31245665613E+02  0.22399638328E+03  0.23896635517E+03  0.00000000000E+00 0.  1.
</event>
<event>
12    1  0.8417180E-002  0.1967763E+03  0.7818608E-02  0.1152619E+00
         21   -1    0    0  501  502  0.00000000000E+00  0.00000000000E+00  0.32457686342E+03  0.32457686342E+03  0.00000000000E+00 0. -1.
         21   -1    0    0  502  503 -0.00000000000E+00 -0.00000000000E+00 -0.24861774299E+03  0.24861774299E+03  0.00000000000E+00 0. -1.
         -6    2    1    2    0  503  0.58457578067E+02  0.73510068036E+02 -0.16904269549E+03  0.25895454661E+03  0.17222370852E+03 0.  0.
        -24    2    3    3    0    0  0.94695921234E+02  0.88471897701E+02 -0.10877419196E+03  0.18690278479E+03  0.79411787203E+02 0.  0.
          6    2    1    2  501    0 -0.58457578067E+02 -0.73510068036E+02  0.24500181593E+03  0.31424005979E+03  0.17291589527E+03 0.  0.
         24    2    5    5    0    0 -0.71375515987E+02 -0.11212306657E+03  0.20522705705E+03  0.25712650432E+03  0.79560341490E+02 0.  0.
          5    1    5    5  501    0  0.12917937920E+02  0.38612998530E+02  0.39774758876E+02  0.57113555477E+02  0.47000000000E+01 0. -1.
        -11    1    6    6    0    0 -0.18878112464E+02 -0.30427120202E+02  0.71342149042E+01  0.36511502246E+02  0.00000000000E+00 0.  1.
         12    1    6    6    0    0 -0.52497403523E+02 -0.81695946364E+02  0.19809284215E+03  0.22061500207E+03  0.00000000000E+00 0. -1.
         -5    1    3    3    0  503 -0.36238343167E+02 -0.14961829666E+02 -0.60268503538E+02  0.72051761818E+02  0.47000000000E+01 0.  1.
         13    1    4    4    0    0  0.67452136209E+02  0.28684742250E+02 -0.94627334247E+02  0.11969518580E+03  0.00000000000E+00 0. -1.
        -14    1    4    4    0    0  0.27243785025E+02  0.59787155451E+02 -0.14146857709E+02  0.67207598994E+02  0.00000000000E+00 0.  1.
</event>
<event>
12    1  0.8417180E-002  0.2404485E+03  0.7818608E-02  0.1120353E+00
         21   -1    0    0  503  502  0.00000000000E+00  0.00000000000E+00  0.42939183622E+02  0.42939183622E+02  0.00000000000E+00 0.  1.
         21   -1    0    0  501  503 -0.00000000000E+00 -0.00000000000E+00 -0.13374647878E+04  0.13374647878E+04  0.00000000000E+00 0.  1.
          6    2    1    2  501    0 -0.93972865191E+02 -0.12989597031E+03 -0.72369948997E+03  0.76100271466E+03  0.17227976502E+03 0.  0.
         24    2    3    3    0    0 -0.11200076084E+03 -0.65490176018E+02 -0.60955164025E+03  0.62862094493E+03  0.82328346810E+02 0.  0.
         -6    2    1    2    0  502  0.93972865191E+02  0.12989597031E+03 -0.57082611421E+03  0.61940125677E+03  0.17919710301E+03 0.  0.
        -24    2    5    5    0    0  0.84117590260E+02  0.24954504778E+02 -0.41106036401E+03  0.42794101920E+03  0.80401472341E+02 0.  0.
          5    1    3    3  501    0  0.18027895651E+02 -0.64405794294E+02 -0.11414784971E+03  0.13238176972E+03  0.47000000000E+01 0. -1.
        -11    1    4    4    0    0 -0.60904546699E+02 -0.78295342904E+02 -0.35039893376E+03  0.36416883077E+03  0.00000000000E+00 0.  1.
         12    1    4    4    0    0 -0.51096214143E+02  0.12805166886E+02 -0.25915270650E+03  0.26445211416E+03  0.00000000000E+00 0. -1.
         -5    1    5    5    0  502  0.98552749313E+01  0.10494146553E+03 -0.15976575020E+03  0.19146023757E+03  0.47000000000E+01 0.  1.
         11    1    6    6    0    0  0.71267355863E+02  0.73051523784E+01 -0.39337335313E+03  0.39984371474E+03  0.00000000000E+00 0. -1.
        -12    1    6    6    0    0  0.12850234396E+02  0.17649352400E+02 -0.17687010880E+02  0.28097304462E+02  0.00000000000E+00 0.  1.
</event>
<event>
12    1  0.8417180E-002  0.4464276E+03  0.7818608E-02  0.1029186E+00
         21   -1    0    0  501  502  0.00000000000E+00  0.00000000000E+00  0.15109558276E+04  0.15109558276E+04  0.00000000000E+00 0. -1.
         21   -1    0    0  502  503 -0.00000000000E+00 -0.00000000000E+00 -0.86407824262E+03  0.86407824262E+03  0.00000000000E+00 0.  1.
         -6    2    1    2    0  503 -0.33159023039E+03 -0.23465793336E+03 -0.77111323505E+03  0.88842867656E+03  0.17225987775E+03 0.  0.
        -24    2    3    3    0    0 -0.26726257553E+03 -0.11744258499E+03 -0.59449944706E+03  0.66686151928E+03  0.77798767993E+02 0.  0.
          6    2    1    2  501    0  0.33159023039E+03  0.23465793336E+03  0.14179908200E+04  0.14866053936E+04  0.18515184102E+03 0.  0.
         24    2    5    5    0    0  0.13199112774E+03  0.14044882617E+03  0.48074776821E+03  0.52371298751E+03  0.77519972117E+02 0.  0.
          5    1    5    5  501    0  0.19959910265E+03  0.94209107183E+02  0.93724305178E+03  0.96289240612E+03  0.47000000000E+01 0. -1.
        -11    1    6    6    0    0  0.55986523668E+02  0.10401818979E+03  0.33667444708E+03  0.35679680205E+03  0.00000000000E+00 0.  1.
         12    1    6    6    0    0  0.76004604071E+02  0.36430636388E+02  0.14407332113E+03  0.16691618547E+03  0.00000000000E+00 0. -1.
         -5    1    3    3    0  503 -0.64327654858E+02 -0.11721534837E+03 -0.17661378799E+03  0.22156715727E+03  0.47000000000E+01 0.  1.
         11    1    4    4    0    0 -0.12566820184E+03 -0.58800447614E+02 -0.36890630467E+03  0.39413430607E+03  0.00000000000E+00 0. -1.
        -12    1    4    4    0    0 -0.14159437369E+03 -0.58642137372E+02 -0.22559314239E+03  0.27272721321E+03  0.00000000000E+00 0.  1.
</event>
<event>
12    1  0.8417180E-002  0.2189483E+03  0.7818608E-02  0.1135831E+00
         21   -1    0    0  503  502  0.00000000000E+00  0.00000000000E+00  0.17277843482E+03  0.17277843482E+03  0.00000000000E+00 0. -1.
         21   -1    0    0  501  503 -0.00000000000E+00 -0.00000000000E+00 -0.28370378793E+03  0.28370378793E+03  0.00000000000E+00 0. -1.
          6    2    1    2  501    0  0.11946071467E+03  0.59340169087E+02 -0.10527187482E+03  0.23746095655E+03  0.16587169813E+03 0.  0.
         24    2    3    3    0    0  0.25197915098E+02  0.65613565841E+01 -0.96415263788E+02  0.12896391516E+03  0.81595355235E+02 0.  0.
         -6    2    1    2    0  502 -0.11946071467E+03 -0.59340169087E+02 -0.56534782912E+01  0.21902126619E+03  0.17362671226E+03 0.  0.
        -24    2    5    5    0    0  0.51307680019E+01 -0.19818775268E+01 -0.15630034625E+02  0.81418094567E+02  0.79714211542E+02 0.  0.
          5    1    3    3  501    0  0.94262799573E+02  0.52778812503E+02 -0.88566110348E+01  0.10849704140E+03  0.47000000000E+01 0. -1.
        -13    1    4    4    0    0 -0.23956977286E+01  0.34962160089E+02 -0.14395544884E+02  0.37885666395E+02  0.00000000000E+00 0.  1.
         14    1    4    4    0    0  0.27593612827E+02 -0.28400803505E+02 -0.82019718904E+02  0.91078248763E+02  0.00000000000E+00 0. -1.
         -5    1    5    5    0  502 -0.12459148267E+03 -0.57358291560E+02  0.99765563337E+01  0.13760317163E+03  0.47000000000E+01 0.  1.
         13    1    6    6    0    0 -0.36499120196E+02  0.69466614766E+01 -0.99558885275E+01  0.38465069831E+02  0.00000000000E+00 0. -1.
        -14    1    6    6    0    0  0.41629888198E+02 -0.89285390034E+01 -0.56741460975E+01  0.42953024736E+02  0.00000000000E+00 0.  1.
</event>
<event>
12    1  0.8417180E-002  0.2457700E+03  0.7818608E-02  0.1116081E+00
         21   -1    0    0  501  502  0.00000000000E+00  0.00000000000E+00  0.62293090739E+03  0.62293090739E+03  0.00000000000E+00 0.  1.
         21   -1    0    0  502  503 -0.00000000000E+00 -0.00000000000E+00 -0.97805949995E+02  0.97805949995E+02  0.00000000000E+00 0. -1.
         -6    2    1    2    0  503  0.16819897766E+03  0.48293546521E+02  0.29959526435E+03  0.38750514820E+03  0.17256811623E+03 0.  0.
        -24    2    3    3    0    0  0.87595282767E+02  0.94928640813E+02  0.20280862897E+03  0.25311195478E+03  0.79056569977E+02 0.  0.
          6    2    1    2  501    0 -0.16819897766E+03 -0.48293546521E+02  0.22552969304E+03  0.33323170918E+03  0.17192023395E+03 0.  0.
         24    2    5    5    0    0 -0.82806177800E+02  0.20908180506E+02  0.53639296518E+02  0.12915033397E+03  0.80676015895E+02 0.  0.
          5    1    5    5  501    0 -0.85392799857E+02 -0.69201727027E+02  0.17189039652E+03  0.20408137521E+03  0.47000000000E+01 0. -1.
        -11    1    6    6    0    0 -0.45748123734E+02 -0.23673631094E+01  0.68956499421E+02  0.82785832397E+02  0.00000000000E+00 0.  1.
         12    1    6    6    0    0 -0.37058054066E+02  0.23275543615E+02 -0.15317202902E+02  0.46364501577E+02  0.00000000000E+00 0. -1.
         -5    1    3    3    0  503  0.80603694890E+02 -0.46635094292E+02  0.96786635375E+02  0.13439319342E+03  0.47000000000E+01 0.  1.
         13    1    4    4    0    0  0.12455323540E+02 -0.57006690137E+01  0.65973936364E+02  0.67380954216E+02  0.00000000000E+00 0. -1.
        -14    1    4    4    0    0  0.75139959227E+02  0.10062930983E+03  0.13683469261E+03  0.18573100056E+03  0.00000000000E+00 0.  1.
</event>
<event>
12    1  0.8417180E-002  0.2647610E+03  0.7818608E-02  0.1104722E+00
         21   -1    0    0  501  502  0.00000000000E+00  0.00000000000E+00  0.53202227315E+03  0.53202227315E+03  0.00000000000E+00 0.  1.
         21   -1    0    0  502  503 -0.00000000000E+00 -0.00000000000E+00 -0.13942439744E+03  0.13942439744E+03  0.00000000000E+00 0. -1.
         -6    2    1    2    0  503 -0.18243648528E+03  0.76151375754E+02  0.28078621437E+03  0.38404413406E+03  0.17195027054E+03 0.  0.
        -24    2    3    3    0    0 -0.80055624537E+02 -0.41770145550E+01  0.63089521687E+02  0.13037420888E+03  0.81183718350E+02 0.  0.
          6    2    1    2  501    0  0.18243648528E+03 -0.76151375754E+02  0.11181166135E+03  0.28740253653E+03  0.17611435829E+03 0.  0.
         24    2    5    5    0    0  0.54192422014E+02 -0.10297204508E+02 -0.10050914784E+02  0.98574866160E+02  0.81074856313E+02 0.  0.
          5    1    5    5  501    0  0.12824406327E+03 -0.65854171247E+02  0.12186257613E+03  0.18882767037E+03  0.47000000000E+01 0. -1.
        -13    1    6    6    0    0  0.38038567502E+01 -0.27244045687E+02  0.23102194936E+02  0.35922399175E+02  0.00000000000E+00 0.  1.
         14    1    6    6    0    0  0.50388565263E+02  0.16946841179E+02 -0.33153109720E+02  0.62652466986E+02  0.00000000000E+00 0. -1.
         -5    1    3    3    0  503 -0.10238086075E+03  0.80328390309E+02  0.21769669268E+03  0.25366992518E+03  0.47000000000E+01 0.  1.
         11    1    4    4    0    0 -0.71102784492E+02  0.31118017548E+02  0.44995057057E+02  0.89713388846E+02  0.00000000000E+00 0. -1.
        -12    1    4    4    0    0 -0.89528400451E+01 -0.35295032103E+02  0.18094464629E+02  0.40660820039E+02  0.00000000000E+00 0.  1.
</event>
<event>
12    1  0.8417180E-002  0.2014952E+03  0.7818608E-02  0.1148786E+00
         21   -1    0    0  503  502  0.00000000000E+00  0.00000000000E+00  0.48878139872E+03  0.48878139872E+03  0.00000000000E+00 0. -1.
         21   -1    0    0  501  503 -0.00000000000E+00 -0.00000000000E+00 -0.94136196566E+02  0.94136196566E+02  0.00000000000E+00 0. -1.
          6    2    1    2  501    0  0.54597550296E+02 -0.90576566705E+02  0.30054456546E+03  0.36183885722E+03  0.17150893806E+03 0.  0.
         24    2    3    3    0    0 -0.87983636062E+01 -0.35535444253E+02  0.24773223298E+03  0.26254233400E+03  0.78848201562E+02 0.  0.
         -6    2    1    2    0  502 -0.54597550296E+02  0.90576566705E+02  0.94100636693E+02  0.22107873806E+03  0.16981128250E+03 0.  0.
        -24    2    5    5    0    0  0.19394718665E+02  0.59476284851E+02  0.99895803182E+02  0.14047007009E+03  0.76413909248E+02 0.  0.
          5    1    3    3  501    0  0.63395913902E+02 -0.55041122452E+02  0.52812332481E+02  0.99296523214E+02  0.47000000000E+01 0. -1.
        -11    1    4    4    0    0 -0.14950884669E+02  0.23225566921E+02  0.70292646136E+02  0.75524909878E+02  0.00000000000E+00 0.  1.
         12    1    4    4    0    0  0.61525210633E+01 -0.58761011174E+02  0.17743958684E+03  0.18701742413E+03  0.00000000000E+00 0. -1.
         -5    1    5    5    0  502 -0.73992268961E+02  0.31100281853E+02 -0.57951664890E+01  0.80608667971E+02  0.47000000000E+01 0.  1.
         11    1    6    6    0    0 -0.19712551458E+02  0.12594067405E+02 -0.36748834588E-02  0.23392204520E+02  0.00000000000E+00 0. -1.
        -12    1    6    6    0    0  0.39107270124E+02  0.46882217447E+02  0.99899478066E+02  0.11707786557E+03  0.00000000000E+00 0.  1.
</event>
<event>
12    1  0.8417180E-002  0.2177399E+03  0.7818608E-02  0.1136118E+00
         21   -1    0    0  503  502  0.00000000000E+00  0.00000000000E+00  0.81836292251E+03  0.81836292251E+03  0.00000000000E+00 0. -1.
         21   -1    0    0  501  503 -0.00000000000E+00 -0.00000000000E+00 -0.66424196463E+02  0.66424196463E+02  0.00000000000E+00 0.  1.
          6    2    1    2  501    0 -0.98531306921E+02 -0.81694303059E+02  0.20884058239E+03  0.29966639185E+03  0.17263597526E+03 0.  0.
         24    2    3    3    0    0 -0.50369786308E+02 -0.11041991380E+03  0.94831942959E+02  0.17252571132E+03  0.77732560258E+02 0.  0.
         -6    2    1    2    0  502  0.98531306921E+02  0.81694303059E+02  0.54309814366E+03  0.58512072713E+03  0.17614850005E+03 0.  0.
        -24    2    5    5    0    0  0.11960213157E+03  0.13450430029E+02  0.33855717474E+03  0.36841746498E+03  0.81393390344E+02 0.  0.
          5    1    3    3  501    0 -0.48161520612E+02  0.28725610744E+02  0.11400863943E+03  0.12714068053E+03  0.47000000000E+01 0. -1.
        -13    1    4    4    0    0 -0.64552432160E+02 -0.65104505109E+02  0.82811237027E+02  0.12354478565E+03  0.00000000000E+00 0.  1.
         14    1    4    4    0    0  0.14182645852E+02 -0.45315408694E+02  0.12020705932E+02  0.48980925671E+02  0.00000000000E+00 0. -1.
         -5    1    5    5    0  502 -0.21070824649E+02  0.68243873030E+02  0.20454096892E+03  0.21670326215E+03  0.47000000000E+01 0.  1.
         13    1    6    6    0    0  0.32542860280E+02  0.36992272031E+02  0.17312761589E+03  0.18000177035E+03  0.00000000000E+00 0. -1.
        -14    1    6    6    0    0  0.87059271290E+02 -0.23541842002E+02  0.16542955885E+03  0.18841569463E+03  0.00000000000E+00 0.  1.
</event>
<event>
12    1  0.8417180E-002  0.1949437E+03  0.7818608E-02  0.1154244E+00
         21   -1    0    0  501  502  0.00000000000E+00  0.00000000000E+00  0.69193177206E+02  0.69193177206E+02  0.00000000000E+00 0. -1.
         21   -1    0    0  502  503 -0.00000000000E+00 -0.00000000000E+00 -0.71043174520E+03  0.71043174520E+03  0.00000000000E+00 0. -1.
         -6    2    1    2    0  503  0.89543097824E+02 -0.22494690421E+02 -0.13321357213E+03  0.23548114047E+03  0.17082603505E+03 0.  0.
        -24    2    3    3    0    0  0.36246940920E+02 -0.74498218268E+02 -0.57557781785E+02  0.12922326612E+03  0.80758460923E+02 0.  0.
          6    2    1    2  501    0 -0.89543097824E+02  0.22494690421E+02 -0.50802499586E+03  0.54414378193E+03  0.17169473356E+03 0.  0.
         24    2    5    5    0    0 -0.12790170479E+03  0.19810358009E+02 -0.43440961022E+03  0.46095782535E+03  0.83780134477E+02 0.  0.
          5    1    5    5  501    0  0.38358606965E+02  0.26843324126E+01 -0.73615385646E+02  0.83185956583E+02  0.47000000000E+01 0. -1.
        -13    1    6    6    0    0 -0.10229351436E+02  0.10752205508E+02 -0.17882682262E+03  0.17944158393E+03  0.00000000000E+00 0.  1.
         14    1    6    6    0    0 -0.11767235335E+03  0.90581525007E+01 -0.25558278759E+03  0.28151624142E+03  0.00000000000E+00 0. -1.
         -5    1    3    3    0  503  0.53296156904E+02  0.52003527847E+02 -0.75655790349E+02  0.10625787436E+03  0.47000000000E+01 0.  1.
         13    1    4    4    0    0  0.55171155239E+02 -0.21786726513E+02 -0.34789661322E+02  0.68766549699E+02  0.00000000000E+00 0. -1.
        -14    1    4    4    0    0 -0.18924214319E+02 -0.52711491755E+02 -0.22768120463E+02  0.60456716418E+02  0.00000000000E+00 0.  1.
</event>
<event>
12    1  0.8417180E-002  0.1935802E+03  0.7818608E-02  0.1155362E+00
         21   -1    0    0  501  502  0.00000000000E+00  0.00000000000E+00  0.12681697676E+03  0.12681697676E+03  0.00000000000E+00 0.  1.
         21   -1    0    0  502  503 -0.00000000000E+00 -0.00000000000E+00 -0.60514852696E+03  0.60514852696E+03  0.00000000000E+00 0.  1.
         -6    2    1    2    0  503 -0.75203026633E+02  0.47515084106E+02 -0.50135680974E+03  0.53743087151E+03  0.17193054572E+03 0.  0.
        -24    2    3    3    0    0 -0.14161164759E+02 -0.18450341147E+02 -0.36378166591E+03  0.37303331548E+03  0.79219949065E+02 0.  0.
          6    2    1    2  501    0  0.75203026633E+02 -0.47515084106E+02  0.23025259531E+02  0.19453463221E+03  0.17146539627E+03 0.  0.
         24    2    5    5    0    0  0.12552593353E+01 -0.14697458821E+02 -0.39106373677E+02  0.92418528370E+02  0.82427452661E+02 0.  0.
          5    1    5    5  501    0  0.73947767298E+02 -0.32817625285E+02  0.62131633208E+02  0.10211610384E+03  0.47000000000E+01 0. -1.
        -11    1    6    6    0    0  0.61673681757E+01 -0.35543345043E+02  0.11175283905E+02  0.37765761974E+02  0.00000000000E+00 0.  1.
         12    1    6    6    0    0 -0.49121088404E+01  0.20845886222E+02 -0.50281657581E+02  0.54652766397E+02  0.00000000000E+00 0. -1.
         -5    1    3    3    0  503 -0.61041861874E+02  0.65965425252E+02 -0.13757514383E+03  0.16439755603E+03  0.47000000000E+01 0.  1.
         13    1    4    4    0    0 -0.34368855511E+02 -0.30063663443E+02 -0.12432881517E+03  0.13244884436E+03  0.00000000000E+00 0. -1.
        -14    1    4    4    0    0  0.20207690752E+02  0.11613322296E+02 -0.23945285073E+03  0.24058447112E+03  0.00000000000E+00 0.  1.
</event>
<event>
12    1  0.8417180E-002  0.2300888E+03  0.7818608E-02  0.1126661E+00
         21   -1    0    0  501  502  0.00000000000E+00  0.00000000000E+00  0.12957060301E+04  0.12957060301E+04  0.00000000000E+00 0.  1.
         21   -1    0    0  502  503 -0.00000000000E+00 -0.00000000000E+00 -0.63944470432E+02  0.63944470432E+02  0.00000000000E+00 0.  1.
         -6    2    1    2    0  503 -0.87766175260E+02  0.12392633720E+03  0.20706286245E+03  0.30954139869E+03  0.17285893070E+03 0.  0.
        -24    2    3    3    0    0 -0.87520814711E+02  0.15009185064E+02  0.13315146443E+03  0.17782962628E+03  0.77517061737E+02 0.  0.
          6    2    1    2  501    0  0.87766175260E+02 -0.12392633720E+03  0.10246986972E+04  0.10501091019E+04  0.17222388664E+03 0.  0.
         24    2    5    5    0    0  0.10559578653E+03 -0.58975887268E+02  0.85771912470E+03  0.86999601619E+03  0.81131657854E+02 0.  0.
          5    1    5    5  501    0 -0.17829611275E+02 -0.64950449937E+02  0.16697957254E+03  0.18011308567E+03  0.47000000000E+01 0. -1.
        -11    1    6    6    0    0  0.36169914800E+02 -0.35610668359E+02  0.59782540168E+03  0.59997632730E+03  0.00000000000E+00 0.  1.
         12    1    6    6    0    0  0.69425871735E+02 -0.23365218909E+02  0.25989372302E+03  0.27001968889E+03  0.00000000000E+00 0. -1.
         -5    1    3    3    0  503 -0.24536054888E+00  0.10891715214E+03  0.73911398025E+02  0.13171177241E+03  0.47000000000E+01 0.  1.
         13    1    4    4    0    0  0.16570968670E+01  0.18119065400E+02  0.59211624438E+02  0.61944030944E+02  0.00000000000E+00 0. -1.
        -14    1    4    4    0    0 -0.89177911578E+02 -0.31098803363E+01  0.73939839992E+02  0.11588559534E+03  0.00000000000E+00 0.  1.
</event>
<event>
12    1  0.8417180E-002  0.1753056E+03  0.7818608E-02  0.1172850E+00
         21   -1    0    0  501  502  0.00000000000E+00  0.00000000000E+00  0.50301294877E+02  0.50301294877E+02  0.00000000000E+00 0. -1.
         21   -1    0    0  502  503 -0.00000000000E+00 -0.00000000000E+00 -0.11164957120E+04  0.11164957120E+04  0.00000000000E+00 0. -1.
         -6    2    1    2    0  503 -0.25049635259E+02  0.20661803878E+02 -0.92653463403E+03  0.94266111890E+03  0.17055545336E+03 0.  0.
        -24    2    3    3    0    0  0.26483447407E+01  0.15540423941E+02 -0.90096967837E+03  0.90433275361E+03  0.76307597236E+02 0.  0.
          6    2    1    2  501    0  0.25049635259E+02 -0.20661803878E+02 -0.13965978314E+03  0.22413588802E+03  0.17227201428E+03 0.  0.
         24    2    5    5    0    0  0.82461688334E+02 -0.10798278407E+02 -0.10992100279E+03  0.15856212779E+03  0.78375944381E+02 0.  0.
          5    1    5    5  501    0 -0.57412053075E+02 -0.98635254712E+01 -0.29738780352E+02  0.65573760223E+02  0.47000000000E+01 0. -1.
        -11    1    6    6    0    0  0.17401108781E+02  0.18466007789E+02 -0.74918680166E+02  0.79098676779E+02  0.00000000000E+00 0.  1.
         12    1    6    6    0    0  0.65060579553E+02 -0.29264286195E+02 -0.35002322619E+02  0.79463451014E+02  0.00000000000E+00 0. -1.
         -5    1    3    3    0  503 -0.27697980000E+02  0.51213799372E+01 -0.25564955659E+02  0.38328365297E+02  0.47000000000E+01 0.  1.
         11    1    4    4    0    0  0.31885040753E+02 -0.13037941588E+02 -0.29935301485E+03  0.30132851051E+03  0.00000000000E+00 0. -1.
        -12    1    4    4    0    0 -0.29236696012E+02  0.28578365529E+02 -0.60161666352E+03  0.60300424309E+03  0.00000000000E+00 0.  1.
</event>
<event>
12    1  0.8417180E-002  0.2120597E+03  0.7818608E-02  0.1140098E+00
         21   -1    0    0  503  502  0.00000000000E+00  0.00000000000E+00  0.13748733170E+03  0.13748733170E+03  0.00000000000E+00 0.  1.
         21   -1    0    0  501  503 -0.00000000000E+00 -0.00000000000E+00 -0.33545014902E+03  0.33545014902E+03  0.00000000000E+00 0. -1.
          6    2    1    2  501    0  0.11376969161E+03 -0.54778097645E+02 -0.58859902040E+02  0.21932572532E+03  0.16939628984E+03 0.  0.
         24    2    3    3    0    0 -0.97663545705E+01  0.25722239206E+01 -0.36582078292E+02  0.81236603668E+02  0.71827148808E+02 0.  0.
         -6    2    1    2    0  502 -0.11376969161E+03  0.54778097645E+02 -0.13910291528E+03  0.25361175539E+03  0.17036759881E+03 0.  0.
        -24    2    5    5    0    0 -0.14842005344E+03  0.35725093454E+02 -0.11438395157E+03  0.20674191743E+03  0.79710334843E+02 0.  0.
          5    1    3    3  501    0  0.12353604618E+03 -0.57350321566E+02 -0.22277823748E+02  0.13808912165E+03  0.47000000000E+01 0. -1.
        -11    1    4    4    0    0 -0.32298925078E+01  0.35558801301E+02 -0.30719441371E+02  0.47101429211E+02  0.00000000000E+00 0.  1.
         12    1    4    4    0    0 -0.65364620628E+01 -0.32986577380E+02 -0.58626369204E+01  0.34135174457E+02  0.00000000000E+00 0. -1.
         -5    1    5    5    0  502  0.34650361831E+02  0.19053004191E+02 -0.24718963707E+02  0.46869837961E+02  0.47000000000E+01 0.  1.
         13    1    6    6    0    0 -0.17819074455E+02  0.29776548760E+02 -0.27168862892E+01  0.34807236914E+02  0.00000000000E+00 0. -1.
        -14    1    6    6    0    0 -0.13060097898E+03  0.59485446938E+01 -0.11166706528E+03  0.17193468052E+03  0.00000000000E+00 0.  1.
</event>
<event>
12    1  0.8417180E-002  0.1726668E+03  0.7818608E-02  0.1175191E+00
         21   -1    0    0  501  502  0.00000000000E+00  0.00000000000E+00  0.22633678090E+03  0.22633678090E+03  0.00000000000E+00 0. -1.
         21   -1    0    0  502  503 -0.00000000000E+00 -0.00000000000E+00 -0.55581434923E+03  0.55581434923E+03  0.00000000000E+00 0. -1.
         -6    2    1    2    0  503 -0.88193012399E+01  0.66792077170E-02 -0.50650234409E+03  0.53512471222E+03  0.17244144785E+03 0.  0.
        -24    2    3    3    0    0  0.47605866373E+02  0.41858866979E+02 -0.28029507506E+03  0.29821286422E+03  0.79668689094E+02 0.  0.
          6    2    1    2  501    0  0.88193012399E+01 -0.66792077170E-02  0.17702477575E+03  0.24702641791E+03  0.17206539395E+03 0.  0.
         24    2    5    5    0    0  0.32596131298E+02 -0.38870873070E+02  0.16811076550E+03  0.20036473351E+03  0.96495307706E+02 0.  0.
          5    1    5    5  501    0 -0.23776830058E+02  0.38864193863E+02  0.89140102557E+01  0.46661684400E+02  0.47000000000E+01 0. -1.
        -11    1    6    6    0    0  0.15562516547E+02 -0.29866669650E+02  0.26458045637E+01  0.33781802188E+02  0.00000000000E+00 0.  1.
         12    1    6    6    0    0  0.17033614751E+02 -0.90042034199E+01  0.16546496094E+03  0.16658293132E+03  0.00000000000E+00 0. -1.
         -5    1    3    3    0  503 -0.56425167613E+02 -0.41852187771E+02 -0.22620726903E+03  0.23691184800E+03  0.47000000000E+01 0.  1.
         13    1    4    4    0    0  0.46264616357E+02 -0.10208939254E+02 -0.16562633201E+03  0.17226932118E+03  0.00000000000E+00 0. -1.
        -14    1    4    4    0    0  0.13412500167E+01  0.52067806233E+02 -0.11466874306E+03  0.12594354303E+03  0.00000000000E+00 0.  1.
</event>
<event>
12    1  0.8417180E-002  0.2019115E+03  0.7818608E-02  0.1148321E+00
         21   -1    0    0  501  502  0.00000000000E+00  0.00000000000E+00  0.38694967461E+02  0.38694967461E+02  0.00000000000E+00 0. -1.
         21   -1    0    0  502  503 -0.00000000000E+00 -0.00000000000E+00 -0.14685529407E+04  0.14685529407E+04  0.00000000000E+00 0.  1.
         -6    2    1    2    0  503 -0.10574475448E+03 -0.92968033966E+01 -0.11166348586E+04  0.11345859243E+04  0.17071446531E+03 0.  0.
        -24    2    3    3    0    0 -0.13061084328E+03  0.27959130969E+02 -0.86682026134E+03  0.88074394592E+03  0.80570636157E+02 0.  0.
          6    2    1    2  501    0  0.10574475448E+03  0.92968033966E+01 -0.31322311469E+03  0.37266198384E+03  0.17175520654E+03 0.  0.
         24    2    5    5    0    0  0.44773855577E+02  0.42634648011E+02 -0.27580984728E+03  0.29360058381E+03  0.79421782934E+02 0.  0.
          5    1    5    5  501    0  0.60970898907E+02 -0.33337844615E+02 -0.37413267407E+02  0.79061400033E+02  0.47000000000E+01 0. -1.
        -11    1    6    6    0    0  0.35651932498E+02 -0.74639071179E+01 -0.19284311871E+03  0.19625299649E+03  0.00000000000E+00 0.  1.
         12    1    6    6    0    0  0.91219230791E+01  0.50098555129E+02 -0.82966728572E+02  0.97347587318E+02  0.00000000000E+00 0. -1.
         -5    1    3    3    0  503  0.24866088796E+02 -0.37255934366E+02 -0.24981459723E+03  0.25384197842E+03  0.47000000000E+01 0.  1.
         11    1    4    4    0    0 -0.81905629480E+02  0.51739999473E+02 -0.44283352753E+03  0.45330684176E+03  0.00000000000E+00 0. -1.
        -12    1    4    4    0    0 -0.48705213801E+02 -0.23780868504E+02 -0.42398673381E+03  0.42743710415E+03  0.00000000000E+00 0.  1.
</event>
<event>
12    1  0.8417180E-002  0.1832311E+03  0.7818608E-02  0.1166786E+00
         21   -1    0    0  501  502  0.00000000000E+00  0.00000000000E+00  0.61663461248E+02  0.61663461248E+02  0.00000000000E+00 0.  1.
         21   -1    0    0  502  503 -0.00000000000E+00 -0.00000000000E+00 -0.52221069934E+03  0.52221069934E+03  0.00000000000E+00 0.  1.
         -6    2    1    2    0  503 -0.26019880793E+02  0.11673477784E+02 -0.24639444902E+03  0.30203189685E+03  0.17233611905E+03 0.  0.
        -24    2    3    3    0    0  0.13755155738E+02  0.68409558951E+02 -0.13901655936E+03  0.17415250983E+03  0.78322543625E+02 0.  0.
          6    2    1    2  501    0  0.26019880793E+02 -0.11673477784E+02 -0.21415278907E+03  0.28184226373E+03  0.18099817755E+03 0.  0.
         24    2    5    5    0    0 -0.30953440226E+02 -0.34167495682E+02 -0.19693854445E+03  0.21804288782E+03  0.81439409475E+02 0.  0.
          5    1    5    5  501    0  0.56973321018E+02  0.22494017898E+02 -0.17214244625E+02  0.63799375914E+02  0.47000000000E+01 0. -1.
        -11    1    6    6    0    0 -0.11967444078E+02 -0.21125953089E+02 -0.50790555291E+01  0.24805693233E+02  0.00000000000E+00 0.  1.
         12    1    6    6    0    0 -0.18985996147E+02 -0.13041542593E+02 -0.19185948892E+03  0.19323719458E+03  0.00000000000E+00 0. -1.
         -5    1    3    3    0  503 -0.39775036530E+02 -0.56736081167E+02 -0.10737788966E+03  0.12787938702E+03  0.47000000000E+01 0.  1.
         11    1    4    4    0    0  0.38190514998E+01 -0.13853678280E+02 -0.26913516848E+01  0.14620291725E+02  0.00000000000E+00 0. -1.
        -12    1    4    4    0    0  0.99361042379E+01  0.82263237231E+02 -0.13632520767E+03  0.15953221811E+03  0.00000000000E+00 0.  1.
</event>
<event>
12    1  0.8417180E-002  0.1813618E+03  0.7818608E-02  0.1166895E+00
         21   -1    0    0  503  502  0.00000000000E+00  0.00000000000E+00  0.48231138752E+03  0.48231138752E+03  0.00000000000E+00 0. -1.
         21   -1    0    0  501  503 -0.00000000000E+00 -0.00000000000E+00 -0.11294787303E+03  0.11294787303E+03  0.00000000000E+00 0.  1.
          6    2    1    2  501    0 -0.45957493278E+02  0.28509517403E+02 -0.34585980497E+01  0.18139476708E+03  0.17311041520E+03 0.  0.
         24    2    3    3    0    0 -0.95436864303E+02  0.20381535129E+01 -0.31295420033E+01  0.12508189518E+03  0.80767179790E+02 0.  0.
         -6    2    1    2    0  502  0.45957493278E+02 -0.28509517403E+02  0.37282211254E+03  0.41386449347E+03  0.17135520880E+03 0.  0.
        -24    2    5    5    0    0 -0.17888737881E+02  0.29928756813E+02  0.23557962681E+03  0.25154085682E+03  0.80989534215E+02 0.  0.
          5    1    3    3  501    0  0.49479371024E+02  0.26471363890E+02 -0.32905604635E+00  0.56312871895E+02  0.47000000000E+01 0. -1.
        -11    1    4    4    0    0 -0.15612840410E+02  0.34730637609E+02 -0.70842151770E+01  0.38731951656E+02  0.00000000000E+00 0.  1.
         12    1    4    4    0    0 -0.79824023893E+02 -0.32692484096E+02  0.39546731737E+01  0.86349943525E+02  0.00000000000E+00 0. -1.
         -5    1    5    5    0  502  0.63846231160E+02 -0.58438274216E+02  0.13724248572E+03  0.16232363665E+03  0.47000000000E+01 0.  1.
         13    1    6    6    0    0 -0.15074580638E+02  0.51509261778E+02  0.93537331400E+02  0.10784099126E+03  0.00000000000E+00 0. -1.
        -14    1    6    6    0    0 -0.28141572435E+01 -0.21580504966E+02  0.14204229541E+03  0.14369986556E+03  0.00000000000E+00 0.  1.
</event>
<event>
12    1  0.8417180E-002  0.1715119E+03  0.7818608E-02  0.1176725E+00
         21   -1    0    0  501  502  0.00000000000E+00  0.00000000000E+00  0.11032261223E+03  0.11032261223E+03  0.00000000000E+00 0. -1.
         21   -1    0    0  502  503 -0.00000000000E+00 -0.00000000000E+00 -0.96400740129E+03  0.96400740129E+03  0.00000000000E+00 0. -1.
         -6    2    1    2    0  503  0.13055311318E+01  0.16260403020E+02 -0.88517701761E+03  0.90163999368E+03  0.17073435673E+03 0.  0.
        -24    2    3    3    0    0  0.74383911341E+01  0.70628592513E+02 -0.42626065758E+03  0.43944974334E+03  0.79838593285E+02 0.  0.
          6    2    1    2  501    0 -0.13055311318E+01 -0.16260403020E+02  0.31492228550E+02  0.17269001985E+03  0.16900880858E+03 0.  0.
         24    2    5    5    0    0 -0.46130848897E+02 -0.45662274429E+02 -0.11421606053E+02  0.10386076476E+03  0.80271457235E+02 0.  0.
          5    1    5    5  501    0  0.44825317765E+02  0.29401871410E+02  0.42913834604E+02  0.68829255085E+02  0.47000000000E+01 0. -1.
        -13    1    6    6    0    0 -0.30914598064E+02  0.10775094870E+02  0.19117003699E+02  0.37911408222E+02  0.00000000000E+00 0.  1.
         14    1    6    6    0    0 -0.15216250833E+02 -0.56437369299E+02 -0.30538609752E+02  0.65949356543E+02  0.00000000000E+00 0. -1.
         -5    1    3    3    0  503 -0.61328600023E+01 -0.54368189493E+02 -0.45891636004E+03  0.46219025034E+03  0.47000000000E+01 0.  1.
         13    1    4    4    0    0  0.25431426970E+02 -0.60319627058E+01 -0.14673072676E+03  0.14904042480E+03  0.00000000000E+00 0. -1.
        -14    1    4    4    0    0 -0.17993035836E+02  0.76660555219E+02 -0.27952993082E+03  0.29040931853E+03  0.00000000000E+00 0.  1.
</event>
<event>
12    1  0.8417180E-002  0.2002036E+03  0.7818608E-02  0.1150219E+00
         21   -1    0    0  503  502  0.00000000000E+00  0.00000000000E+00  0.49764508734E+02  0.49764508734E+02  0.00000000000E+00 0.  1.
         21   -1    0    0  501  503 -0.00000000000E+00 -0.00000000000E+00 -0.11619708252E+04  0.11619708252E+04  0.00000000000E+00 0. -1.
          6    2    1    2  501    0  0.37454013074E+02 -0.93733752256E+02 -0.90037796022E+03  0.92236757330E+03  0.17289490913E+03 0.  0.
         24    2    3    3    0    0  0.41386438374E+02 -0.25142106171E+02 -0.76286163934E+03  0.76857190888E+03  0.79999597317E+02 0.  0.
         -6    2    1    2    0  502 -0.37454013074E+02  0.93733752256E+02 -0.21182835628E+03  0.28936776068E+03  0.16933289399E+03 0.  0.
        -24    2    5    5    0    0 -0.30857201087E+02  0.12508984792E+03 -0.12707216911E+03  0.19863505474E+03  0.81907947698E+02 0.  0.
          5    1    3    3  501    0 -0.39324252994E+01 -0.68591646085E+02 -0.13751632089E+03  0.15379566441E+03  0.47000000000E+01 0. -1.
        -11    1    4    4    0    0  0.15388251893E+02 -0.33437439249E+02 -0.12968582109E+03  0.13480828176E+03  0.00000000000E+00 0.  1.
         12    1    4    4    0    0  0.25998186481E+02  0.82953330777E+01 -0.63317581825E+03  0.63376362712E+03  0.00000000000E+00 0. -1.
         -5    1    5    5    0  502 -0.65968119875E+01 -0.31356095662E+02 -0.84756187172E+02  0.90732705942E+02  0.47000000000E+01 0.  1.
         11    1    6    6    0    0  0.28327024573E+02  0.40509101560E+02 -0.40118322009E+02  0.63662291753E+02  0.00000000000E+00 0. -1.
        -12    1    6    6    0    0 -0.59184225660E+02  0.84580746359E+02 -0.86953847100E+02  0.13497276298E+03  0.00000000000E+00 0.  1.
</event>
<event>
12    1  0.8417180E-002  0.1887001E+03  0.7818608E-02  0.1159656E+00
         21   -1    0    0  503  502  0.00000000000E+00  0.00000000000E+00  0.35391143061E+03  0.35391143061E+03  0.00000000000E+00 0. -1.
         21   -1    0    0  501  503 -0.00000000000E+00 -0.00000000000E+00 -0.11381612645E+03  0.11381612645E+03  0.00000000000E+00 0.  1.
          6    2    1    2  501    0 -0.29443726489E+02 -0.73329759975E+02  0.19980379153E+03  0.27477386887E+03  0.17127444986E+03 0.  0.
         24    2    3    3    0    0 -0.79954147891E+02 -0.19860844483E+02  0.10950876824E+03  0.15821697793E+03  0.79077954420E+02 0.  0.
         -6    2    1    2    0  502  0.29443726489E+02  0.73329759975E+02  0.40291512632E+02  0.19295368820E+03  0.17135790928E+03 0.  0.
        -24    2    5    5    0    0  0.19088667735E+02  0.11122751588E+03  0.23269777071E+01  0.13811881739E+03  0.79595573784E+02 0.  0.
          5    1    3    3  501    0  0.50510421402E+02 -0.53468915493E+02  0.90295023287E+02  0.11655689094E+03  0.47000000000E+01 0. -1.
        -11    1    4    4    0    0 -0.49524816376E+02  0.76191371080E+01  0.10577867176E+03  0.11704651249E+03  0.00000000000E+00 0.  1.
         12    1    4    4    0    0 -0.30429331515E+02 -0.27479981591E+02  0.37300964816E+01  0.41170465438E+02  0.00000000000E+00 0. -1.
         -5    1    5    5    0  502  0.10355058753E+02 -0.37897755908E+02  0.37964534925E+02  0.54834870810E+02  0.47000000000E+01 0.  1.
         13    1    6    6    0    0  0.35092485446E+02  0.61050495912E+02  0.32352258819E+02  0.77493962581E+02  0.00000000000E+00 0. -1.
        -14    1    6    6    0    0 -0.16003817710E+02  0.50177019970E+02 -0.30025281112E+02  0.60624854806E+02  0.00000000000E+00 0.  1.
</event>
<event>
12    1  0.8417180E-002  0.1975047E+03  0.7818608E-02  0.1153096E+00
         21   -1    0    0  501  502  0.00000000000E+00  0.00000000000E+00  0.94980147330E+03  0.94980147330E+03  0.00000000000E+00 0. -1.
         21   -1    0    0  502  503 -0.00000000000E+00 -0.00000000000E+00 -0.50350632183E+02  0.50350632183E+02  0.00000000000E+00 0. -1.
         -6    2    1    2    0  503 -0.37294706108E+02  0.79166387296E+02  0.21672463824E+03  0.28943191322E+03  0.17071336089E+03 0.  0.
        -24    2    3    3    0    0 -0.29420034414E+02 -0.16754960817E+01  0.40729996796E+02  0.95541159494E+02  0.81245521762E+02 0.  0.
          6    2    1    2  501    0  0.37294706108E+02 -0.79166387296E+02  0.68272620288E+03  0.71072019227E+03  0.17705906252E+03 0.  0.
         24    2    5    5    0    0  0.33303770346E+02 -0.11974872671E+03  0.60641098113E+03  0.62406595457E+03  0.79215774633E+02 0.  0.
          5    1    5    5  501    0  0.39909357614E+01  0.40582339414E+02  0.76315221751E+02  0.86654237700E+02  0.47000000000E+01 0. -1.
        -13    1    6    6    0    0  0.29909343727E+02 -0.53810331051E+01  0.18116026877E+03  0.18369150046E+03  0.00000000000E+00 0.  1.
         14    1    6    6    0    0  0.33944266190E+01 -0.11436769360E+03  0.42525071236E+03  0.44037445411E+03  0.00000000000E+00 0. -1.
         -5    1    3    3    0  503 -0.78746716935E+01  0.80841883377E+02  0.17599464144E+03  0.19389075372E+03  0.47000000000E+01 0.  1.
         13    1    4    4    0    0 -0.24036260471E+02 -0.37215133878E+02  0.39845767793E+02  0.59585176160E+02  0.00000000000E+00 0. -1.
        -14    1    4    4    0    0 -0.53837739433E+01  0.35539637797E+02  0.88422900351E+00  0.35955983334E+02  0.00000000000E+00 0.  1.
</event>
<event>
12    1  0.8417180E-002  0.1796460E+03  0.7818608E-02  0.1168200E+00
         21   -1    0    0  501  502  0.00000000000E+00  0.00000000000E+00  0.40775520318E+02  0.40775520318E+02  0.00000000000E+00 0. -1.
         21   -1    0    0  502  503 -0.00000000000E+00 -0.00000000000E+00 -0.10066355666E+04  0.10066355666E+04  0.00000000000E+00 0. -1.
         -6    2    1    2    0  503 -0.43853985328E+02  0.29229033441E+02 -0.72536848788E+03  0.74722970174E+03  0.17150882054E+03 0.  0.
        -24    2    3    3    0    0 -0.78603697330E+02 -0.18054216091E+02 -0.55915456736E+03  0.57089931427E+03  0.82266037215E+02 0.  0.
          6    2    1    2  501    0  0.43853985328E+02 -0.29229033441E+02 -0.24049155839E+03  0.30018138516E+03  0.17174156724E+03 0.  0.
         24    2    5    5    0    0  0.77459075448E+02  0.32705273203E+01 -0.94510774058E+02  0.14682558017E+03  0.81331788753E+02 0.  0.
          5    1    5    5  501    0 -0.33605090120E+02 -0.32499560762E+02 -0.14598078433E+03  0.15335580499E+03  0.47000000000E+01 0. -1.
        -13    1    6    6    0    0  0.71544480760E+02  0.32741024589E+02 -0.83718871056E+02  0.11488880184E+03  0.00000000000E+00 0.  1.
         14    1    6    6    0    0  0.59145946879E+01 -0.29470497269E+02 -0.10791903002E+02  0.31936778328E+02  0.00000000000E+00 0. -1.
         -5    1    3    3    0  503  0.34749712002E+02  0.47283249532E+02 -0.16621392052E+03  0.17633038747E+03  0.47000000000E+01 0.  1.
         13    1    4    4    0    0 -0.45550358677E+02  0.29951418800E+02 -0.21262739129E+03  0.21950473842E+03  0.00000000000E+00 0. -1.
        -14    1    4    4    0    0 -0.33053338654E+02 -0.48005634890E+02 -0.34652717607E+03  0.35139457585E+03  0.00000000000E+00 0.  1.
</event>
<event>
12    1  0.8417180E-002  0.2273930E+03  0.7818608E-02  0.1128693E+00
         21   -1    0    0  501  502  0.00000000000E+00  0.00000000000E+00  0.16109003701E+03  0.16109003701E+03  0.00000000000E+00 0. -1.
         21   -1    0    0  502  503 -0.00000000000E+00 -0.00000000000E+00 -0.37403231643E+03  0.37403231643E+03  0.00000000000E+00 0.  1.
         -6    2    1    2    0  503 -0.12629801956E+03  0.79361127565E+02 -0.20898317320E+03  0.30883900035E+03  0.17163386361E+03 0.  0.
        -24    2    3    3    0    0 -0.15485904421E+03  0.86954431276E+02 -0.19756088168E+03  0.27680855961E+03  0.77783545884E+02 0.  0.
          6    2    1    2  501    0  0.12629801956E+03 -0.79361127565E+02 -0.39591062136E+01  0.22628335309E+03  0.17011497010E+03 0.  0.
         24    2    5    5    0    0  0.13050002044E+03 -0.93647057734E+01 -0.19156877986E+02  0.15437912414E+03  0.79674179918E+02 0.  0.
          5    1    5    5  501    0 -0.42020008794E+01 -0.69996421791E+02  0.15197771773E+02  0.71904228957E+02  0.47000000000E+01 0. -1.
        -11    1    6    6    0    0  0.97106402400E+02  0.10501685795E+02 -0.45177740407E+02  0.10761490148E+03  0.00000000000E+00 0.  1.
         12    1    6    6    0    0  0.33393618041E+02 -0.19866391569E+02  0.26020862421E+02  0.46764222660E+02  0.00000000000E+00 0. -1.
         -5    1    3    3    0  503  0.28561024647E+02 -0.75933037110E+01 -0.11422291523E+02  0.32030440736E+02  0.47000000000E+01 0.  1.
         11    1    4    4    0    0 -0.12644549489E+03  0.29892031879E+02 -0.13855065111E+03  0.18994283264E+03  0.00000000000E+00 0. -1.
        -12    1    4    4    0    0 -0.28413549316E+02  0.57062399397E+02 -0.59010230571E+02  0.86865726968E+02  0.00000000000E+00 0.  1.
</event>
<event>
12    1  0.8417180E-002  0.1776866E+03  0.7818608E-02  0.1170243E+00
         21   -1    0    0  503  502  0.00000000000E+00  0.00000000000E+00  0.13043683218E+04  0.13043683218E+04  0.00000000000E+00 0.  1.
         21   -1    0    0  501  503 -0.00000000000E+00 -0.00000000000E+00 -0.38158418561E+02  0.38158418561E+02  0.00000000000E+00 0.  1.
          6    2    1    2  501    0 -0.53638638915E+01  0.43353311096E+02  0.22490265895E+03  0.28616822192E+03  0.17147234359E+03 0.  0.
         24    2    3    3    0    0 -0.69387558531E+02  0.27742419291E+02  0.15402488725E+03  0.18927404284E+03  0.80726218132E+02 0.  0.
         -6    2    1    2    0  502  0.53638638915E+01 -0.43353311096E+02  0.10413072443E+04  0.10563585185E+04  0.17223316133E+03 0.  0.
        -24    2    5    5    0    0  0.63290204467E+02 -0.32750964962E+01  0.47738245432E+03  0.48803204277E+03  0.79151063369E+02 0.  0.
          5    1    3    3  501    0  0.64023694639E+02  0.15610891805E+02  0.70877771708E+02  0.96894179085E+02  0.47000000000E+01 0. -1.
        -11    1    4    4    0    0 -0.58718913656E+02  0.54658908466E+02  0.10237233107E+03  0.13005999102E+03  0.00000000000E+00 0.  1.
         12    1    4    4    0    0 -0.10668644875E+02 -0.26916489175E+02  0.51652556177E+02  0.59214051817E+02  0.00000000000E+00 0. -1.
         -5    1    5    5    0  502 -0.57926340575E+02 -0.40078214600E+02  0.56392478998E+03  0.56832647569E+03  0.47000000000E+01 0.  1.
         11    1    6    6    0    0  0.32199027906E+02 -0.23926111605E+02  0.86247844772E+02  0.95120591579E+02  0.00000000000E+00 0. -1.
        -12    1    6    6    0    0  0.31091176561E+02  0.20651015108E+02  0.39113460955E+03  0.39291145119E+03  0.00000000000E+00 0.  1.
</event>
<event>
12    1  0.8417180E-002  0.3348854E+03  0.7818608E-02  0.1069071E+00
         21   -1    0    0  501  502  0.00000000000E+00  0.00000000000E+00  0.83110698620E+03  0.83110698620E+03  0.00000000000E+00 0. -1.
         21   -1    0    0  502  503 -0.00000000000E+00 -0.00000000000E+00 -0.19061976358E+03  0.19061976358E+03  0.00000000000E+00 0.  1.
         -6    2    1    2    0  503  0.14189136401E+03 -0.24985193368E+03  0.59728155025E+03  0.68475795233E+03  0.17201469434E+03 0.  0.
        -24    2    3    3    0    0  0.31166693522E+02 -0.40661620434E+02  0.17160996830E+03  0.19768616554E+03  0.83696527192E+02 0.  0.
          6    2    1    2  501    0 -0.14189136401E+03  0.24985193368E+03  0.43205672380E+02  0.33696879745E+03  0.17065196274E+03 0.  0.
         24    2    5    5    0    0 -0.16951519162E+03  0.20840038359E+03  0.54797985751E+02  0.28560948879E+03  0.80024001248E+02 0.  0.
          5    1    5    5  501    0  0.27623827610E+02  0.41451550086E+02 -0.11592313371E+02  0.51359308656E+02  0.47000000000E+01 0. -1.
        -11    1    6    6    0    0 -0.62924325012E+02  0.94508763242E+02 -0.15348850172E+02  0.11457296457E+03  0.00000000000E+00 0.  1.
         12    1    6    6    0    0 -0.10659086661E+03  0.11389162035E+03  0.70146835923E+02  0.17103652423E+03  0.00000000000E+00 0. -1.
         -5    1    3    3    0  503  0.11072467049E+03 -0.20919031324E+03  0.42567158195E+03  0.48707178679E+03  0.47000000000E+01 0.  1.
         13    1    4    4    0    0 -0.12931875770E+02 -0.22845809944E+02  0.13536824179E+03  0.13789026554E+03  0.00000000000E+00 0. -1.
        -14    1    4    4    0    0  0.44098569292E+02 -0.17815810490E+02  0.36241726502E+02  0.59795900000E+02  0.00000000000E+00 0.  1.
</event>
<event>
12    1  0.8417180E-002  0.3279259E+03  0.7818608E-02  0.1072077E+00
         21   -1    0    0  501  502  0.00000000000E+00  0.00000000000E+00  0.58005556039E+02  0.58005556039E+02  0.00000000000E+00 0.  1.
         21   -1    0    0  502  503 -0.00000000000E+00 -0.00000000000E+00 -0.18607534838E+04  0.18607534838E+04  0.00000000000E+00 0.  1.
         -6    2    1    2    0  503 -0.26967868589E+03  0.71200283671E+02 -0.96373821166E+03  0.10180013310E+04  0.17245084865E+03 0.  0.
        -24    2    3    3    0    0 -0.10377679458E+03 -0.29509923011E+02 -0.38644327720E+03  0.40893851431E+03  0.79068598971E+02 0.  0.
          6    2    1    2  501    0  0.26967868589E+03 -0.71200283671E+02 -0.83900971612E+03  0.90075770891E+03  0.17213678394E+03 0.  0.
         24    2    5    5    0    0  0.26428677213E+03 -0.55345305353E+02 -0.62307091385E+03  0.68411950960E+03  0.83015293649E+02 0.  0.
          5    1    5    5  501    0  0.53919137536E+01 -0.15854978318E+02 -0.21593880227E+03  0.21663819930E+03  0.47000000000E+01 0. -1.
        -11    1    6    6    0    0  0.15747748933E+03 -0.25923955460E+02 -0.46063805015E+03  0.48750243524E+03  0.00000000000E+00 0.  1.
         12    1    6    6    0    0  0.10680928280E+03 -0.29421349893E+02 -0.16243286370E+03  0.19661707437E+03  0.00000000000E+00 0. -1.
         -5    1    3    3    0  503 -0.16590189130E+03  0.10071020668E+03 -0.57729493447E+03  0.60906281665E+03  0.47000000000E+01 0.  1.
         13    1    4    4    0    0  0.88983840748E+01 -0.70545287206E+01 -0.92822564870E+01  0.14666557200E+02  0.00000000000E+00 0. -1.
        -14    1    4    4    0    0 -0.11267517866E+03 -0.22455394290E+02 -0.37716102071E+03  0.39427195711E+03  0.00000000000E+00 0.  1.
</event>
<event>
12    1  0.8417180E-002  0.2243841E+03  0.7818608E-02  0.1130868E+00
         21   -1    0    0  501  502  0.00000000000E+00  0.00000000000E+00  0.19413662044E+03  0.19413662044E+03  0.00000000000E+00 0.  1.
         21   -1    0    0  502  503 -0.00000000000E+00 -0.00000000000E+00 -0.35145610662E+03  0.35145610662E+03  0.00000000000E+00 0.  1.
         -6    2    1    2    0  503 -0.10137903428E+03  0.10293126284E+03 -0.21948071240E+03  0.31387895225E+03  0.17168476953E+03 0.  0.
        -24    2    3    3    0    0 -0.78788147121E+01 -0.67617661689E+01 -0.70490760267E+02  0.10652672171E+03  0.79190895641E+02 0.  0.
          6    2    1    2  501    0  0.10137903428E+03 -0.10293126284E+03  0.62161226217E+02  0.23171377481E+03  0.17016081197E+03 0.  0.
         24    2    5    5    0    0  0.12460959341E+03 -0.74565381425E+02  0.88260733736E+02  0.18646384223E+03  0.76754546835E+02 0.  0.
          5    1    5    5  501    0 -0.23230559135E+02 -0.28365881418E+02 -0.26099507519E+02  0.45249932587E+02  0.47000000000E+01 0. -1.
        -13    1    6    6    0    0  0.72116375694E+02 -0.56290011200E+01  0.17072363188E+02  0.74323097902E+02  0.00000000000E+00 0.  1.
         14    1    6    6    0    0  0.52493217720E+02 -0.68936380304E+02  0.71188370548E+02  0.11214074432E+03  0.00000000000E+00 0. -1.
         -5    1    3    3    0  503 -0.93500219567E+02  0.10969302901E+03 -0.14898995213E+03  0.20735223053E+03  0.47000000000E+01 0.  1.
         13    1    4    4    0    0  0.17584402134E+01 -0.10245714158E+02  0.16191183718E+02  0.19241133043E+02  0.00000000000E+00 0. -1.
        -14    1    4    4    0    0 -0.96372549255E+01  0.34839479894E+01 -0.86681943985E+02  0.87285588668E+02  0.00000000000E+00 0.  1.
</event>
<event>
12    1  0.8417180E-002  0.1894035E+03  0.7818608E-02  0.1159884E+00
         21   -1    0    0  503  502  0.00000000000E+00  0.00000000000E+00  0.14028815842E+03  0.14028815842E+03  0.00000000000E+00 0. -1.
         21   -1    0    0  501  503 -0.00000000000E+00 -0.00000000000E+00 -0.25209624076E+03  0.25209624076E+03  0.00000000000E+00 0. -1.
          6    2    1    2  501    0 -0.68749054318E+02 -0.87277453954E+01 -0.39865573659E+02  0.18977789923E+03  0.17211560378E+03 0.  0.
         24    2    3    3    0    0 -0.48563657991E+02 -0.26689928652E+02 -0.90284306776E+02  0.13238252571E+03  0.79392039244E+02 0.  0.
         -6    2    1    2    0  502  0.68749054318E+02  0.87277453954E+01 -0.71942508686E+02  0.20260649995E+03  0.17626985918E+03 0.  0.
        -24    2    5    5    0    0 -0.52676238162E+00 -0.53654207925E+02 -0.48153781175E+02  0.10628080018E+03  0.78088221510E+02 0.  0.
          5    1    3    3  501    0 -0.20185396328E+02  0.17962183256E+02  0.50418733117E+02  0.57395373519E+02  0.47000000000E+01 0. -1.
        -11    1    4    4    0    0 -0.20763290489E+01 -0.33762035102E+02 -0.39268480504E+01  0.34052992411E+02  0.00000000000E+00 0.  1.
         12    1    4    4    0    0 -0.46487328942E+02  0.70721064504E+01 -0.86357458726E+02  0.98329533302E+02  0.00000000000E+00 0. -1.
         -5    1    5    5    0  502  0.69275816700E+02  0.62381953321E+02 -0.23788727511E+02  0.96325699770E+02  0.47000000000E+01 0.  1.
         13    1    6    6    0    0  0.38117707913E+02 -0.26653835167E+02 -0.15876239953E+02  0.49147142141E+02  0.00000000000E+00 0. -1.
        -14    1    6    6    0    0 -0.38644470294E+02 -0.27000372759E+02 -0.32277541222E+02  0.57133658038E+02  0.00000000000E+00 0.  1.
</event>
<event>
12    1  0.8417180E-002  0.2060320E+03  0.7818608E-02  0.1145317E+00
         21   -1    0    0  503  502  0.00000000000E+00  0.00000000000E+00  0.16999482496E+03  0.16999482496E+03  0.00000000000E+00 0.  1.
         21   -1    0    0  501  503 -0.00000000000E+00 -0.00000000000E+00 -0.27797136982E+03  0.27797136982E+03  0.00000000000E+00 0.  1.
          6    2    1    2  501    0 -0.33219038933E+02 -0.10277456165E+03 -0.12921619892E+03  0.24084232838E+03  0.17216877187E+03 0.  0.
         24    2    3    3    0    0 -0.66698847340E+02 -0.29238064349E+02 -0.11452504877E+03  0.15858399204E+03  0.82032280786E+02 0.  0.
         -6    2    1    2    0  502  0.33219038933E+02  0.10277456165E+03  0.21239654070E+02  0.20712386640E+03  0.17545101327E+03 0.  0.
        -24    2    5    5    0    0 -0.21664200409E+01  0.80273238554E+02 -0.50427375509E+02  0.12395720615E+03  0.79837225353E+02 0.  0.
          5    1    3    3  501    0  0.33479808408E+02 -0.73536497299E+02 -0.14691150155E+02  0.82258336349E+02  0.47000000000E+01 0. -1.
        -11    1    4    4    0    0 -0.21074930056E+02 -0.51999813291E+02 -0.77014215636E+02  0.95285479844E+02  0.00000000000E+00 0.  1.
         12    1    4    4    0    0 -0.45623917285E+02  0.22761748942E+02 -0.37510833133E+02  0.63298512191E+02  0.00000000000E+00 0. -1.
         -5    1    5    5    0  502  0.35385458974E+02  0.22501323094E+02  0.71667029579E+02  0.83166660246E+02  0.47000000000E+01 0.  1.
         13    1    6    6    0    0 -0.19924581762E+02  0.25999374573E+02  0.15919121530E+02  0.36419429799E+02  0.00000000000E+00 0. -1.
        -14    1    6    6    0    0  0.17758161721E+02  0.54273863981E+02 -0.66346497039E+02  0.87537776351E+02  0.00000000000E+00 0.  1.
</event>
<event>
12    1  0.8417180E-002  0.1790831E+03  0.7818608E-02  0.1168911E+00
         21   -1    0    0  503  502  0.00000000000E+00  0.00000000000E+00  0.17025782839E+03  0.17025782839E+03  0.00000000000E+00 0.  1.
         21   -1    0    0  501  503 -0.00000000000E+00 -0.00000000000E+00 -0.23921840018E+03  0.23921840018E+03  0.00000000000E+00 0.  1.
          6    2    1    2  501    0 -0.60321236506E+01  0.48201737573E+02  0.60847017316E+02  0.18829581589E+03  0.17144433716E+03 0.  0.
         24    2    3    3    0    0 -0.57121005410E+02 -0.21532438224E+01  0.58092091763E+02  0.11635571855E+03  0.83045267150E+02 0.  0.
         -6    2    1    2    0  502  0.60321236506E+01 -0.48201737573E+02 -0.12980758910E+03  0.22118041268E+03  0.17236870581E+03 0.  0.
        -24    2    5    5    0    0 -0.56577696351E+02 -0.14951370836E+01 -0.91055498743E+02  0.13385738824E+03  0.80146274871E+02 0.  0.
          5    1    3    3  501    0  0.51088881760E+02  0.50354981396E+02  0.27549255532E+01  0.71940097342E+02  0.47000000000E+01 0. -1.
        -11    1    4    4    0    0 -0.41286484345E+02  0.79982335013E+01 -0.12041205628E+02  0.43743984292E+02  0.00000000000E+00 0.  1.
         12    1    4    4    0    0 -0.15834521065E+02 -0.10151477324E+02  0.70133297391E+02  0.72611734259E+02  0.00000000000E+00 0. -1.
         -5    1    5    5    0  502  0.62609820002E+02 -0.46706600490E+02 -0.38752090359E+02  0.87323024439E+02  0.47000000000E+01 0.  1.
         13    1    6    6    0    0 -0.64362281867E+02  0.10072064400E+02 -0.30891224148E+02  0.72098665298E+02  0.00000000000E+00 0. -1.
        -14    1    6    6    0    0  0.77845855158E+01 -0.11567201483E+02 -0.60164274595E+02  0.61758722941E+02  0.00000000000E+00 0.  1.
</event>
<event>
12    1  0.8417180E-002  0.2337296E+03  0.7818608E-02  0.1124182E+00
         21   -1    0    0  503  502  0.00000000000E+00  0.00000000000E+00  0.10771112860E+03  0.10771112860E+03  0.00000000000E+00 0.  1.
         21   -1    0    0  501  503 -0.00000000000E+00 -0.00000000000E+00 -0.53654424015E+03  0.53654424015E+03  0.00000000000E+00 0.  1.
          6    2    1    2  501    0  0.12229395915E+03  0.99364737872E+02 -0.29164096805E+03  0.37323652572E+03  0.17152809189E+03 0.  0.
         24    2    3    3    0    0  0.12969694756E+03  0.34716814137E+02 -0.25657250214E+03  0.29916868126E+03  0.75139174885E+02 0.  0.
         -6    2    1    2    0  502 -0.12229395915E+03 -0.99364737872E+02 -0.13719214350E+03  0.27101884303E+03  0.17262782354E+03 0.  0.
        -24    2    5    5    0    0 -0.13060017732E+03 -0.21500444392E+02 -0.10167027644E+03  0.18490418400E+03  0.79586661731E+02 0.  0.
          5    1    3    3  501    0 -0.74029884148E+01  0.64647923735E+02 -0.35068465907E+02  0.74067844452E+02  0.47000000000E+01 0. -1.
        -11    1    4    4    0    0  0.96398391736E+02  0.53903281601E+02 -0.15302033323E+03  0.18871522482E+03  0.00000000000E+00 0.  1.
         12    1    4    4    0    0  0.33298555826E+02 -0.19186467465E+02 -0.10355216892E+03  0.11045345645E+03  0.00000000000E+00 0. -1.
         -5    1    5    5    0  502  0.83062181737E+01 -0.77864293479E+02 -0.35521867063E+02  0.86114659025E+02  0.47000000000E+01 0.  1.
         13    1    6    6    0    0 -0.50708125750E+02 -0.11640107550E+02 -0.89455139114E+02  0.10348443378E+03  0.00000000000E+00 0. -1.
        -14    1    6    6    0    0 -0.79892051570E+02 -0.98603368419E+01 -0.12215137328E+02  0.81419750225E+02  0.00000000000E+00 0.  1.
</event>
<event>
12    1  0.8417180E-002  0.2031333E+03  0.7818608E-02  0.1148043E+00
         21   -1    0    0  501  502  0.00000000000E+00  0.00000000000E+00  0.38146531074E+03  0.38146531074E+03  0.00000000000E+00 0. -1.
         21   -1    0    0  502  503 -0.00000000000E+00 -0.00000000000E+00 -0.41354946243E+03  0.41354946243E+03  0.00000000000E+00 0.  1.
         -6    2    1    2    0  503  0.47851230939E+02  0.86414603399E+02 -0.35888045262E+03  0.41023047668E+03  0.17244315222E+03 0.  0.
        -24    2    3    3    0    0  0.83237768966E+01  0.11281539505E+03 -0.19365444710E+03  0.23823877828E+03  0.80368351799E+02 0.  0.
          6    2    1    2  501    0 -0.47851230939E+02 -0.86414603399E+02  0.32679630093E+03  0.38478429648E+03  0.17749903812E+03 0.  0.
         24    2    5    5    0    0 -0.82253846404E+02 -0.18393029438E+02  0.13563219045E+03  0.17892929506E+03  0.80719283720E+02 0.  0.
          5    1    5    5  501    0  0.34402615465E+02 -0.68021573961E+02  0.19116411048E+03  0.20585500142E+03  0.47000000000E+01 0. -1.
        -13    1    6    6    0    0 -0.51187655490E+02 -0.50534072772E+02  0.80558404417E+02  0.10799780140E+03  0.00000000000E+00 0.  1.
         14    1    6    6    0    0 -0.31066190914E+02  0.32141043334E+02  0.55073786034E+02  0.70931493659E+02  0.00000000000E+00 0. -1.
         -5    1    3    3    0  503  0.39527454042E+02 -0.26400791649E+02 -0.16522600551E+03  0.17199169841E+03  0.47000000000E+01 0.  1.
         11    1    4    4    0    0 -0.19752577178E+02  0.13816268431E+02 -0.85998543179E+02  0.89312949830E+02  0.00000000000E+00 0. -1.
        -12    1    4    4    0    0  0.28076354074E+02  0.98999126616E+02 -0.10765590392E+03  0.14892582845E+03  0.00000000000E+00 0.  1.
</event>
<event>
12    1  0.8417180E-002  0.1794703E+03  0.7818608E-02  0.1168554E+00
         21   -1    0    0  503  502  0.00000000000E+00  0.00000000000E+00  0.19176844456E+04  0.19176844456E+04  0.00000000000E+00 0. -1.
         21   -1    0    0  501  503 -0.00000000000E+00 -0.00000000000E+00 -0.23396120308E+02  0.23396120308E+02  0.00000000000E+00 0. -1.
          6    2    1    2  501    0 -0.31994269531E+02  0.35029493611E+02  0.42995688790E+03  0.46591042648E+03  0.17308639850E+03 0.  0.
         24    2    3    3    0    0  0.14070669244E+02  0.63598869688E+02  0.37305294393E+03  0.38718091059E+03  0.80608675638E+02 0.  0.
         -6    2    1    2    0  502  0.31994269531E+02 -0.35029493611E+02  0.14643314374E+04  0.14751701394E+04  0.17207464374E+03 0.  0.
        -24    2    5    5    0    0  0.40024326702E+02 -0.86328029787E+02  0.10811482673E+04  0.10884564812E+04  0.82470965105E+02 0.  0.
          5    1    3    3  501    0 -0.46064938775E+02 -0.28569376077E+02  0.56903943971E+02  0.78729515896E+02  0.47000000000E+01 0. -1.
        -13    1    4    4    0    0  0.43223656199E+02  0.34904239890E+02  0.28113333902E+03  0.28657031375E+03  0.00000000000E+00 0.  1.
         14    1    4    4    0    0 -0.29152986955E+02  0.28694629798E+02  0.91919604914E+02  0.10061059683E+03  0.00000000000E+00 0. -1.
         -5    1    5    5    0  502 -0.80300571710E+01  0.51298536176E+02  0.38318317011E+03  0.38671365826E+03  0.47000000000E+01 0.  1.
         13    1    6    6    0    0  0.27869422189E+02 -0.70604773274E+02  0.10399369144E+04  0.10427034692E+04  0.00000000000E+00 0. -1.
        -14    1    6    6    0    0  0.12154904513E+02 -0.15723256513E+02  0.41211352839E+02  0.45753011943E+02  0.00000000000E+00 0.  1.
</event>
<event>
12    1  0.8417180E-002  0.2149140E+03  0.7818608E-02  0.1137935E+00
         21   -1    0    0  503  502  0.00000000000E+00  0.00000000000E+00  0.18754907336E+03  0.18754907336E+03  0.00000000000E+00 0.  1.
         21   -1    0    0  501  503 -0.00000000000E+00 -0.00000000000E+00 -0.26569212086E+03  0.26569212086E+03  0.00000000000E+00 0.  1.
          6    2    1    2  501    0 -0.15541441444E+02 -0.12768324288E+03  0.24151320409E+02  0.21522406940E+03  0.17086125030E+03 0.  0.
         24    2    3    3    0    0 -0.55342815320E+02 -0.14131544392E+03  0.24994315278E+02  0.17288275496E+03  0.78935728730E+02 0.  0.
         -6    2    1    2    0  502  0.15541441444E+02  0.12768324288E+03 -0.10229436790E+03  0.23801712482E+03  0.17217278266E+03 0.  0.
        -24    2    5    5    0    0  0.19017322339E+02  0.10670992994E+03 -0.13972600491E+03  0.19471378716E+03  0.81494998416E+02 0.  0.
          5    1    3    3  501    0  0.39801373876E+02  0.13632201036E+02 -0.84299486947E+00  0.42341314433E+02  0.47000000000E+01 0. -1.
        -13    1    4    4    0    0 -0.59913637144E+01 -0.30567589440E+02  0.40014910720E+02  0.50709634619E+02  0.00000000000E+00 0.  1.
         14    1    4    4    0    0 -0.49351451606E+02 -0.11074785448E+03 -0.15020595441E+02  0.12217312034E+03  0.00000000000E+00 0. -1.
         -5    1    5    5    0  502 -0.34758808951E+01  0.20973312939E+02  0.37431637002E+02  0.43303337657E+02  0.47000000000E+01 0.  1.
         13    1    6    6    0    0 -0.13428155340E+02 -0.39627367510E+01 -0.61754248512E+00  0.14014278331E+02  0.00000000000E+00 0. -1.
        -14    1    6    6    0    0  0.32445477680E+02  0.11067266670E+03 -0.13910846242E+03  0.18069950883E+03  0.00000000000E+00 0.  1.
</event>
<event>
12    1  0.8417180E-002  0.2407381E+03  0.7818608E-02  0.1119360E+00
         21   -1    0    0  503  502  0.00000000000E+00  0.00000000000E+00  0.46222001755E+03  0.46222001755E+03  0.00000000000E+00 0.  1.
         21   -1    0    0  501  503 -0.00000000000E+00 -0.00000000000E+00 -0.40282988318E+03  0.40282988318E+03  0.00000000000E+00 0. -1.
          6    2    1    2  501    0  0.15665666580E+03  0.63106936209E+02 -0.32936988728E+03  0.40796982352E+03  0.17155482483E+03 0.  0.
         24    2    3    3    0    0  0.10505312025E+03  0.33554826272E+02 -0.91837283215E+02  0.16306151189E+03  0.77413730241E+02 0.  0.
         -6    2    1    2    0  502 -0.15665666580E+03 -0.63106936209E+02  0.38876002165E+03  0.45708007721E+03  0.17106737332E+03 0.  0.
        -24    2    5    5    0    0 -0.69886325324E+02  0.30873651688E+02  0.16850357771E+03  0.20233229217E+03  0.81900060544E+02 0.  0.
          5    1    3    3  501    0  0.51603545550E+02  0.29552109936E+02 -0.23753260406E+03  0.24490831164E+03  0.47000000000E+01 0. -1.
        -13    1    4    4    0    0  0.92051212109E+02  0.55172298217E+02 -0.85061477695E+02  0.13694109365E+03  0.00000000000E+00 0.  1.
         14    1    4    4    0    0  0.13001908141E+02 -0.21617471945E+02 -0.67758055199E+01  0.26120418240E+02  0.00000000000E+00 0. -1.
         -5    1    5    5    0  502 -0.86770340476E+02 -0.93980587897E+02  0.22025644394E+03  0.25474778505E+03  0.47000000000E+01 0.  1.
         13    1    6    6    0    0 -0.16749967815E+02 -0.15336425904E+02  0.35629038755E+01  0.22988294094E+02  0.00000000000E+00 0. -1.
        -14    1    6    6    0    0 -0.53136357509E+02  0.46210077592E+02  0.16494067383E+03  0.17934399807E+03  0.00000000000E+00 0.  1.
</event>
<event>
12    1  0.8417180E-002  0.4960231E+03  0.7818608E-02  0.1014860E+00
         21   -1    0    0  501  502  0.00000000000E+00  0.00000000000E+00  0.47209355985E+03  0.47209355985E+03  0.00000000000E+00 0. -1.
         21   -1    0    0  502  503 -0.00000000000E+00 -0.00000000000E+00 -0.10304870821E+04  0.10304870821E+04  0.00000000000E+00 0.  1.
         -6    2    1    2    0  503  0.42032020735E+03  0.19775988257E+03 -0.80776822867E+03  0.94790740135E+03  0.17395655326E+03 0.  0.
        -24    2    3    3    0    0  0.39789177850E+03  0.19152856295E+03 -0.65837661720E+03  0.79664006402E+03  0.78578392074E+02 0.  0.
          6    2    1    2  501    0 -0.42032020735E+03 -0.19775988257E+03  0.24937470643E+03  0.55467324059E+03  0.17232704882E+03 0.  0.
         24    2    5    5    0    0 -0.28568616396E+03 -0.16148199691E+03  0.24087508844E+03  0.41489933696E+03  0.80172513862E+02 0.  0.
          5    1    5    5  501    0 -0.13463404339E+03 -0.36277885665E+02  0.84996179896E+01  0.13977390362E+03  0.47000000000E+01 0. -1.
        -11    1    6    6    0    0 -0.31203860574E+02 -0.52267826344E+02  0.41860263627E+02  0.73877521997E+02  0.00000000000E+00 0.  1.
         12    1    6    6    0    0 -0.25448230338E+03 -0.10921417056E+03  0.19901482481E+03  0.34102181497E+03  0.00000000000E+00 0. -1.
         -5    1    3    3    0  503  0.22428428849E+02  0.62313196196E+01 -0.14939161147E+03  0.15126733733E+03  0.47000000000E+01 0.  1.
         11    1    4    4    0    0  0.15624547251E+01 -0.53666155102E+01 -0.12537822703E+02  0.13727302173E+02  0.00000000000E+00 0. -1.
        -12    1    4    4    0    0  0.39632932378E+03  0.19689517846E+03 -0.64583879449E+03  0.78291276184E+03  0.00000000000E+00 0.  1.
</event>
<event>
12    1  0.8417180E-002  0.2858240E+03  0.7818608E-02  0.1092582E+00
         21   -1    0    0  501  502  0.00000000000E+00  0.00000000000E+00  0.22331526561E+03  0.22331526561E+03  0.00000000000E+00 0. -1.
         21   -1    0    0  502  503 -0.00000000000E+00 -0.00000000000E+00 -0.77439219281E+03  0.77439219281E+03  0.00000000000E+00 0. -1.
         -6    2    1    2    0  503  0.24307049778E+02  0.22686918587E+03 -0.63807426274E+03  0.69916672671E+03  0.17214786319E+03 0.  0.
        -24    2    3    3    0    0  0.69315477064E+02  0.11360784381E+03 -0.28600208592E+03  0.32656667596E+03  0.84482087797E+02 0.  0.
          6    2    1    2  501    0 -0.24307049778E+02 -0.22686918587E+03  0.86997335538E+02  0.29854073170E+03  0.17174857184E+03 0.  0.
         24    2    5    5    0    0 -0.52498103228E+02 -0.80705062331E+02  0.80988935893E+02  0.14948746146E+03  0.80733731911E+02 0.  0.
          5    1    5    5  501    0  0.28191053450E+02 -0.14616412354E+03  0.60083996452E+01  0.14905327024E+03  0.47000000000E+01 0. -1.
        -13    1    6    6    0    0 -0.20671297953E+02 -0.29658100106E+02  0.81685335164E+02  0.89327484246E+02  0.00000000000E+00 0.  1.
         14    1    6    6    0    0 -0.31826805275E+02 -0.51046962225E+02 -0.69639927098E+00  0.60159977214E+02  0.00000000000E+00 0. -1.
         -5    1    3    3    0  503 -0.45008427286E+02  0.11326134206E+03 -0.35207217682E+03  0.37260005075E+03  0.47000000000E+01 0.  1.
         13    1    4    4    0    0  0.64857444528E+02  0.83457948090E+02 -0.27423046426E+03  0.29389464904E+03  0.00000000000E+00 0. -1.
        -14    1    4    4    0    0  0.44580325352E+01  0.30149895722E+02 -0.11771621667E+02  0.32672026916E+02  0.00000000000E+00 0.  1.
</event>
<event>
12    1  0.8417180E-002  0.1866978E+03  0.7818608E-02  0.1161673E+00
         21   -1    0    0  501  502  0.00000000000E+00  0.00000000000E+00  0.43855787440E+02  0.43855787440E+02  0.00000000000E+00 0. -1.
         21   -1    0    0  502  503 -0.00000000000E+00 -0.00000000000E+00 -0.18107657947E+04  0.18107657947E+04  0.00000000000E+00 0. -1.
         -6    2    1    2    0  503 -0.14079962337E+02 -0.66362970425E+02 -0.15784152804E+04  0.15893173308E+04  0.17301009032E+03 0.  0.
        -24    2    3    3    0    0 -0.30207332305E+02 -0.99917056661E+02 -0.14379776935E+04  0.14439530485E+04  0.79527718318E+02 0.  0.
          6    2    1    2  501    0  0.14079962337E+02  0.66362970425E+02 -0.18849472689E+03  0.26530425139E+03  0.17393617955E+03 0.  0.
         24    2    5    5    0    0  0.35430337414E+02  0.58596730354E+02 -0.20893932179E+03  0.23438137214E+03  0.81179441959E+02 0.  0.
          5    1    5    5  501    0 -0.21350375076E+02  0.77662400715E+01  0.20444594897E+02  0.30922879252E+02  0.47000000000E+01 0. -1.
        -13    1    6    6    0    0 -0.18111035096E+01  0.67093209035E+02 -0.11813981253E+03  0.13587418482E+03  0.00000000000E+00 0.  1.
         14    1    6    6    0    0  0.37241440923E+02 -0.84964786813E+01 -0.90799509258E+02  0.98507187319E+02  0.00000000000E+00 0. -1.
         -5    1    3    3    0  503  0.16127369968E+02  0.33554086235E+02 -0.14043758687E+03  0.14536428231E+03  0.47000000000E+01 0.  1.
         11    1    4    4    0    0 -0.34279613569E+02 -0.51095718931E+02 -0.38936961364E+03  0.39420116746E+03  0.00000000000E+00 0. -1.
        -12    1    4    4    0    0  0.40722812642E+01 -0.48821337730E+02 -0.10486080799E+04  0.10497518810E+04  0.00000000000E+00 0.  1.
</event>
<event>
12    1  0.8417180E-002  0.2241818E+03  0.7818608E-02  0.1130973E+00
         21   -1    0    0  503  502  0.00000000000E+00  0.00000000000E+00  0.14577929726E+03  0.14577929726E+03  0.00000000000E+00 0. -1.
         21   -1    0    0  501  503 -0.00000000000E+00 -0.00000000000E+00 -0.34361820557E+03  0.34361820557E+03  0.00000000000E+00 0.  1.
          6    2    1    2  501    0 -0.99896584566E+02  0.10210515116E+03 -0.10634500269E+03  0.24812648082E+03  0.17277934305E+03 0.  0.
         24    2    3    3    0    0 -0.50962062294E+02 -0.26164328127E+02 -0.32068336146E+02  0.91963873327E+02  0.64399316413E+02 0.  0.
         -6    2    1    2    0  502  0.99896584566E+02 -0.10210515116E+03 -0.91493905620E+02  0.24127102201E+03  0.17156859210E+03 0.  0.
        -24    2    5    5    0    0  0.10532353453E+03 -0.42255673138E+02 -0.11127094320E+03  0.17783102658E+03  0.79775073643E+02 0.  0.
          5    1    3    3  501    0 -0.48934522273E+02  0.12826947929E+03 -0.74276666542E+02  0.15616260749E+03  0.47000000000E+01 0. -1.
        -11    1    4    4    0    0 -0.27924449504E+02  0.25090020102E+01 -0.44962403651E+02  0.52987618490E+02  0.00000000000E+00 0.  1.
         12    1    4    4    0    0 -0.23037612790E+02 -0.28673330138E+02  0.12894067505E+02  0.38976254836E+02  0.00000000000E+00 0. -1.
         -5    1    5    5    0  502 -0.54269499659E+01 -0.59849478022E+02  0.19777037575E+02  0.63439995434E+02  0.47000000000E+01 0.  1.
         13    1    6    6    0    0  0.28792760031E+02 -0.50977650233E+01  0.89262151337E+01  0.30572660255E+02  0.00000000000E+00 0. -1.
        -14    1    6    6    0    0  0.76530774501E+02 -0.37157908115E+02 -0.12019715833E+03  0.14725836632E+03  0.00000000000E+00 0.  1.
</event>
<event>
12    1  0.8417180E-002  0.1959760E+03  0.7818608E-02  0.1153238E+00
         21   -1    0    0  503  502  0.00000000000E+00  0.00000000000E+00  0.19110060714E+03  0.19110060714E+03  0.00000000000E+00 0.  1.
         21   -1    0    0  501  503 -0.00000000000E+00 -0.00000000000E+00 -0.45064658545E+03  0.45064658545E+03  0.00000000000E+00 0.  1.
          6    2    1    2  501    0  0.87668947428E+02 -0.30838420348E+02 -0.36870156440E+03  0.41742261753E+03  0.17223224296E+03 0.  0.
         24    2    3    3    0    0  0.49436313933E+02 -0.60654444910E+02 -0.34601114982E+03  0.36368553072E+03  0.80128263611E+02 0.  0.
         -6    2    1    2    0  502 -0.87668947428E+02  0.30838420348E+02  0.10915558610E+03  0.22432457506E+03  0.17253904047E+03 0.  0.
        -24    2    5    5    0    0 -0.57036717674E+02  0.42486817757E+02 -0.30485377633E+01  0.10733793448E+03  0.80335681676E+02 0.  0.
          5    1    3    3  501    0  0.38232633495E+02  0.29816024562E+02 -0.22690414581E+02  0.53737086807E+02  0.47000000000E+01 0. -1.
        -11    1    4    4    0    0  0.13188726155E+01  0.12199104094E+02 -0.13172438572E+03  0.13229463843E+03  0.00000000000E+00 0.  1.
         12    1    4    4    0    0  0.48117441318E+02 -0.72853549004E+02 -0.21428676411E+03  0.23139089228E+03  0.00000000000E+00 0. -1.
         -5    1    5    5    0  502 -0.30632229754E+02 -0.11648397409E+02  0.11220412386E+03  0.11698664058E+03  0.47000000000E+01 0.  1.
         13    1    6    6    0    0  0.13338710265E+02 -0.22440420778E+01  0.16851287086E+02  0.21608396351E+02  0.00000000000E+00 0. -1.
        -14    1    6    6    0    0 -0.70375427939E+02  0.44730859835E+02 -0.19899824850E+02  0.85729538131E+02  0.00000000000E+00 0.  1.
</event>
<event>
12    1  0.8417180E-002  0.1819398E+03  0.7818608E-02  0.1168962E+00
         21   -1    0    0  501  502  0.00000000000E+00  0.00000000000E+00  0.82129346411E+02  0.82129346411E+02  0.00000000000E+00 0.  1.
         21   -1    0    0  502  503 -0.00000000000E+00 -0.00000000000E+00 -0.85524897016E+03  0.85524897016E+03  0.00000000000E+00 0.  1.
         -6    2    1    2    0  503 -0.58661142802E+01  0.56174418283E+02 -0.73124115540E+03  0.75068096120E+03  0.16005718222E+03 0.  0.
        -24    2    3    3    0    0  0.27069952491E+02  0.77219231385E+02 -0.65564340099E+03  0.66544728754E+03  0.79096341292E+02 0.  0.
          6    2    1    2  501    0  0.58661142802E+01 -0.56174418283E+02 -0.41878468348E+02  0.18669735538E+03  0.17295120649E+03 0.  0.
         24    2    5    5    0    0 -0.32547191826E+02 -0.46926537193E+01 -0.75884051274E+02  0.11386587977E+03  0.78266906442E+02 0.  0.
          5    1    5    5  501    0  0.38413306106E+02 -0.51481764564E+02  0.34005582926E+02  0.72831475605E+02  0.47000000000E+01 0. -1.
        -11    1    6    6    0    0  0.19278369545E+02  0.78184136356E+01  0.38865929449E+00  0.20807070436E+02  0.00000000000E+00 0.  1.
         12    1    6    6    0    0 -0.51825561371E+02 -0.12511067355E+02 -0.76272710568E+02  0.93058809337E+02  0.00000000000E+00 0. -1.
         -5    1    3    3    0  503 -0.32936066771E+02 -0.21044813102E+02 -0.75597754415E+02  0.85233673659E+02  0.47000000000E+01 0.  1.
         11    1    4    4    0    0  0.31750407397E+02  0.30482611150E+02 -0.12121437496E+03  0.12895814301E+03  0.00000000000E+00 0. -1.
        -12    1    4    4    0    0 -0.46804549061E+01  0.46736620234E+02 -0.53442902603E+03  0.53648914453E+03  0.00000000000E+00 0.  1.
</event>
<event>
12    1  0.8417180E-002  0.1756373E+03  0.7818608E-02  0.1172987E+00
         21   -1    0    0  501  502  0.00000000000E+00  0.00000000000E+00  0.94545249899E+02  0.94545249899E+02  0.00000000000E+00 0.  1.
         21   -1    0    0  502  503 -0.00000000000E+00 -0.00000000000E+00 -0.32700430968E+03  0.32700430968E+03  0.00000000000E+00 0.  1.
         -6    2    1    2    0  503 -0.23634213579E+02 -0.55040447362E+01 -0.14878909942E+03  0.23018830069E+03  0.17395283012E+03 0.  0.
        -24    2    3    3    0    0  0.24678481079E+02  0.10755134539E+02 -0.15709271078E+03  0.17832774402E+03  0.79987274990E+02 0.  0.
          6    2    1    2  501    0  0.23634213579E+02  0.55040447362E+01 -0.83669960367E+02  0.19136125890E+03  0.17038074592E+03 0.  0.
         24    2    5    5    0    0  0.59002180226E+02  0.72769223599E+01  0.15436115094E+01  0.98962779517E+02  0.79101441977E+02 0.  0.
          5    1    5    5  501    0 -0.35367966647E+02 -0.17728776237E+01 -0.85213571876E+02  0.92398479380E+02  0.47000000000E+01 0. -1.
        -11    1    6    6    0    0  0.66436981638E+02 -0.16342426203E+02  0.16036079701E+02  0.70271639197E+02  0.00000000000E+00 0.  1.
         12    1    6    6    0    0 -0.74348014120E+01  0.23619348563E+02 -0.14492468192E+02  0.28691140320E+02  0.00000000000E+00 0. -1.
         -5    1    3    3    0  503 -0.48312694658E+02 -0.16259179275E+02  0.83036113618E+01  0.51860556664E+02  0.47000000000E+01 0.  1.
         11    1    4    4    0    0  0.38163429212E+02 -0.24801572458E+02 -0.72844727080E+02  0.85894817009E+02  0.00000000000E+00 0. -1.
        -12    1    4    4    0    0 -0.13484948133E+02  0.35556706997E+02 -0.84247983699E+02  0.92432927012E+02  0.00000000000E+00 0.  1.
</event>
<event>
12    1  0.8417180E-002  0.2023801E+03  0.7818608E-02  0.1150648E+00
         21   -1    0    0  503  502  0.00000000000E+00  0.00000000000E+00  0.98778395837E+03  0.98778395837E+03  0.00000000000E+00 0. -1.
         21   -1    0    0  501  503 -0.00000000000E+00 -0.00000000000E+00 -0.49812264262E+02  0.49812264262E+02  0.00000000000E+00 0. -1.
          6    2    1    2  501    0 -0.26922084209E+02  0.65208638735E+02  0.23718311841E+03  0.31179088130E+03  0.18968594261E+03 0.  0.
         24    2    3    3    0    0  0.41834740009E+02 -0.14002251597E+02  0.14607616530E+03  0.17277853319E+03  0.81042994399E+02 0.  0.
         -6    2    1    2    0  502  0.26922084209E+02 -0.65208638735E+02  0.70078857571E+03  0.72580534133E+03  0.17524782590E+03 0.  0.
        -24    2    5    5    0    0  0.47932798849E+02 -0.11122701299E+03  0.53233028798E+03  0.54985243399E+03  0.65522225538E+02 0.  0.
          5    1    3    3  501    0 -0.68756824218E+02  0.79210890333E+02  0.91106953110E+02  0.13901234812E+03  0.47000000000E+01 0. -1.
        -13    1    4    4    0    0  0.45921341999E+02  0.93474895189E+01  0.14093587791E+03  0.14852295073E+03  0.00000000000E+00 0.  1.
         14    1    4    4    0    0 -0.40866019902E+01 -0.23349741116E+02  0.51402873894E+01  0.24255582460E+02  0.00000000000E+00 0. -1.
         -5    1    5    5    0  502 -0.21010714640E+02  0.46018374257E+02  0.16845828773E+03  0.17595290735E+03  0.47000000000E+01 0.  1.
         13    1    6    6    0    0  0.42108419164E+02 -0.11994978613E+03  0.49670379370E+03  0.51271408098E+03  0.00000000000E+00 0. -1.
        -14    1    6    6    0    0  0.58243796846E+01  0.87227731337E+01  0.35626494278E+02  0.37138353011E+02  0.00000000000E+00 0.  1.
</event>
<event>
12    1  0.8417180E-002  0.1850671E+03  0.7818608E-02  0.1163343E+00
         21   -1    0    0  503  502  0.00000000000E+00  0.00000000000E+00  0.12247661117E+03  0.12247661117E+03  0.00000000000E+00 0. -1.
         21   -1    0    0  501  503 -0.00000000000E+00 -0.00000000000E+00 -0.34796580598E+03  0.34796580598E+03  0.00000000000E+00 0.  1.
          6    2    1    2  501    0  0.52621318155E+02  0.40695428035E+02 -0.21833301808E+03  0.28523697512E+03  0.17107221926E+03 0.  0.
         24    2    3    3    0    0 -0.36975797523E+02  0.16182749481E+02 -0.86391663496E+02  0.12380858357E+03  0.78968062289E+02 0.  0.
         -6    2    1    2    0  502 -0.52621318155E+02 -0.40695428035E+02 -0.71561767261E+01  0.18520544203E+03  0.17269836104E+03 0.  0.
        -24    2    5    5    0    0 -0.99027810402E+02 -0.21146868181E+02  0.15276417449E+02  0.12987895654E+03  0.79884148336E+02 0.  0.
          5    1    3    3  501    0  0.89597115677E+02  0.24512678554E+02 -0.13194135459E+03  0.16142839155E+03  0.47000000000E+01 0. -1.
        -13    1    4    4    0    0 -0.28322956518E+02  0.38650592190E+01  0.68212113671E+01  0.29388049837E+02  0.00000000000E+00 0.  1.
         14    1    4    4    0    0 -0.86528410042E+01  0.12317690262E+02 -0.93212874863E+02  0.94420533736E+02  0.00000000000E+00 0. -1.
         -5    1    5    5    0  502  0.46406492248E+02 -0.19548559854E+02 -0.22432594175E+02  0.55326485488E+02  0.47000000000E+01 0.  1.
         13    1    6    6    0    0 -0.34995779583E+02 -0.18767079809E+02  0.44337278230E+02  0.59520602433E+02  0.00000000000E+00 0. -1.
        -14    1    6    6    0    0 -0.64032030819E+02 -0.23797883720E+01 -0.29060860781E+02  0.70358354109E+02  0.00000000000E+00 0.  1.
</event>
<event>
12    1  0.8417180E-002  0.1759379E+03  0.7818608E-02  0.1171825E+00
         21   -1    0    0  503  502  0.00000000000E+00  0.00000000000E+00  0.15588039453E+03  0.15588039453E+03  0.00000000000E+00 0. -1.
         21   -1    0    0  501  503 -0.00000000000E+00 -0.00000000000E+00 -0.25886048454E+03  0.25886048454E+03  0.00000000000E+00 0. -1.
          6    2    1    2  501    0  0.18814624639E+02  0.27917207437E+02 -0.15169591676E+03  0.23230536518E+03  0.17268691600E+03 0.  0.
         24    2    3    3    0    0 -0.24346975297E+02 -0.48097699950E+02 -0.83905880999E+02  0.12158604075E+03  0.69547138634E+02 0.  0.
         -6    2    1    2    0  502 -0.18814624639E+02 -0.27917207437E+02  0.48715826743E+02  0.18243551390E+03  0.17255759729E+03 0.  0.
        -24    2    5    5    0    0 -0.15439830800E+02  0.30569297547E+02 -0.22119592240E+02  0.90393093886E+02  0.80676915742E+02 0.  0.
          5    1    3    3  501    0  0.43161599936E+02  0.76014907387E+02 -0.67790035758E+02  0.11071932443E+03  0.47000000000E+01 0. -1.
        -13    1    4    4    0    0 -0.19602017166E+02 -0.26895195542E+02  0.16432382257E+01  0.33321027176E+02  0.00000000000E+00 0.  1.
         14    1    4    4    0    0 -0.47449581315E+01 -0.21202504408E+02 -0.85549119225E+02  0.88265013573E+02  0.00000000000E+00 0. -1.
         -5    1    5    5    0  502 -0.33747938391E+01 -0.58486504984E+02  0.70835418983E+02  0.92042420009E+02  0.47000000000E+01 0.  1.
         13    1    6    6    0    0 -0.94706561585E+01  0.19238676144E+01  0.29507887753E+02  0.31050121325E+02  0.00000000000E+00 0. -1.
        -14    1    6    6    0    0 -0.59691746413E+01  0.28645429933E+02 -0.51627479993E+02  0.59342972561E+02  0.00000000000E+00 0.  1.
</event>
<event>
12    1  0.8417180E-002  0.2102009E+03  0.7818608E-02  0.1143266E+00
         21   -1    0    0  503  502  0.00000000000E+00  0.00000000000E+00  0.32282191839E+03  0.32282191839E+03  0.00000000000E+00 0.  1.
         21   -1    0    0  501  503 -0.00000000000E+00 -0.00000000000E+00 -0.14234004718E+03  0.14234004718E+03  0.00000000000E+00 0.  1.
          6    2    1    2  501    0 -0.61151464316E+02  0.10571459560E+03  0.26339651063E+02  0.21184475509E+03  0.17108286217E+03 0.  0.
         24    2    3    3    0    0  0.20494988115E+02  0.19259611359E+02  0.36658247548E+02  0.92391120030E+02  0.80008216950E+02 0.  0.
         -6    2    1    2    0  502  0.61151464316E+02 -0.10571459560E+03  0.15414222015E+03  0.25331721048E+03  0.15967062278E+03 0.  0.
        -24    2    5    5    0    0  0.49293983687E+02 -0.12420268676E+03  0.16760107022E+03  0.22713248198E+03  0.75118848532E+02 0.  0.
          5    1    3    3  501    0 -0.81646452431E+02  0.86454984242E+02 -0.10318596485E+02  0.11945363506E+03  0.47000000000E+01 0. -1.
        -11    1    4    4    0    0  0.11041872547E+02  0.46286587870E+02  0.41756150564E+02  0.63308350759E+02  0.00000000000E+00 0.  1.
         12    1    4    4    0    0  0.94531155678E+01 -0.27026976511E+02 -0.50979030158E+01  0.29082769270E+02  0.00000000000E+00 0. -1.
         -5    1    5    5    0  502  0.11857480629E+02  0.18488091156E+02 -0.13458850070E+02  0.26184728500E+02  0.47000000000E+01 0.  1.
         11    1    6    6    0    0 -0.15273514827E+02 -0.24973334901E+01  0.18634408259E+02  0.24223090242E+02  0.00000000000E+00 0. -1.
        -12    1    6    6    0    0  0.64567498514E+02 -0.12170535327E+03  0.14896666196E+03  0.20290939173E+03  0.00000000000E+00 0.  1.
</event>
<event>
12    1  0.8417180E-002  0.1956005E+03  0.7818608E-02  0.1153877E+00
         21   -1    0    0  503  502  0.00000000000E+00  0.00000000000E+00  0.18439856636E+02  0.18439856636E+02  0.00000000000E+00 0. -1.
         21   -1    0    0  501  503 -0.00000000000E+00 -0.00000000000E+00 -0.24509949398E+04  0.24509949398E+04  0.00000000000E+00 0.  1.
          6    2    1    2  501    0 -0.78874878514E+02  0.46611260016E+02 -0.17159117145E+04  0.17270241988E+04  0.17281699889E+03 0.  0.
         24    2    3    3    0    0 -0.27233406643E+02 -0.34007324796E+02 -0.10692934513E+04  0.10733396677E+04  0.82288521023E+02 0.  0.
         -6    2    1    2    0  502  0.78874878514E+02 -0.46611260016E+02 -0.71664336860E+03  0.74241059762E+03  0.17088569769E+03 0.  0.
        -24    2    5    5    0    0 -0.17191092282E+02 -0.37630501409E+02 -0.26536827909E+03  0.28091236232E+03  0.82339804876E+02 0.  0.
          5    1    3    3  501    0 -0.51641471871E+02  0.80618584812E+02 -0.64661826328E+03  0.65368453113E+03  0.47000000000E+01 0. -1.
        -11    1    4    4    0    0 -0.50162537534E+02 -0.97095776906E+00 -0.71829501798E+03  0.72004510677E+03  0.00000000000E+00 0.  1.
         12    1    4    4    0    0  0.22929130891E+02 -0.33036367027E+02 -0.35099843329E+03  0.35329456090E+03  0.00000000000E+00 0. -1.
         -5    1    5    5    0  502  0.96065970795E+02 -0.89807586063E+01 -0.45127508951E+03  0.46149823530E+03  0.47000000000E+01 0.  1.
         11    1    6    6    0    0 -0.31506432510E+01  0.56911170291E+01  0.40563298250E+01  0.76661057639E+01  0.00000000000E+00 0. -1.
        -12    1    6    6    0    0 -0.14040449031E+02 -0.43321618438E+02 -0.26942460891E+03  0.27324625655E+03  0.00000000000E+00 0.  1.
</event>
<event>
12    1  0.8417180E-002  0.2560599E+03  0.7818608E-02  0.1109650E+00
         21   -1    0    0  501  502  0.00000000000E+00  0.00000000000E+00  0.67014544820E+02  0.67014544820E+02  0.00000000000E+00 0. -1.
         21   -1    0    0  502  503 -0.00000000000E+00 -0.00000000000E+00 -0.10740403995E+04  0.10740403995E+04  0.00000000000E+00 0.  1.
         -6    2    1    2    0  503  0.17091311793E+03 -0.77264608063E+02 -0.67564106461E+03  0.72226792415E+03  0.17320217244E+03 0.  0.
        -24    2    3    3    0    0  0.13753328286E+03 -0.10888557445E+03 -0.39782620915E+03  0.44063468248E+03  0.71566462099E+02 0.  0.
          6    2    1    2  501    0 -0.17091311793E+03  0.77264608063E+02 -0.33138479012E+03  0.41878702021E+03  0.17431458814E+03 0.  0.
         24    2    5    5    0    0 -0.67202740666E+02  0.77111056069E+02 -0.95041617570E+02  0.16064742399E+03  0.79450377232E+02 0.  0.
          5    1    5    5  501    0 -0.10371037726E+03  0.15355199447E+00 -0.23634317255E+03  0.25813959622E+03  0.47000000000E+01 0. -1.
        -13    1    6    6    0    0 -0.34926844838E+02 -0.10174508648E+02 -0.24251013881E+02  0.43720896501E+02  0.00000000000E+00 0.  1.
         14    1    6    6    0    0 -0.32275895828E+02  0.87285564717E+02 -0.70790603689E+02  0.11692652749E+03  0.00000000000E+00 0. -1.
         -5    1    3    3    0  503  0.33379835065E+02  0.31620966384E+02 -0.27781485545E+03  0.28163324167E+03  0.47000000000E+01 0.  1.
         11    1    4    4    0    0  0.10232429624E+02 -0.28918573544E+02 -0.12931414344E+03  0.13290272460E+03  0.00000000000E+00 0. -1.
        -12    1    4    4    0    0  0.12730085324E+03 -0.79967000903E+02 -0.26851206572E+03  0.30773195788E+03  0.00000000000E+00 0.  1.
</event>
<event>
12    1  0.8417180E-002  0.1818203E+03  0.7818608E-02  0.1166063E+00
         21   -1    0    0  501  502  0.00000000000E+00  0.00000000000E+00  0.21457185075E+03  0.21457185075E+03  0.00000000000E+00 0. -1.
         21   -1    0    0  502  503 -0.00000000000E+00 -0.00000000000E+00 -0.71220649902E+03  0.71220649902E+03  0.00000000000E+00 0.  1.
         -6    2    1    2    0  503 -0.28633494806E+02  0.53246337884E+02 -0.65905458919E+03  0.68367506162E+03  0.17147474691E+03 0.  0.
        -24    2    3    3    0    0 -0.80211057315E+02  0.44763924816E+01 -0.44604140841E+03  0.45909666170E+03  0.73232198899E+02 0.  0.
          6    2    1    2  501    0  0.28633494806E+02 -0.53246337884E+02  0.16141994091E+03  0.24310328815E+03  0.17142859114E+03 0.  0.
         24    2    5    5    0    0  0.21792942478E+02 -0.44911412186E+02  0.14640490531E+02  0.95853292574E+02  0.80508027227E+02 0.  0.
          5    1    5    5  501    0  0.68405523279E+01 -0.83349256982E+01  0.14677945038E+03  0.14724999557E+03  0.47000000000E+01 0. -1.
        -13    1    6    6    0    0  0.42105739680E+02 -0.56837980693E+02  0.14942193105E+02  0.72296047596E+02  0.00000000000E+00 0.  1.
         14    1    6    6    0    0 -0.20312797202E+02  0.11926568507E+02 -0.30170257404E+00  0.23557244978E+02  0.00000000000E+00 0. -1.
         -5    1    3    3    0  503  0.51577562509E+02  0.48769945402E+02 -0.21301318078E+03  0.22457839993E+03  0.47000000000E+01 0.  1.
         11    1    4    4    0    0 -0.26259988506E+02 -0.22490991339E+02 -0.28572723192E+03  0.28781154033E+03  0.00000000000E+00 0. -1.
        -12    1    4    4    0    0 -0.53951068809E+02  0.26967383821E+02 -0.16031417650E+03  0.17128512137E+03  0.00000000000E+00 0.  1.
</event>
<event>
12    1  0.8417180E-002  0.1924875E+03  0.7818608E-02  0.1158851E+00
         21   -1    0    0  503  502  0.00000000000E+00  0.00000000000E+00  0.81145144518E+02  0.81145144518E+02  0.00000000000E+00 0. -1.
         21   -1    0    0  501  503 -0.00000000000E+00 -0.00000000000E+00 -0.61247069781E+03  0.61247069781E+03  0.00000000000E+00 0. -1.
          6    2    1    2  501    0 -0.21588234378E+01  0.62011275649E+02 -0.82090926307E+02  0.20926143029E+03  0.18221242329E+03 0.  0.
         24    2    3    3    0    0  0.74923166812E+01 -0.34467313459E+02 -0.69523795367E+02  0.11137738950E+03  0.79543914053E+02 0.  0.
         -6    2    1    2    0  502  0.21588234378E+01 -0.62011275649E+02 -0.44923462698E+03  0.48435441203E+03  0.17010992784E+03 0.  0.
        -24    2    5    5    0    0  0.35162772461E+01 -0.37038898809E+02 -0.44869346820E+03  0.45890160986E+03  0.88772827459E+02 0.  0.
          5    1    3    3  501    0 -0.96511401190E+01  0.96478589108E+02 -0.12567130940E+02  0.97884040793E+02  0.47000000000E+01 0. -1.
        -13    1    4    4    0    0 -0.70803327913E+01  0.12762395331E+02  0.10037323127E+02  0.17713207010E+02  0.00000000000E+00 0.  1.
         14    1    4    4    0    0  0.14572649473E+02 -0.47229708791E+02 -0.79561118494E+02  0.93664182488E+02  0.00000000000E+00 0. -1.
         -5    1    5    5    0  502 -0.13574538083E+01 -0.24972376840E+02 -0.54115878591E+00  0.25452802178E+02  0.47000000000E+01 0.  1.
         11    1    6    6    0    0 -0.99183185242E+01 -0.58245208232E+02 -0.18954621797E+03  0.19854129563E+03  0.00000000000E+00 0. -1.
        -12    1    6    6    0    0  0.13434595770E+02  0.21206309422E+02 -0.25914725023E+03  0.26036031422E+03  0.00000000000E+00 0.  1.
</event>
<event>
12    1  0.8417180E-002  0.2038101E+03  0.7818608E-02  0.1146613E+00
         21   -1    0    0  503  502  0.00000000000E+00  0.00000000000E+00  0.53184674574E+02  0.53184674574E+02  0.00000000000E+00 0. -1.
         21   -1    0    0  501  503 -0.00000000000E+00 -0.00000000000E+00 -0.78010401632E+03  0.78010401632E+03  0.00000000000E+00 0.  1.
          6    2    1    2  501    0  0.99884949704E+02 -0.43324574347E+02 -0.36355917952E+03  0.41667237760E+03  0.17200747461E+03 0.  0.
         24    2    3    3    0    0  0.28636817568E+02  0.18590531655E+02 -0.26877793288E+03  0.28282413742E+03  0.81131007120E+02 0.  0.
         -6    2    1    2    0  502 -0.99884949704E+02  0.43324574347E+02 -0.36336016222E+03  0.41661631329E+03  0.17229197048E+03 0.  0.
        -24    2    5    5    0    0 -0.74235744865E+02  0.31058171587E+02 -0.98379488957E+02  0.15007327071E+03  0.79799166008E+02 0.  0.
          5    1    3    3  501    0  0.71248132137E+02 -0.61915106002E+02 -0.94781246637E+02  0.13384824018E+03  0.47000000000E+01 0. -1.
        -13    1    4    4    0    0  0.50523599677E+02  0.25839299975E+02 -0.23614703684E+03  0.24286977283E+03  0.00000000000E+00 0.  1.
         14    1    4    4    0    0 -0.21886782109E+02 -0.72487683193E+01 -0.32630896047E+02  0.39954364594E+02  0.00000000000E+00 0. -1.
         -5    1    5    5    0  502 -0.25649204840E+02  0.12266402760E+02 -0.26498067327E+03  0.26654304259E+03  0.47000000000E+01 0.  1.
         11    1    6    6    0    0 -0.77715512470E+02  0.11107592428E+02 -0.10279663093E+03  0.12934537804E+03  0.00000000000E+00 0. -1.
        -12    1    6    6    0    0  0.34797676059E+01  0.19950579159E+02  0.44171419764E+01  0.20727892672E+02  0.00000000000E+00 0.  1.
</event>
<event>
12    1  0.8417180E-002  0.1753622E+03  0.7818608E-02  0.1173211E+00
         21   -1    0    0  503  502  0.00000000000E+00  0.00000000000E+00  0.72772178672E+03  0.72772178672E+03  0.00000000000E+00 0.  1.
         21   -1    0    0  501  503 -0.00000000000E+00 -0.00000000000E+00 -0.41501676861E+02  0.41501676861E+02  0.00000000000E+00 0.  1.
          6    2    1    2  501    0  0.24139092547E+01 -0.16960155570E+02  0.33400309214E+03  0.37723992875E+03  0.17452342092E+03 0.  0.
         24    2    3    3    0    0 -0.18610532548E+02  0.45578733197E+02  0.26350094971E+03  0.28056634472E+03  0.82830854457E+02 0.  0.
         -6    2    1    2    0  502 -0.24139092547E+01  0.16960155570E+02  0.35221701772E+03  0.39198353483E+03  0.17117473579E+03 0.  0.
        -24    2    5    5    0    0 -0.12759782693E+02 -0.28868671339E+02  0.85414932815E+02  0.12103564135E+03  0.79735208598E+02 0.  0.
          5    1    3    3  501    0  0.21024441803E+02 -0.62538888767E+02  0.70502142425E+02  0.96673584023E+02  0.47000000000E+01 0. -1.
        -13    1    4    4    0    0 -0.70352972639E+01 -0.13483565750E+02  0.16088762201E+03  0.16160485410E+03  0.00000000000E+00 0.  1.
         14    1    4    4    0    0 -0.11575235284E+02  0.59062298947E+02  0.10261332770E+03  0.11896149062E+03  0.00000000000E+00 0. -1.
         -5    1    5    5    0  502  0.10345873438E+02  0.45828826909E+02  0.26680208490E+03  0.27094789348E+03  0.47000000000E+01 0.  1.
         11    1    6    6    0    0 -0.40255065781E+01 -0.25411287512E+02  0.10023775416E+03  0.10348693442E+03  0.00000000000E+00 0. -1.
        -12    1    6    6    0    0 -0.87342761147E+01 -0.34573838270E+01 -0.14822821348E+02  0.17548706929E+02  0.00000000000E+00 0.  1.
</event>
<event>
12    1  0.8417180E-002  0.1938125E+03  0.7818608E-02  0.1155213E+00
         21   -1    0    0  503  502  0.00000000000E+00  0.00000000000E+00  0.88890201829E+02  0.88890201829E+02  0.00000000000E+00 0.  1.
         21   -1    0    0  501  503 -0.00000000000E+00 -0.00000000000E+00 -0.49455805025E+03  0.49455805025E+03  0.00000000000E+00 0.  1.
          6    2    1    2  501    0  0.37692637756E+02  0.79070490080E+02 -0.31494088963E+03  0.36945137311E+03  0.17214434581E+03 0.  0.
         24    2    3    3    0    0 -0.25899571139E+02  0.22715493528E+02 -0.74011468287E+02  0.11393438594E+03  0.79476823220E+02 0.  0.
         -6    2    1    2    0  502 -0.37692637756E+02 -0.79070490080E+02 -0.90726958793E+02  0.21399687897E+03  0.17288842012E+03 0.  0.
        -24    2    5    5    0    0  0.24435197576E+02 -0.91649576607E+02 -0.83518046538E+02  0.15002688790E+03  0.80846021691E+02 0.  0.
          5    1    3    3  501    0  0.63592208896E+02  0.56354996551E+02 -0.24092942134E+03  0.25551698718E+03  0.47000000000E+01 0. -1.
        -13    1    4    4    0    0  0.10855928329E+02  0.16091655637E+02 -0.74085993316E+02  0.76586728398E+02  0.00000000000E+00 0.  1.
         14    1    4    4    0    0 -0.36755499469E+02  0.66238378916E+01  0.74525028649E-01  0.37347657538E+02  0.00000000000E+00 0. -1.
         -5    1    5    5    0  502 -0.62127835332E+02  0.12579086527E+02 -0.72089122546E+01  0.63969991064E+02  0.47000000000E+01 0.  1.
         11    1    6    6    0    0 -0.27828458016E+02 -0.25850721962E+02 -0.12441309184E+02  0.39968350926E+02  0.00000000000E+00 0. -1.
        -12    1    6    6    0    0  0.52263655592E+02 -0.65798854644E+02 -0.71076737354E+02  0.11005853698E+03  0.00000000000E+00 0.  1.
</event>
<event>
12    1  0.8417180E-002  0.1891703E+03  0.7818608E-02  0.1160212E+00
         21   -1    0    0  501  502  0.00000000000E+00  0.00000000000E+00  0.14015118067E+03  0.14015118067E+03  0.00000000000E+00 0. -1.
         21   -1    0    0  502  503 -0.00000000000E+00 -0.00000000000E+00 -0.28630463738E+03  0.28630463738E+03  0.00000000000E+00 0. -1.
         -6    2    1    2    0  503 -0.91549237976E+01  0.71121891693E+02 -0.15027595748E+03  0.24159521363E+03  0.17505212865E+03 0.  0.
        -24    2    3    3    0    0 -0.58192381676E+02  0.87791058555E+02 -0.14103594778E+03  0.18877475189E+03  0.68199304527E+02 0.  0.
          6    2    1    2  501    0  0.91549237976E+01 -0.71121891693E+02  0.41225007763E+01  0.18486060442E+03  0.17033587980E+03 0.  0.
         24    2    5    5    0    0 -0.41277438239E+02 -0.77787609361E+01 -0.33744107329E+02  0.95352250820E+02  0.78670521339E+02 0.  0.
          5    1    5    5  501    0  0.50432362037E+02 -0.63343130757E+02  0.37866608105E+02  0.89508353599E+02  0.47000000000E+01 0. -1.
        -13    1    6    6    0    0 -0.11829421826E+02 -0.41173406158E+02 -0.26137334518E+02  0.50183113206E+02  0.00000000000E+00 0.  1.
         14    1    6    6    0    0 -0.29448016413E+02  0.33394645222E+02 -0.76067728104E+01  0.45169137613E+02  0.00000000000E+00 0. -1.
         -5    1    3    3    0  503  0.49037457878E+02 -0.16669166862E+02 -0.92400097035E+01  0.52820461739E+02  0.47000000000E+01 0.  1.
         13    1    4    4    0    0 -0.24160685015E+02 -0.10388360669E+01 -0.84972097035E+01  0.25632410216E+02  0.00000000000E+00 0. -1.
        -14    1    4    4    0    0 -0.34031696661E+02  0.88829894622E+02 -0.13253873808E+03  0.16314234168E+03  0.00000000000E+00 0.  1.
</event>
<event>
12    1  0.8417180E-002  0.2592335E+03  0.7818608E-02  0.1108015E+00
         21   -1    0    0  503  502  0.00000000000E+00  0.00000000000E+00  0.24995086793E+03  0.24995086793E+03  0.00000000000E+00 0.  1.
         21   -1    0    0  501  503 -0.00000000000E+00 -0.00000000000E+00 -0.66180583726E+03  0.66180583726E+03  0.00000000000E+00 0.  1.
          6    2    1    2  501    0 -0.18853524212E+03  0.18271822807E+02 -0.55888536391E+03  0.61608025259E+03  0.17698200646E+03 0.  0.
         24    2    3    3    0    0 -0.15304522917E+03 -0.48590393624E+01 -0.24827255695E+03  0.30255675482E+03  0.80342236227E+02 0.  0.
         -6    2    1    2    0  502  0.18853524212E+03 -0.18271822807E+02  0.14703039457E+03  0.29567645260E+03  0.17299488624E+03 0.  0.
        -24    2    5    5    0    0  0.16774582434E+03  0.34154863669E+00  0.46703804510E+02  0.19143551937E+03  0.79545801164E+02 0.  0.
          5    1    3    3  501    0 -0.35490012955E+02  0.23130862169E+02 -0.31061280696E+03  0.31352349776E+03  0.47000000000E+01 0. -1.
        -13    1    4    4    0    0 -0.12231622891E+03 -0.31853577599E+02 -0.21677315552E+03  0.25093128784E+03  0.00000000000E+00 0.  1.
         14    1    4    4    0    0 -0.30729000261E+02  0.26994538236E+02 -0.31499401425E+02  0.51625466989E+02  0.00000000000E+00 0. -1.
         -5    1    5    5    0  502  0.20789417784E+02 -0.18613371443E+02  0.10032659006E+03  0.10424093323E+03  0.47000000000E+01 0.  1.
         13    1    6    6    0    0  0.26854794828E+02 -0.30445036473E+02  0.17919577242E+02  0.44375573232E+02  0.00000000000E+00 0. -1.
        -14    1    6    6    0    0  0.14089102951E+03  0.30786585110E+02  0.28784227268E+02  0.14705994614E+03  0.00000000000E+00 0.  1.
</event>
<event>
12    1  0.8417180E-002  0.1830342E+03  0.7818608E-02  0.1165254E+00
         21   -1    0    0  503  502  0.00000000000E+00  0.00000000000E+00  0.20523279473E+03  0.20523279473E+03  0.00000000000E+00 0.  1.
         21   -1    0    0  501  503 -0.00000000000E+00 -0.00000000000E+00 -0.57703372863E+03  0.57703372863E+03  0.00000000000E+00 0.  1.
          6    2    1    2  501    0 -0.25891018279E+02  0.55101687794E+02 -0.51743915112E+03  0.54836057687E+03  0.17102487051E+03 0.  0.
         24    2    3    3    0    0  0.57829617092E+01 -0.33787475276E+02 -0.24786176243E+03  0.26270592032E+03  0.80024441040E+02 0.  0.
         -6    2    1    2    0  502  0.25891018279E+02 -0.55101687794E+02  0.14563821722E+03  0.23390594649E+03  0.17261216835E+03 0.  0.
        -24    2    5    5    0    0  0.81398144146E+01 -0.10204758949E+03  0.89855075170E+02  0.15872036368E+03  0.81475470019E+02 0.  0.
          5    1    3    3  501    0 -0.31673979989E+02  0.88889163070E+02 -0.26957738869E+03  0.28565465656E+03  0.47000000000E+01 0. -1.
        -11    1    4    4    0    0 -0.18056077523E+02 -0.64990373959E+01 -0.20781608622E+03  0.20870022787E+03  0.00000000000E+00 0.  1.
         12    1    4    4    0    0  0.23839039232E+02 -0.27288437880E+02 -0.40045676215E+02  0.54005692450E+02  0.00000000000E+00 0. -1.
         -5    1    5    5    0  502  0.17751203865E+02  0.46945901694E+02  0.55783142055E+02  0.75185582807E+02  0.47000000000E+01 0.  1.
         13    1    6    6    0    0  0.14714316732E+02 -0.91833404118E+02  0.10436802120E+03  0.13979473909E+03  0.00000000000E+00 0. -1.
        -14    1    6    6    0    0 -0.65745023170E+01 -0.10214185370E+02 -0.14512946033E+02  0.18925624588E+02  0.00000000000E+00 0.  1.
</event>
<event>
12    1  0.8417180E-002  0.1772117E+03  0.7818608E-02  0.1170592E+00
         21   -1    0    0  503  502  0.00000000000E+00  0.00000000000E+00  0.20317344347E+02  0.20317344347E+02  0.00000000000E+00 0.  1.
         21   -1    0    0  501  503 -0.00000000000E+00 -0.00000000000E+00 -0.15780517528E+04  0.15780517528E+04  0.00000000000E+00 0.  1.
          6    2    1    2  501    0  0.37523454629E+02 -0.13863883393E+02 -0.65998593738E+03  0.68329735057E+03  0.17237637554E+03 0.  0.
         24    2    3    3    0    0  0.87670275896E+02 -0.30538143592E+02 -0.47457791617E+03  0.49044777456E+03  0.81830101847E+02 0.  0.
         -6    2    1    2    0  502 -0.37523454629E+02  0.13863883393E+02 -0.89774847107E+03  0.91507174657E+03  0.17263767596E+03 0.  0.
        -24    2    5    5    0    0 -0.91996458926E+02  0.11886130001E+02 -0.59617962302E+03  0.60858018091E+03  0.79593122564E+02 0.  0.
          5    1    3    3  501    0 -0.50146821267E+02  0.16674260199E+02 -0.18540802122E+03  0.19284957601E+03  0.47000000000E+01 0. -1.
        -13    1    4    4    0    0  0.58910778270E+02 -0.43596122800E+02 -0.42762578905E+03  0.43386048124E+03  0.00000000000E+00 0.  1.
         14    1    4    4    0    0  0.28759497627E+02  0.13057979208E+02 -0.46952127115E+02  0.56587293321E+02  0.00000000000E+00 0. -1.
         -5    1    5    5    0  502  0.54473004297E+02  0.19777533921E+01 -0.30156884805E+03  0.30649156566E+03  0.47000000000E+01 0.  1.
         11    1    6    6    0    0 -0.21557882622E+02 -0.60698135275E+01 -0.37692356628E+03  0.37758834695E+03  0.00000000000E+00 0. -1.
        -12    1    6    6    0    0 -0.70438576304E+02  0.17955943528E+02 -0.21925605674E+03  0.23099183396E+03  0.00000000000E+00 0.  1.
</event>
<event>
12    1  0.8417180E-002  0.2112227E+03  0.7818608E-02  0.1140826E+00
         21   -1    0    0  501  502  0.00000000000E+00  0.00000000000E+00  0.11072935320E+03  0.11072935320E+03  0.00000000000E+00 0. -1.
         21   -1    0    0  502  503 -0.00000000000E+00 -0.00000000000E+00 -0.40410132341E+03  0.40410132341E+03  0.00000000000E+00 0.  1.
         -6    2    1    2    0  503 -0.12159319110E+03  0.79993611735E+01 -0.12363990754E+03  0.24474851311E+03  0.17252858904E+03 0.  0.
        -24    2    3    3    0    0 -0.42855588598E+02  0.39235165927E+02 -0.12449877351E+03  0.15990681819E+03  0.81818373122E+02 0.  0.
          6    2    1    2  501    0  0.12159319110E+03 -0.79993611735E+01 -0.16973206268E+03  0.27008216349E+03  0.17113301270E+03 0.  0.
         24    2    5    5    0    0  0.16747926638E+02 -0.68445258782E+00 -0.14501278388E+02  0.82559568163E+02  0.79528823066E+02 0.  0.
          5    1    5    5  501    0  0.10484526446E+03 -0.73149085857E+01 -0.15523078429E+03  0.18752259533E+03  0.47000000000E+01 0. -1.
        -11    1    6    6    0    0 -0.22476084098E+02 -0.22493655153E+02 -0.19659052803E+02  0.37384719279E+02  0.00000000000E+00 0.  1.
         12    1    6    6    0    0  0.39224010736E+02  0.21809202565E+02  0.51577744146E+01  0.45174848884E+02  0.00000000000E+00 0. -1.
         -5    1    3    3    0  503 -0.78737602501E+02 -0.31235804754E+02  0.85886597289E+00  0.84841694921E+02  0.47000000000E+01 0.  1.
         11    1    4    4    0    0  0.14115851163E+02  0.31574952420E+02 -0.18254452323E+02  0.39108309910E+02  0.00000000000E+00 0. -1.
        -12    1    4    4    0    0 -0.56971439761E+02  0.76602135071E+01 -0.10624432119E+03  0.12079850828E+03  0.00000000000E+00 0.  1.
</event>
<event>
12    1  0.8417180E-002  0.2852690E+03  0.7818608E-02  0.1093147E+00
         21   -1    0    0  501  502  0.00000000000E+00  0.00000000000E+00  0.16771892057E+03  0.16771892057E+03  0.00000000000E+00 0.  1.
         21   -1    0    0  502  503 -0.00000000000E+00 -0.00000000000E+00 -0.49136408531E+03  0.49136408531E+03  0.00000000000E+00 0.  1.
         -6    2    1    2    0  503  0.52042143244E+02 -0.22105889215E+03 -0.20940348956E+03  0.35387602285E+03  0.17263545301E+03 0.  0.
        -24    2    3    3    0    0  0.18975223567E+02 -0.15958179880E+03 -0.21946078834E+03  0.28319297366E+03  0.78796022078E+02 0.  0.
          6    2    1    2  501    0 -0.52042143244E+02  0.22105889215E+03 -0.11424167518E+03  0.30520698303E+03  0.16889263948E+03 0.  0.
         24    2    5    5    0    0 -0.25830286454E+02  0.14530858332E+03 -0.14339304188E+03  0.21978413536E+03  0.77212133828E+02 0.  0.
          5    1    5    5  501    0 -0.26211856790E+02  0.75750308827E+02  0.29151366702E+02  0.85422847672E+02  0.47000000000E+01 0. -1.
        -11    1    6    6    0    0 -0.80668182333E+01  0.13366013963E+03 -0.87414165476E+02  0.15991042120E+03  0.00000000000E+00 0.  1.
         12    1    6    6    0    0 -0.17763468220E+02  0.11648443694E+02 -0.55978876408E+02  0.59873714162E+02  0.00000000000E+00 0. -1.
         -5    1    3    3    0  503  0.33066919677E+02 -0.61477093351E+02  0.10057298780E+02  0.70683049189E+02  0.47000000000E+01 0.  1.
         13    1    4    4    0    0  0.41030245050E+02 -0.57251145339E+02 -0.11792627729E+03  0.13736004342E+03  0.00000000000E+00 0. -1.
        -14    1    4    4    0    0 -0.22055021484E+02 -0.10233065346E+03 -0.10153451105E+03  0.14583293025E+03  0.00000000000E+00 0.  1.
</event>
<event>
12    1  0.8417180E-002  0.2054082E+03  0.7818608E-02  0.1148770E+00
         21   -1    0    0  503  502  0.00000000000E+00  0.00000000000E+00  0.48266550592E+02  0.48266550592E+02  0.00000000000E+00 0.  1.
         21   -1    0    0  501  503 -0.00000000000E+00 -0.00000000000E+00 -0.12034150753E+04  0.12034150753E+04  0.00000000000E+00 0. -1.
          6    2    1    2  501    0 -0.50074918969E+02  0.68909544846E+02 -0.92113269623E+03  0.94030417215E+03  0.16861337197E+03 0.  0.
         24    2    3    3    0    0 -0.85263092425E+02  0.73188024334E+02 -0.53100872308E+03  0.54854491270E+03  0.79403875351E+02 0.  0.
         -6    2    1    2    0  502  0.50074918969E+02 -0.68909544846E+02 -0.23401582848E+03  0.31137745375E+03  0.18691304888E+03 0.  0.
        -24    2    5    5    0    0  0.66613190847E+02 -0.25320947394E+02 -0.23993266876E+03  0.26414844504E+03  0.84428951828E+02 0.  0.
          5    1    3    3  501    0  0.35188173456E+02 -0.42784794877E+01 -0.39012397315E+03  0.39175925945E+03  0.47000000000E+01 0. -1.
        -11    1    4    4    0    0 -0.39883492344E+02  0.78176613090E+02 -0.28045920025E+03  0.29387010532E+03  0.00000000000E+00 0.  1.
         12    1    4    4    0    0 -0.45379600082E+02 -0.49885887556E+01 -0.25054952284E+03  0.25467480738E+03  0.00000000000E+00 0. -1.
         -5    1    5    5    0  502 -0.16538271878E+02 -0.43588597453E+02  0.59168402817E+01  0.47229008708E+02  0.47000000000E+01 0.  1.
         13    1    6    6    0    0  0.21480854847E+01  0.15285958911E+02 -0.12690440659E+03  0.12783975603E+03  0.00000000000E+00 0. -1.
        -14    1    6    6    0    0  0.64465105363E+02 -0.40606906305E+02 -0.11302826217E+03  0.13630868900E+03  0.00000000000E+00 0.  1.
</event>
<event>
12    1  0.8417180E-002  0.2157768E+03  0.7818608E-02  0.1137376E+00
         21   -1    0    0  501  502  0.00000000000E+00  0.00000000000E+00  0.17569233118E+03  0.17569233118E+03  0.00000000000E+00 0. -1.
         21   -1    0    0  502  503 -0.00000000000E+00 -0.00000000000E+00 -0.78848559663E+03  0.78848559663E+03  0.00000000000E+00 0.  1.
         -6    2    1    2    0  503  0.26817986044E+02  0.12482604271E+03  0.87516205809E+02  0.23137986390E+03  0.17197909706E+03 0.  0.
        -24    2    3    3    0    0 -0.23034636361E+02  0.14728062516E+02  0.69528853371E+02  0.10909951368E+03  0.79504290050E+02 0.  0.
          6    2    1    2  501    0 -0.26817986044E+02 -0.12482604271E+03 -0.70030947126E+03  0.73279806391E+03  0.17395085978E+03 0.  0.
         24    2    5    5    0    0  0.52759737506E+02 -0.81683233540E+02 -0.40332370474E+03  0.42228791660E+03  0.78748543828E+02 0.  0.
          5    1    5    5  501    0 -0.79577723551E+02 -0.43142809166E+02 -0.29698576652E+03  0.31051014731E+03  0.47000000000E+01 0. -1.
        -13    1    6    6    0    0 -0.10303439898E+01 -0.70086595627E+02 -0.22833170420E+03  0.23884840304E+03  0.00000000000E+00 0.  1.
         14    1    6    6    0    0  0.53790081496E+02 -0.11596637913E+02 -0.17499200055E+03  0.18343951356E+03  0.00000000000E+00 0. -1.
         -5    1    3    3    0  503  0.49852622405E+02  0.11009798019E+03  0.17987352438E+02  0.12228035022E+03  0.47000000000E+01 0.  1.
         13    1    4    4    0    0 -0.88522698313E+01  0.10784668411E+02  0.85933367143E+02  0.87058689069E+02  0.00000000000E+00 0. -1.
        -14    1    4    4    0    0 -0.14182366529E+02  0.39433941048E+01 -0.16404513772E+02  0.22040824611E+02  0.00000000000E+00 0.  1.
</event>
<event>
12    1  0.8417180E-002  0.1763951E+03  0.7818608E-02  0.1171704E+00
         21   -1    0    0  503  502  0.00000000000E+00  0.00000000000E+00  0.28263047782E+03  0.28263047782E+03  0.00000000000E+00 0. -1.
         21   -1    0    0  501  503 -0.00000000000E+00 -0.00000000000E+00 -0.14015092013E+03  0.14015092013E+03  0.00000000000E+00 0. -1.
          6    2    1    2  501    0  0.32860226222E+02  0.31445931956E+01  0.17038359710E+03  0.24419283326E+03  0.17178441932E+03 0.  0.
         24    2    3    3    0    0  0.82490422639E+02  0.22706146335E+02  0.13838820966E+03  0.18181009867E+03  0.81138008942E+02 0.  0.
         -6    2    1    2    0  502 -0.32860226222E+02 -0.31445931956E+01 -0.27904039414E+02  0.17858856469E+03  0.17327884201E+03 0.  0.
        -24    2    5    5    0    0  0.10711950964E+02  0.15530756501E+02  0.43653658345E+02  0.92624052128E+02  0.79483475357E+02 0.  0.
          5    1    3    3  501    0 -0.49630196417E+02 -0.19561553139E+02  0.31995387438E+02  0.62382734590E+02  0.47000000000E+01 0. -1.
        -11    1    4    4    0    0  0.28819954105E+02 -0.15486807319E+02  0.50728708248E+01  0.33108382231E+02  0.00000000000E+00 0.  1.
         12    1    4    4    0    0  0.53670468534E+02  0.38192953654E+02  0.13331533884E+03  0.14870171644E+03  0.00000000000E+00 0. -1.
         -5    1    5    5    0  502 -0.43572177186E+02 -0.18675349696E+02 -0.71557697759E+02  0.85964512559E+02  0.47000000000E+01 0.  1.
         13    1    6    6    0    0  0.68056862077E+01 -0.31358730544E+02  0.66643639722E+01  0.32773481555E+02  0.00000000000E+00 0. -1.
        -14    1    6    6    0    0  0.39062647567E+01  0.46889487045E+02  0.36989294373E+02  0.59850570573E+02  0.00000000000E+00 0.  1.
</event>
<event>
12    1  0.8417180E-002  0.1866379E+03  0.7818608E-02  0.1162082E+00
         21   -1    0    0  501  502  0.00000000000E+00  0.00000000000E+00  0.15815752444E+03  0.15815752444E+03  0.00000000000E+00 0. -1.
         21   -1    0    0  502  503 -0.00000000000E+00 -0.00000000000E+00 -0.22496725409E+03  0.22496725409E+03  0.00000000000E+00 0. -1.
         -6    2    1    2    0  503 -0.60389441984E+01  0.66714791083E+02  0.14045753638E+01  0.18664322551E+03  0.17420214867E+03 0.  0.
        -24    2    3    3    0    0  0.37709761760E+02 -0.26932026547E+02  0.29960166416E+02  0.79306430770E+02  0.56960847991E+02 0.  0.
          6    2    1    2  501    0  0.60389441984E+01 -0.66714791083E+02 -0.68214305017E+02  0.19648155302E+03  0.17165219798E+03 0.  0.
         24    2    5    5    0    0  0.22886823203E+02 -0.10452658769E+03 -0.77087925444E+02  0.15388561273E+03  0.79300815546E+02 0.  0.
          5    1    5    5  501    0 -0.16847879004E+02  0.37811796604E+02  0.88736204266E+01  0.42595940286E+02  0.47000000000E+01 0. -1.
        -11    1    6    6    0    0 -0.10304840461E+02  0.65564286429E+01 -0.22807555319E+02  0.25872013317E+02  0.00000000000E+00 0.  1.
         12    1    6    6    0    0  0.33191663664E+02 -0.11108301633E+03 -0.54280370125E+02  0.12801359941E+03  0.00000000000E+00 0. -1.
         -5    1    3    3    0  503 -0.43748705959E+02  0.93646817630E+02 -0.28555591052E+02  0.10733679474E+03  0.47000000000E+01 0.  1.
         13    1    4    4    0    0  0.42375044585E+02 -0.18549255335E+02 -0.16359082601E+01  0.46286018114E+02  0.00000000000E+00 0. -1.
        -14    1    4    4    0    0 -0.46652828243E+01 -0.83827712125E+01  0.31596074676E+02  0.33020412656E+02  0.00000000000E+00 0.  1.
</event>
<event>
12    1  0.8417180E-002  0.1850321E+03  0.7818608E-02  0.1164075E+00
         21   -1    0    0  503  502  0.00000000000E+00  0.00000000000E+00  0.24009097959E+03  0.24009097959E+03  0.00000000000E+00 0. -1.
         21   -1    0    0  501  503 -0.00000000000E+00 -0.00000000000E+00 -0.18866887336E+03  0.18866887336E+03  0.00000000000E+00 0. -1.
          6    2    1    2  501    0 -0.33852458697E+02 -0.56792323306E+02 -0.84309489257E+02  0.19928233585E+03  0.16802976658E+03 0.  0.
         24    2    3    3    0    0 -0.67240592172E+02 -0.82553404475E+02 -0.42868427895E+02  0.13997085023E+03  0.80111016584E+02 0.  0.
         -6    2    1    2    0  502  0.33852458697E+02  0.56792323306E+02  0.13573159549E+03  0.22947751710E+03  0.17281639938E+03 0.  0.
        -24    2    5    5    0    0  0.21583992916E+02  0.81668725527E+02  0.15775080536E+03  0.19375236849E+03  0.74290068131E+02 0.  0.
          5    1    3    3  501    0  0.33388133474E+02  0.25761081169E+02 -0.41441061362E+02  0.59311485622E+02  0.47000000000E+01 0. -1.
        -11    1    4    4    0    0 -0.15417082767E+02 -0.15512251397E+01 -0.40957359750E+02  0.43790387737E+02  0.00000000000E+00 0.  1.
         12    1    4    4    0    0 -0.51823509404E+02 -0.81002179335E+02 -0.19110681452E+01  0.96180462493E+02  0.00000000000E+00 0. -1.
         -5    1    5    5    0  502  0.12268465781E+02 -0.24876402221E+02 -0.22019209875E+02  0.35725148615E+02  0.47000000000E+01 0.  1.
         11    1    6    6    0    0  0.41161667707E+02  0.16356795941E+02  0.60464923339E+02  0.74952215553E+02  0.00000000000E+00 0. -1.
        -12    1    6    6    0    0 -0.19577674791E+02  0.65311929586E+02  0.97285882021E+02  0.11880015293E+03  0.00000000000E+00 0.  1.
</event>
<event>
12    1  0.8417180E-002  0.2230473E+03  0.7818608E-02  0.1131878E+00
         21   -1    0    0  503  502  0.00000000000E+00  0.00000000000E+00  0.50082524639E+03  0.50082524639E+03  0.00000000000E+00 0.  1.
         21   -1    0    0  501  503 -0.00000000000E+00 -0.00000000000E+00 -0.11517772965E+03  0.11517772965E+03  0.00000000000E+00 0.  1.
          6    2    1    2  501    0  0.13814525001E+03  0.18578743008E+02  0.76964821082E+02  0.23595267676E+03  0.17412869435E+03 0.  0.
         24    2    3    3    0    0  0.84167134565E+02  0.29938976719E+02 -0.17811649756E+02  0.12619220445E+03  0.87331373116E+02 0.  0.
         -6    2    1    2    0  502 -0.13814525001E+03 -0.18578743008E+02  0.30868269565E+03  0.38005029928E+03  0.17240633281E+03 0.  0.
        -24    2    5    5    0    0 -0.29722918937E+02  0.13273871989E+02  0.22051291324E+03  0.23664182154E+03  0.79459166919E+02 0.  0.
          5    1    3    3  501    0  0.53978115441E+02 -0.11360233711E+02  0.94776470838E+02  0.10976047231E+03  0.47000000000E+01 0. -1.
        -13    1    4    4    0    0  0.22421813794E+02 -0.25194248152E+02  0.15303579539E+02  0.37036298688E+02  0.00000000000E+00 0.  1.
         14    1    4    4    0    0  0.61745320771E+02  0.55133224872E+02 -0.33115229295E+02  0.89155905767E+02  0.00000000000E+00 0. -1.
         -5    1    5    5    0  502 -0.10842233107E+03 -0.31852614998E+02  0.88169782411E+02  0.14340847774E+03  0.47000000000E+01 0.  1.
         13    1    6    6    0    0  0.26076625647E+02  0.88949612024E+01  0.10068037057E+03  0.10438221955E+03  0.00000000000E+00 0. -1.
        -14    1    6    6    0    0 -0.55799544584E+02  0.43789107870E+01  0.11983254267E+03  0.13225960199E+03  0.00000000000E+00 0.  1.
</event>
<event>
12    1  0.8417180E-002  0.2628590E+03  0.7818608E-02  0.1105750E+00
         21   -1    0    0  503  502  0.00000000000E+00  0.00000000000E+00  0.24298827536E+02  0.24298827536E+02  0.00000000000E+00 0. -1.
         21   -1    0    0  501  503 -0.00000000000E+00 -0.00000000000E+00 -0.31557349005E+04  0.31557349005E+04  0.00000000000E+00 0.  1.
          6    2    1    2  501    0  0.12934656980E+03 -0.14878160906E+03 -0.20780324763E+04  0.20943293444E+04  0.17067491922E+03 0.  0.
         24    2    3    3    0    0  0.81774013862E+02 -0.33504828040E+02 -0.66582188350E+03  0.67661543368E+03  0.81731889087E+02 0.  0.
         -6    2    1    2    0  502 -0.12934656980E+03  0.14878160906E+03 -0.10534035967E+04  0.10857043837E+04  0.17386307490E+03 0.  0.
        -24    2    5    5    0    0 -0.98242669271E+02  0.23656115714E+02 -0.44055532305E+03  0.45942254755E+03  0.82273025046E+02 0.  0.
          5    1    3    3  501    0  0.47572555938E+02 -0.11527678102E+03 -0.14122105927E+04  0.14177139107E+04  0.47000000000E+01 0. -1.
        -11    1    4    4    0    0  0.39885116215E+02 -0.59013454031E+02 -0.38062115917E+03  0.38722845591E+03  0.00000000000E+00 0.  1.
         12    1    4    4    0    0  0.41888897647E+02  0.25508625991E+02 -0.28520072433E+03  0.28938697777E+03  0.00000000000E+00 0. -1.
         -5    1    5    5    0  502 -0.31103900529E+02  0.12512549335E+03 -0.61284827366E+03  0.62628183611E+03  0.47000000000E+01 0.  1.
         13    1    6    6    0    0 -0.25087033265E+02 -0.81367307399E+01 -0.26832338505E+03  0.26961640267E+03  0.00000000000E+00 0. -1.
        -14    1    6    6    0    0 -0.73155636005E+02  0.31792846454E+02 -0.17223193801E+03  0.18980614488E+03  0.00000000000E+00 0.  1.
</event>
<event>
12    1  0.8417180E-002  0.2274671E+03  0.7818608E-02  0.1131641E+00
         21   -1    0    0  503  502  0.00000000000E+00  0.00000000000E+00  0.10680008341E+03  0.10680008341E+03  0.00000000000E+00 0. -1.
         21   -1    0    0  501  503 -0.00000000000E+00 -0.00000000000E+00 -0.57786895909E+03  0.57786895909E+03  0.00000000000E+00 0. -1.
          6    2    1    2  501    0  0.11554161531E+03 -0.41283113334E+02 -0.80840351702E+02  0.24140515056E+03  0.19153883141E+03 0.  0.
         24    2    3    3    0    0 -0.11289941957E+02  0.19665898821E+02 -0.20604161052E+02  0.88266276765E+02  0.82777978928E+02 0.  0.
         -6    2    1    2    0  502 -0.11554161531E+03  0.41283113334E+02 -0.39022852398E+03  0.44326389195E+03  0.17073493100E+03 0.  0.
        -24    2    5    5    0    0 -0.13945829338E+03  0.23770559392E+02 -0.37637657406E+03  0.41020843019E+03  0.81227923820E+02 0.  0.
          5    1    3    3  501    0  0.12683155727E+03 -0.60949012155E+02 -0.60236190650E+02  0.15313887379E+03  0.47000000000E+01 0. -1.
        -11    1    4    4    0    0 -0.39550765878E+02 -0.35226061253E+01  0.95940024985E+01  0.40849929245E+02  0.00000000000E+00 0.  1.
         12    1    4    4    0    0  0.28260823920E+02  0.23188504946E+02 -0.30198163550E+02  0.47416347519E+02  0.00000000000E+00 0. -1.
         -5    1    5    5    0  502  0.23916678071E+02  0.17512553942E+02 -0.13851949916E+02  0.33055461758E+02  0.47000000000E+01 0.  1.
         13    1    6    6    0    0 -0.97038674813E+02  0.28716692986E+02 -0.33788733708E+03  0.35271660781E+03  0.00000000000E+00 0. -1.
        -14    1    6    6    0    0 -0.42419618569E+02 -0.49461335941E+01 -0.38489236985E+02  0.57491822382E+02  0.00000000000E+00 0.  1.
</event>
<event>
12    1  0.8417180E-002  0.1750276E+03  0.7818608E-02  0.1173064E+00
         21   -1    0    0  501  502  0.00000000000E+00  0.00000000000E+00  0.79845759583E+03  0.79845759583E+03  0.00000000000E+00 0.  1.
         21   -1    0    0  502  503 -0.00000000000E+00 -0.00000000000E+00 -0.14908649493E+03  0.14908649493E+03  0.00000000000E+00 0.  1.
         -6    2    1    2    0  503  0.27078059984E+02  0.27431601927E+02 -0.83833105857E+02  0.19406863414E+03  0.17073058017E+03 0.  0.
        -24    2    3    3    0    0 -0.47325924997E+02  0.33511393432E+02 -0.55860759608E+02  0.11420963966E+03  0.80997905282E+02 0.  0.
          6    2    1    2  501    0 -0.27078059984E+02 -0.27431601927E+02  0.73320420676E+03  0.75347545662E+03  0.16926647870E+03 0.  0.
         24    2    5    5    0    0 -0.37500309125E+02 -0.38526837496E+02  0.20279883642E+03  0.22283087273E+03  0.75070895812E+02 0.  0.
          5    1    5    5  501    0  0.10422249142E+02  0.11095235569E+02  0.53040537034E+03  0.53064458389E+03  0.47000000000E+01 0. -1.
        -13    1    6    6    0    0 -0.29473411480E+02 -0.61384806852E+02  0.14766422464E+03  0.16260842455E+03  0.00000000000E+00 0.  1.
         14    1    6    6    0    0 -0.80268976450E+01  0.22857969357E+02  0.55134611779E+02  0.60222448181E+02  0.00000000000E+00 0. -1.
         -5    1    3    3    0  503  0.74403984980E+02 -0.60797915055E+01 -0.27972346249E+02  0.79858994486E+02  0.47000000000E+01 0.  1.
         13    1    4    4    0    0 -0.42070722103E+02 -0.46332682925E+00 -0.66086123746E+02  0.78342428363E+02  0.00000000000E+00 0. -1.
        -14    1    4    4    0    0 -0.52552028935E+01  0.33974720262E+02  0.10225364138E+02  0.35867211295E+02  0.00000000000E+00 0.  1.
</event>
<event>
12    1  0.8417180E-002  0.2146943E+03  0.7818608E-02  0.1137909E+00
         21   -1    0    0  501  502  0.00000000000E+00  0.00000000000E+00  0.16820513413E+04  0.16820513413E+04  0.00000000000E+00 0.  1.
         21   -1    0    0  502  503 -0.00000000000E+00 -0.00000000000E+00 -0.29346054954E+02  0.29346054954E+02  0.00000000000E+00 0. -1.
         -6    2    1    2    0  503 -0.12374881673E+03 -0.34266734822E+02  0.10468484193E+04  0.10686370953E+04  0.17206292336E+03 0.  0.
        -24    2    3    3    0    0 -0.73195710820E+02  0.31225296998E+02  0.39295366882E+03  0.40951248073E+03  0.83398170156E+02 0.  0.
          6    2    1    2  501    0  0.12374881673E+03  0.34266734822E+02  0.60585686701E+03  0.64276030097E+03  0.17201826194E+03 0.  0.
         24    2    5    5    0    0  0.13068636088E+03  0.66167400227E+01  0.59030445018E+03  0.60994842201E+03  0.80343185449E+02 0.  0.
          5    1    5    5  501    0 -0.69375441481E+01  0.27649994799E+02  0.15552416829E+02  0.32811878953E+02  0.47000000000E+01 0. -1.
        -13    1    6    6    0    0  0.80451585876E+02 -0.10515389641E+02  0.19662673701E+03  0.21270896737E+03  0.00000000000E+00 0.  1.
         14    1    6    6    0    0  0.50234775006E+02  0.17132129663E+02  0.39367771316E+03  0.39723945465E+03  0.00000000000E+00 0. -1.
         -5    1    3    3    0  503 -0.50553105914E+02 -0.65492031820E+02  0.65389475053E+03  0.65912461456E+03  0.47000000000E+01 0.  1.
         13    1    4    4    0    0 -0.35577153603E+02 -0.22368641994E+02  0.86841915905E+02  0.96475947060E+02  0.00000000000E+00 0. -1.
        -14    1    4    4    0    0 -0.37618557217E+02  0.53593938992E+02  0.30611175291E+03  0.31303653367E+03  0.00000000000E+00 0.  1.
</event>
<event>
12    1  0.8417180E-002  0.2110710E+03  0.7818608E-02  0.1140770E+00
         21   -1    0    0  501  502  0.00000000000E+00  0.00000000000E+00  0.20341122421E+04  0.20341122421E+04  0.00000000000E+00 0. -1.
         21   -1    0    0  502  503 -0.00000000000E+00 -0.00000000000E+00 -0.89210318283E+02  0.89210318283E+02  0.00000000000E+00 0. -1.
         -6    2    1    2    0  503 -0.31213479886E+02  0.11785268516E+03  0.18949430917E+04  0.19066620818E+04  0.17230042612E+03 0.  0.
        -24    2    3    3    0    0 -0.57417973543E+02  0.14713655893E+02  0.11190239882E+04  0.11234655037E+04  0.80291571650E+02 0.  0.
          6    2    1    2  501    0  0.31213479886E+02 -0.11785268516E+03  0.49958832142E+02  0.21666047856E+03  0.17199517823E+03 0.  0.
         24    2    5    5    0    0 -0.38469812943E+02 -0.83173168069E+02  0.64263737132E+02  0.13738153740E+03  0.79662767421E+02 0.  0.
          5    1    5    5  501    0  0.69683292829E+02 -0.34679517091E+02 -0.14304904991E+02  0.79278941163E+02  0.47000000000E+01 0. -1.
        -13    1    6    6    0    0 -0.73745875039E+01 -0.72387296259E+02  0.73267924636E+02  0.10325935300E+03  0.00000000000E+00 0.  1.
         14    1    6    6    0    0 -0.31095225439E+02 -0.10785871810E+02 -0.90041875038E+01  0.34122184403E+02  0.00000000000E+00 0. -1.
         -5    1    3    3    0  503  0.26204493657E+02  0.10313902927E+03  0.77591910351E+03  0.78319657816E+03  0.47000000000E+01 0.  1.
         13    1    4    4    0    0 -0.63547326486E+02  0.32606124841E+02  0.62296608475E+03  0.62704717911E+03  0.00000000000E+00 0. -1.
        -14    1    4    4    0    0  0.61293529429E+01 -0.17892468948E+02  0.49605790341E+03  0.49641832455E+03  0.00000000000E+00 0.  1.
</event>
<event>
12    1  0.8417180E-002  0.1767395E+03  0.7818608E-02  0.1171150E+00
         21   -1    0    0  501  502  0.00000000000E+00  0.00000000000E+00  0.64360564874E+02  0.64360564874E+02  0.00000000000E+00 0.  1.
         21   -1    0    0  502  503 -0.00000000000E+00 -0.00000000000E+00 -0.19705035660E+04  0.19705035660E+04  0.00000000000E+00 0.  1.
         -6    2    1    2    0  503  0.42263481847E+02 -0.12723026349E+02 -0.18372796360E+04  0.18457609068E+04  0.17113967066E+03 0.  0.
        -24    2    3    3    0    0  0.12159235266E+02  0.45942440530E+02 -0.60662201766E+03  0.61332909681E+03  0.76965926499E+02 0.  0.
          6    2    1    2  501    0 -0.42263481847E+02  0.12723026349E+02 -0.68863365130E+02  0.18910322409E+03  0.17049864811E+03 0.  0.
         24    2    5    5    0    0 -0.25929366669E+00 -0.49155490997E+02 -0.11798908324E+02  0.94913283202E+02  0.80330489618E+02 0.  0.
          5    1    5    5  501    0 -0.42004188180E+02  0.61878517347E+02 -0.57064456806E+02  0.94189940887E+02  0.47000000000E+01 0. -1.
        -11    1    6    6    0    0  0.24348526936E+02  0.10948936949E+02  0.64227675587E+01  0.27458731350E+02  0.00000000000E+00 0.  1.
         12    1    6    6    0    0 -0.24607820603E+02 -0.60104427946E+02 -0.18221675882E+02  0.67454551852E+02  0.00000000000E+00 0. -1.
         -5    1    3    3    0  503  0.30104246580E+02 -0.58665466879E+02 -0.12306576183E+04  0.12324318100E+04  0.47000000000E+01 0.  1.
         11    1    4    4    0    0  0.44549206165E+02  0.28153460732E+02 -0.31549151052E+03  0.31986269294E+03  0.00000000000E+00 0. -1.
        -12    1    4    4    0    0 -0.32389970899E+02  0.17788979799E+02 -0.29113050714E+03  0.29346640387E+03  0.00000000000E+00 0.  1.
</event>
<event>
12    1  0.8417180E-002  0.1785139E+03  0.7818608E-02  0.1169448E+00
         21   -1    0    0  501  502  0.00000000000E+00  0.00000000000E+00  0.10842562020E+04  0.10842562020E+04  0.00000000000E+00 0. -1.
         21   -1    0    0  502  503 -0.00000000000E+00 -0.00000000000E+00 -0.85944103732E+02  0.85944103732E+02  0.00000000000E+00 0. -1.
         -6    2    1    2    0  503 -0.46919771488E+02  0.27622536305E+01  0.23586051065E+02  0.17926231945E+03  0.17137555943E+03 0.  0.
        -24    2    3    3    0    0 -0.24089343317E+02  0.29742014362E+02 -0.47542834579E+02  0.99697601690E+02  0.78831508822E+02 0.  0.
          6    2    1    2  501    0  0.46919771488E+02 -0.27622536305E+01  0.97472604715E+03  0.99093798623E+03  0.17221536097E+03 0.  0.
         24    2    5    5    0    0  0.65893431970E+02 -0.50859729725E+02  0.80980935940E+03  0.81804214794E+03  0.80455582457E+02 0.  0.
          5    1    5    5  501    0 -0.18973660482E+02  0.48097476095E+02  0.16491668775E+03  0.17289583829E+03  0.47000000000E+01 0. -1.
        -11    1    6    6    0    0  0.32723004973E+02 -0.19503435682E+02  0.10398185450E+03  0.11074025972E+03  0.00000000000E+00 0.  1.
         12    1    6    6    0    0  0.33170426998E+02 -0.31356294043E+02  0.70582750490E+03  0.70730188822E+03  0.00000000000E+00 0. -1.
         -5    1    3    3    0  503 -0.22830428172E+02 -0.26979760731E+02  0.71128885643E+02  0.79564717762E+02  0.47000000000E+01 0.  1.
         13    1    4    4    0    0 -0.52823951977E+02  0.25239644343E+02 -0.32100770367E+02  0.66767274972E+02  0.00000000000E+00 0. -1.
        -14    1    4    4    0    0  0.28734608660E+02  0.45023700186E+01 -0.15442064212E+02  0.32930326718E+02  0.00000000000E+00 0.  1.
</event>
<event>
12    1  0.8417180E-002  0.2319138E+03  0.7818608E-02  0.1126024E+00
         21   -1    0    0  503  502  0.00000000000E+00  0.00000000000E+00  0.31740131415E+03  0.31740131415E+03  0.00000000000E+00 0. -1.
         21   -1    0    0  501  503 -0.00000000000E+00 -0.00000000000E+00 -0.16647628130E+03  0.16647628130E+03  0.00000000000E+00 0.  1.
          6    2    1    2  501    0  0.52634326262E+02  0.13966574683E+03  0.77495968793E+02  0.24061678686E+03  0.17208695419E+03 0.  0.
         24    2    3    3    0    0  0.21658875027E+02  0.84560269809E+01  0.64103818903E+02  0.10505532906E+03  0.79916902510E+02 0.  0.
         -6    2    1    2    0  502 -0.52634326262E+02 -0.13966574683E+03  0.73429064060E+02  0.24326080859E+03  0.17750239551E+03 0.  0.
        -24    2    5    5    0    0 -0.84723589423E+02 -0.78586167479E+02  0.94484267518E+02  0.17097078566E+03  0.83365822826E+02 0.  0.
          5    1    3    3  501    0  0.30975451236E+02  0.13120971985E+03  0.13392149890E+02  0.13556145780E+03  0.47000000000E+01 0. -1.
        -11    1    4    4    0    0 -0.19297752899E+01  0.24881012460E+02 -0.89799845653E+01  0.26522234757E+02  0.00000000000E+00 0.  1.
         12    1    4    4    0    0  0.23588650317E+02 -0.16424985480E+02  0.73083803469E+02  0.78533094306E+02  0.00000000000E+00 0. -1.
         -5    1    5    5    0  502  0.32089263161E+02 -0.61079579349E+02 -0.21055203458E+02  0.72290022937E+02  0.47000000000E+01 0.  1.
         11    1    6    6    0    0 -0.41228662886E+02 -0.84540748861E+02  0.83362844998E+02  0.12568335127E+03  0.00000000000E+00 0. -1.
        -12    1    6    6    0    0 -0.43494926537E+02  0.59545813822E+01  0.11121422519E+02  0.45287434381E+02  0.00000000000E+00 0.  1.
</event>
<event>
12    1  0.8417180E-002  0.2024137E+03  0.7818608E-02  0.1150501E+00
         21   -1    0    0  501  502  0.00000000000E+00  0.00000000000E+00  0.38266480980E+03  0.38266480980E+03  0.00000000000E+00 0. -1.
         21   -1    0    0  502  503 -0.00000000000E+00 -0.00000000000E+00 -0.12259524816E+03  0.12259524816E+03  0.00000000000E+00 0. -1.
         -6    2    1    2    0  503  0.69826185074E+01 -0.81458819163E+02  0.25947478446E+02  0.20407007026E+03  0.18516756130E+03 0.  0.
        -24    2    3    3    0    0  0.13374853702E+02 -0.11739325612E+03 -0.19721565878E+02  0.14541944333E+03  0.82448838942E+02 0.  0.
          6    2    1    2  501    0 -0.69826185074E+01  0.81458819163E+02  0.23412208319E+03  0.30118998770E+03  0.17093262613E+03 0.  0.
         24    2    5    5    0    0 -0.14345654875E+02  0.97882517225E+02  0.89961682783E+02  0.15583434382E+03  0.80027828619E+02 0.  0.
          5    1    5    5  501    0  0.73630363681E+01 -0.16423698062E+02  0.14416040041E+03  0.14535564388E+03  0.47000000000E+01 0. -1.
        -11    1    6    6    0    0  0.23169225749E+01 -0.45841179899E+01 -0.10300341240E+02  0.11509965145E+02  0.00000000000E+00 0.  1.
         12    1    6    6    0    0 -0.16662577450E+02  0.10246663522E+03  0.10026202402E+03  0.14432437868E+03  0.00000000000E+00 0. -1.
         -5    1    3    3    0  503 -0.63922351946E+01  0.35934436955E+02  0.45669044324E+02  0.58650626932E+02  0.47000000000E+01 0.  1.
         11    1    4    4    0    0 -0.22936967770E+02 -0.20949505428E+01 -0.57043764093E+01  0.23728321021E+02  0.00000000000E+00 0. -1.
        -12    1    4    4    0    0  0.36311821472E+02 -0.11529830558E+03 -0.14017189469E+02  0.12169112230E+03  0.00000000000E+00 0.  1.
</event>
<event>
12    1  0.8417180E-002  0.3360975E+03  0.7818608E-02  0.1068886E+00
         21   -1    0    0  503  502  0.00000000000E+00  0.00000000000E+00  0.12409906737E+04  0.12409906737E+04  0.00000000000E+00 0.  1.
         21   -1    0    0  501  503 -0.00000000000E+00 -0.00000000000E+00 -0.94395574082E+02  0.94395574082E+02  0.00000000000E+00 0.  1.
          6    2    1    2  501    0 -0.10225221926E+03 -0.26952962293E+03  0.43221223105E+03  0.54751161295E+03  0.17279994114E+03 0.  0.
         24    2    3    3    0    0 -0.11394933340E+03 -0.27430386662E+03  0.43650959651E+03  0.53336335398E+03  0.75556453720E+02 0.  0.
         -6    2    1    2    0  502  0.10225221926E+03  0.26952962293E+03  0.71438286852E+03  0.78787463480E+03  0.16523263399E+03 0.  0.
        -24    2    5    5    0    0  0.15143710279E+02  0.21242004208E+03  0.51294368701E+03  0.56105040679E+03  0.79465254521E+02 0.  0.
          5    1    3    3  501    0  0.11697114134E+02  0.47742436943E+01 -0.42973654565E+01  0.14148258966E+02  0.47000000000E+01 0. -1.
        -11    1    4    4    0    0 -0.51433251343E+02 -0.10708102799E+03  0.24049527485E+03  0.26823441823E+03  0.00000000000E+00 0.  1.
         12    1    4    4    0    0 -0.62516082052E+02 -0.16722283863E+03  0.19601432166E+03  0.26512893575E+03  0.00000000000E+00 0. -1.
         -5    1    5    5    0  502  0.87108508983E+02  0.57109580845E+02  0.20143918151E+03  0.22682422800E+03  0.47000000000E+01 0.  1.
         13    1    6    6    0    0 -0.21029234193E+02  0.96404652266E+02  0.16224710853E+03  0.18989526033E+03  0.00000000000E+00 0. -1.
        -14    1    6    6    0    0  0.36172944472E+02  0.11601538982E+03  0.35069657849E+03  0.37115514647E+03  0.00000000000E+00 0.  1.
</event>
<event>
12    1  0.8417180E-002  0.1880112E+03  0.7818608E-02  0.1160487E+00
         21   -1    0    0  501  502  0.00000000000E+00  0.00000000000E+00  0.14519368290E+03  0.14519368290E+03  0.00000000000E+00 0.  1.
         21   -1    0    0  502  503 -0.00000000000E+00 -0.00000000000E+00 -0.24774028558E+03  0.24774028558E+03  0.00000000000E+00 0.  1.
         -6    2    1    2    0  503  0.72698899938E+02 -0.60757306338E+01 -0.80744140807E+02  0.20461627712E+03  0.17328058181E+03 0.  0.
        -24    2    3    3    0    0  0.54260679880E+02  0.17218124093E+02 -0.11914169112E+03  0.15584094015E+03  0.82770591914E+02 0.  0.
          6    2    1    2  501    0 -0.72698899938E+02  0.60757306338E+01 -0.21802461875E+02  0.18831769136E+03  0.17223867446E+03 0.  0.
         24    2    5    5    0    0 -0.83329595655E+02  0.47912925893E+02 -0.52330631827E+02  0.13523830026E+03  0.79444526873E+02 0.  0.
          5    1    5    5  501    0  0.10630695716E+02 -0.41837195259E+02  0.30528169952E+02  0.53079391097E+02  0.47000000000E+01 0. -1.
        -11    1    6    6    0    0 -0.42296071924E+02 -0.15876782334E+02 -0.41196710712E+01  0.45365202603E+02  0.00000000000E+00 0.  1.
         12    1    6    6    0    0 -0.41033523730E+02  0.63789708227E+02 -0.48210960756E+02  0.89873097657E+02  0.00000000000E+00 0. -1.
         -5    1    3    3    0  503  0.18438220058E+02 -0.23293854727E+02  0.38397550309E+02  0.48775336972E+02  0.47000000000E+01 0.  1.
         11    1    4    4    0    0  0.23057755364E+02  0.16998210565E+02  0.38944420823E+01  0.28909616461E+02  0.00000000000E+00 0. -1.
        -12    1    4    4    0    0  0.31202924516E+02  0.21991352879E+00 -0.12303613320E+03  0.12693132369E+03  0.00000000000E+00 0.  1.
</event>
<event>
12    1  0.8417180E-002  0.1879394E+03  0.7818608E-02  0.1160409E+00
         21   -1    0    0  501  502  0.00000000000E+00  0.00000000000E+00  0.19394099165E+03  0.19394099165E+03  0.00000000000E+00 0. -1.
         21   -1    0    0  502  503 -0.00000000000E+00 -0.00000000000E+00 -0.18293780216E+03  0.18293780216E+03  0.00000000000E+00 0. -1.
         -6    2    1    2    0  503  0.67615222273E+01  0.74846733278E+02  0.20345356901E+02  0.18903743863E+03  0.17225988503E+03 0.  0.
        -24    2    3    3    0    0 -0.21089979977E+02  0.56467147989E+02  0.74508748030E+02  0.12524654375E+03  0.80633846070E+02 0.  0.
          6    2    1    2  501    0 -0.67615222273E+01 -0.74846733278E+02 -0.93421674051E+01  0.18784135518E+03  0.17189923490E+03 0.  0.
         24    2    5    5    0    0  0.25667973982E+02 -0.56468822342E+02  0.54471102931E+02  0.11378972923E+03  0.78316209295E+02 0.  0.
          5    1    5    5  501    0 -0.32429496209E+02 -0.18377910936E+02 -0.63813270336E+02  0.74051625949E+02  0.47000000000E+01 0. -1.
        -13    1    6    6    0    0  0.20328262954E+01  0.19619286069E+02  0.63993889648E+01  0.20736464205E+02  0.00000000000E+00 0.  1.
         14    1    6    6    0    0  0.23635147687E+02 -0.76088108411E+02  0.48071713966E+02  0.93053265023E+02  0.00000000000E+00 0. -1.
         -5    1    3    3    0  503  0.27851502204E+02  0.18379585289E+02 -0.54163391129E+02  0.63790894875E+02  0.47000000000E+01 0.  1.
         13    1    4    4    0    0  0.24892987859E+02  0.35279617181E+02  0.57353603833E+02  0.71789610012E+02  0.00000000000E+00 0. -1.
        -14    1    4    4    0    0 -0.45982967836E+02  0.21187530808E+02  0.17155144196E+02  0.53456933742E+02  0.00000000000E+00 0.  1.
</event>
<event>
12    1  0.8417180E-002  0.1797405E+03  0.7818608E-02  0.1169018E+00
         21   -1    0    0  503  502  0.00000000000E+00  0.00000000000E+00  0.15093843732E+04  0.15093843732E+04  0.00000000000E+00 0.  1.
         21   -1    0    0  501  503 -0.00000000000E+00 -0.00000000000E+00 -0.21296035386E+02  0.21296035386E+02  0.00000000000E+00 0.  1.
          6    2    1    2  501    0 -0.25658016776E+02  0.27996382452E+02  0.65296660899E+03  0.67725329273E+03  0.17568294966E+03 0.  0.
         24    2    3    3    0    0 -0.24030125308E+02  0.86170859246E+02  0.48154446952E+03  0.49616061016E+03  0.79293196688E+02 0.  0.
         -6    2    1    2    0  502  0.25658016776E+02 -0.27996382452E+02  0.83512172881E+03  0.85342711584E+03  0.17166073770E+03 0.  0.
        -24    2    5    5    0    0  0.34271515796E+02  0.12686605890E+02  0.21827822605E+03  0.23516560580E+03  0.79510951564E+02 0.  0.
          5    1    3    3  501    0 -0.16278914675E+01 -0.58174476794E+02  0.17142213947E+03  0.18109268257E+03  0.47000000000E+01 0. -1.
        -13    1    4    4    0    0  0.19889214585E+02  0.30383331145E+02  0.28264700290E+03  0.28497027199E+03  0.00000000000E+00 0.  1.
         14    1    4    4    0    0 -0.43919339894E+02  0.55787528102E+02  0.19889746661E+03  0.21119033816E+03  0.00000000000E+00 0. -1.
         -5    1    5    5    0  502 -0.86134990205E+01 -0.40682988342E+02  0.61684350275E+03  0.61826151004E+03  0.47000000000E+01 0.  1.
         13    1    6    6    0    0  0.76003859441E+01  0.42875343086E+02  0.14675345622E+03  0.15307722830E+03  0.00000000000E+00 0. -1.
        -14    1    6    6    0    0  0.26671129852E+02 -0.30188737196E+02  0.71524769833E+02  0.82088377501E+02  0.00000000000E+00 0.  1.
</event>
<event>
12    1  0.8417180E-002  0.2748801E+03  0.7818608E-02  0.1098711E+00
         21   -1    0    0  501  502  0.00000000000E+00  0.00000000000E+00  0.76726051681E+03  0.76726051681E+03  0.00000000000E+00 0.  1.
         21   -1    0    0  502  503 -0.00000000000E+00 -0.00000000000E+00 -0.17969275533E+03  0.17969275533E+03  0.00000000000E+00 0. -1.
         -6    2    1    2    0  503  0.21440390093E+03 -0.33098801119E+01 -0.25886904605E+02  0.27472882996E+03  0.16978165431E+03 0.  0.
        -24    2    3    3    0    0  0.25149772560E+02 -0.44150933569E+01 -0.62085714799E+00  0.83734563668E+02  0.79743887415E+02 0.  0.
          6    2    1    2  501    0 -0.21440390093E+03  0.33098801119E+01  0.61345466609E+03  0.67222444217E+03  0.17198571239E+03 0.  0.
         24    2    5    5    0    0 -0.32843211575E+02  0.18564085009E+02  0.24974928301E+03  0.26540670612E+03  0.81502843449E+02 0.  0.
          5    1    5    5  501    0 -0.18156068936E+03 -0.15254204897E+02  0.36370538308E+03  0.40681773605E+03  0.47000000000E+01 0. -1.
        -11    1    6    6    0    0 -0.53242843474E+02  0.30922219215E+02  0.21194634653E+03  0.22070849062E+03  0.00000000000E+00 0.  1.
         12    1    6    6    0    0  0.20399631899E+02 -0.12358134206E+02  0.37802936477E+02  0.44698215501E+02  0.00000000000E+00 0. -1.
         -5    1    3    3    0  503  0.18925412837E+03  0.11052132450E+01 -0.25266047457E+02  0.19099426629E+03  0.47000000000E+01 0.  1.
         13    1    4    4    0    0  0.47849708685E+02 -0.23642465300E+02 -0.52438554896E+01  0.53628898992E+02  0.00000000000E+00 0. -1.
        -14    1    4    4    0    0 -0.22699936125E+02  0.19227371944E+02  0.46229983416E+01  0.30105664676E+02  0.00000000000E+00 0.  1.
</event>
<event>
12    1  0.8417180E-002  0.1990975E+03  0.7818608E-02  0.1152298E+00
         21   -1    0    0  503  502  0.00000000000E+00  0.00000000000E+00  0.26784044912E+03  0.26784044912E+03  0.00000000000E+00 0. -1.
         21   -1    0    0  501  503 -0.00000000000E+00 -0.00000000000E+00 -0.16151416942E+03  0.16151416942E+03  0.00000000000E+00 0. -1.
          6    2    1    2  501    0  0.69808931079E+02  0.72948956953E+02 -0.20615872587E+02  0.20016197759E+03  0.17159535510E+03 0.  0.
         24    2    3    3    0    0  0.76154328763E+02 -0.93740499985E+01  0.10654732511E+02  0.11174658137E+03  0.80538317100E+02 0.  0.
         -6    2    1    2    0  502 -0.69808931079E+02 -0.72948956953E+02  0.12694215228E+03  0.22919264095E+03  0.16192627786E+03 0.  0.
        -24    2    5    5    0    0 -0.17722350099E+02 -0.84491972545E+02  0.13045958705E+03  0.17552034387E+03  0.79590904874E+02 0.  0.
          5    1    3    3  501    0 -0.63453976834E+01  0.82323006952E+02 -0.31270605098E+02  0.88415396219E+02  0.47000000000E+01 0. -1.
        -11    1    4    4    0    0  0.17854119641E+00  0.16078206098E+02  0.25607893631E+02  0.30237473514E+02  0.00000000000E+00 0.  1.
         12    1    4    4    0    0  0.75975787566E+02 -0.25452256097E+02 -0.14953161120E+02  0.81509107861E+02  0.00000000000E+00 0. -1.
         -5    1    5    5    0  502 -0.52086580981E+02  0.11543015592E+02 -0.35174347706E+01  0.53672297087E+02  0.47000000000E+01 0.  1.
         13    1    6    6    0    0 -0.38210073899E+02 -0.85151411067E+02  0.87558498688E+02  0.12797368185E+03  0.00000000000E+00 0. -1.
        -14    1    6    6    0    0  0.20487723800E+02  0.65943852174E+00  0.42901088366E+02  0.47546662014E+02  0.00000000000E+00 0.  1.
</event>
<event>
12    1  0.8417180E-002  0.1818768E+03  0.7818608E-02  0.1166068E+00
         21   -1    0    0  501  502  0.00000000000E+00  0.00000000000E+00  0.10379199770E+03  0.10379199770E+03  0.00000000000E+00 0.  1.
         21   -1    0    0  502  503 -0.00000000000E+00 -0.00000000000E+00 -0.35006211676E+03  0.35006211676E+03  0.00000000000E+00 0. -1.
         -6    2    1    2    0  503 -0.68632259368E+01  0.59862920493E+02 -0.54581410122E+02  0.18961233432E+03  0.17129808485E+03 0.  0.
        -24    2    3    3    0    0  0.17488896637E+02  0.64879809769E+02 -0.95262193819E+02  0.14170397165E+03  0.80559783934E+02 0.  0.
          6    2    1    2  501    0  0.68632259368E+01 -0.59862920493E+02 -0.19168870894E+03  0.26424178013E+03  0.17160560630E+03 0.  0.
         24    2    5    5    0    0  0.31111538894E+02 -0.20179757526E+01 -0.17930092647E+03  0.20013588752E+03  0.83267947987E+02 0.  0.
          5    1    5    5  501    0 -0.24248312957E+02 -0.57844944741E+02 -0.12387782470E+02  0.64105892614E+02  0.47000000000E+01 0. -1.
        -11    1    6    6    0    0 -0.22230957448E+02  0.20391750391E+02 -0.75411430546E+02  0.81221443043E+02  0.00000000000E+00 0.  1.
         12    1    6    6    0    0  0.53342496342E+02 -0.22409726144E+02 -0.10388949592E+03  0.11891444447E+03  0.00000000000E+00 0. -1.
         -5    1    3    3    0  503 -0.24352122574E+02 -0.50168892757E+01  0.40680783697E+02  0.47908362674E+02  0.47000000000E+01 0.  1.
         11    1    4    4    0    0 -0.16590911140E+02  0.45040487017E+02 -0.11850076233E+02  0.49440146743E+02  0.00000000000E+00 0. -1.
        -12    1    4    4    0    0  0.34079807777E+02  0.19839322751E+02 -0.83412117586E+02  0.92263824902E+02  0.00000000000E+00 0.  1.
</event>
<event>
12    1  0.8417180E-002  0.2043549E+03  0.7818608E-02  0.1146581E+00
         21   -1    0    0  503  502  0.00000000000E+00  0.00000000000E+00  0.55213710695E+03  0.55213710695E+03  0.00000000000E+00 0.  1.
         21   -1    0    0  501  503 -0.00000000000E+00 -0.00000000000E+00 -0.98755446243E+02  0.98755446243E+02  0.00000000000E+00 0.  1.
          6    2    1    2  501    0  0.34773520271E+02  0.99969571838E+02  0.65461898513E+02  0.21243767848E+03  0.17216676240E+03 0.  0.
         24    2    3    3    0    0 -0.11006721378E+01  0.10287988566E+03 -0.82653040733E+01  0.13025971301E+03  0.79459393591E+02 0.  0.
         -6    2    1    2    0  502 -0.34773520271E+02 -0.99969571838E+02  0.38791976220E+03  0.43845487471E+03  0.17480795820E+03 0.  0.
        -24    2    5    5    0    0 -0.25863400874E+02 -0.41763845992E+02  0.36172218019E+03  0.37383521786E+03  0.80602109984E+02 0.  0.
          5    1    3    3  501    0  0.35874192409E+02 -0.29103138233E+01  0.73727202587E+02  0.82177965470E+02  0.47000000000E+01 0. -1.
        -11    1    4    4    0    0  0.37893749804E+02  0.35157174713E+02 -0.64488328710E+01  0.52091752259E+02  0.00000000000E+00 0.  1.
         12    1    4    4    0    0 -0.38994421942E+02  0.67722710948E+02 -0.18164712023E+01  0.78167960754E+02  0.00000000000E+00 0. -1.
         -5    1    5    5    0  502 -0.89101193971E+01 -0.58205725846E+02  0.26197582008E+02  0.64619656854E+02  0.47000000000E+01 0.  1.
         13    1    6    6    0    0 -0.19086540920E+02 -0.40365306684E+02  0.76854092027E+02  0.88883100133E+02  0.00000000000E+00 0. -1.
        -14    1    6    6    0    0 -0.67768599537E+01 -0.13985393083E+01  0.28486808816E+03  0.28495211773E+03  0.00000000000E+00 0.  1.
</event>
<event>
12    1  0.8417180E-002  0.2289961E+03  0.7818608E-02  0.1127485E+00
         21   -1    0    0  501  502  0.00000000000E+00  0.00000000000E+00  0.18125046009E+03  0.18125046009E+03  0.00000000000E+00 0.  1.
         21   -1    0    0  502  503 -0.00000000000E+00 -0.00000000000E+00 -0.32026189961E+03  0.32026189961E+03  0.00000000000E+00 0. -1.
         -6    2    1    2    0  503 -0.13554028214E+03 -0.72073921262E+02 -0.14855773108E+03  0.27231732410E+03  0.16888311738E+03 0.  0.
        -24    2    3    3    0    0 -0.57474732844E+02  0.25884112740E+02 -0.80560893789E+02  0.12971414639E+03  0.79764465508E+02 0.  0.
          6    2    1    2  501    0  0.13554028214E+03  0.72073921262E+02  0.95462915574E+01  0.22919503560E+03  0.16992178923E+03 0.  0.
         24    2    5    5    0    0  0.29744849142E+02 -0.16295291238E+02  0.35227138862E+02  0.88897539975E+02  0.74239670892E+02 0.  0.
          5    1    5    5  501    0  0.10579543300E+03  0.88369212500E+02 -0.25680847304E+02  0.14029749563E+03  0.47000000000E+01 0. -1.
        -11    1    6    6    0    0  0.37110608787E+02  0.19867007747E+02  0.75457964058E+01  0.42764872556E+02  0.00000000000E+00 0.  1.
         12    1    6    6    0    0 -0.73657596451E+01 -0.36162298985E+02  0.27681342456E+02  0.46132667419E+02  0.00000000000E+00 0. -1.
         -5    1    3    3    0  503 -0.78065549294E+02 -0.97958034002E+02 -0.67996837287E+02  0.14260317771E+03  0.47000000000E+01 0.  1.
         13    1    4    4    0    0  0.40764499467E+01  0.38329346330E+02 -0.35714412983E+02  0.52547840383E+02  0.00000000000E+00 0. -1.
        -14    1    4    4    0    0 -0.61551182791E+02 -0.12445233590E+02 -0.44846480806E+02  0.77166306007E+02  0.00000000000E+00 0.  1.
</event>
<event>
12    1  0.8417180E-002  0.1897470E+03  0.7818608E-02  0.1159050E+00
         21   -1    0    0  501  502  0.00000000000E+00  0.00000000000E+00  0.11038750147E+03  0.11038750147E+03  0.00000000000E+00 0. -1.
         21   -1    0    0  502  503 -0.00000000000E+00 -0.00000000000E+00 -0.32364593970E+03  0.32364593970E+03  0.00000000000E+00 0.  1.
         -6    2    1    2    0  503  0.30413466729E+02  0.79408366761E+02 -0.11260606167E+03  0.22064459674E+03  0.16962678231E+03 0.  0.
        -24    2    3    3    0    0 -0.19331739414E+02  0.85278430036E+02 -0.26668322696E+02  0.12106333266E+03  0.79366266764E+02 0.  0.
          6    2    1    2  501    0 -0.30413466729E+02 -0.79408366761E+02 -0.10065237656E+03  0.21338884443E+03  0.16784883184E+03 0.  0.
         24    2    5    5    0    0  0.10806618784E+02 -0.18797200980E+02  0.81821403825E+01  0.82088231541E+02  0.78749048007E+02 0.  0.
          5    1    5    5  501    0 -0.41220085513E+02 -0.60611165781E+02 -0.10883451694E+03  0.13130061289E+03  0.47000000000E+01 0. -1.
        -11    1    6    6    0    0  0.22307320455E+02  0.21912125560E+02  0.21257908217E+02  0.37810798116E+02  0.00000000000E+00 0.  1.
         12    1    6    6    0    0 -0.11500701671E+02 -0.40709326540E+02 -0.13075767834E+02  0.44277433425E+02  0.00000000000E+00 0. -1.
         -5    1    3    3    0  503  0.49745206143E+02 -0.58700632752E+01 -0.85937738971E+02  0.99581264083E+02  0.47000000000E+01 0.  1.
         13    1    4    4    0    0 -0.88054173563E+01  0.29123064643E+02  0.28466080118E+02  0.41665405150E+02  0.00000000000E+00 0. -1.
        -14    1    4    4    0    0 -0.10526322057E+02  0.56155365393E+02 -0.55134402814E+02  0.79397927505E+02  0.00000000000E+00 0.  1.
</event>
<event>
12    1  0.8417180E-002  0.1906437E+03  0.7818608E-02  0.1158112E+00
         21   -1    0    0  503  502  0.00000000000E+00  0.00000000000E+00  0.12374526206E+04  0.12374526206E+04  0.00000000000E+00 0. -1.
         21   -1    0    0  501  503 -0.00000000000E+00 -0.00000000000E+00 -0.19324551845E+03  0.19324551845E+03  0.00000000000E+00 0. -1.
          6    2    1    2  501    0 -0.62950206282E+02 -0.53853785182E+02 -0.13717084719E+03  0.23403658676E+03  0.17057058356E+03 0.  0.
         24    2    3    3    0    0 -0.23799973370E+02 -0.20719653518E+02  0.38547770196E+01  0.83900221742E+02  0.77644350266E+02 0.  0.
         -6    2    1    2    0  502  0.62950206282E+02  0.53853785182E+02  0.11813779493E+04  0.11966615523E+04  0.17170338641E+03 0.  0.
        -24    2    5    5    0    0 -0.24409005238E+02  0.50886041805E+02  0.76080949241E+03  0.76707994619E+03  0.79971065518E+02 0.  0.
          5    1    3    3  501    0 -0.39150232912E+02 -0.33134131664E+02 -0.14102562421E+03  0.15013636502E+03  0.47000000000E+01 0. -1.
        -13    1    4    4    0    0 -0.26341110595E+01  0.29300781138E+02 -0.37708015133E+00  0.29421361386E+02  0.00000000000E+00 0.  1.
         14    1    4    4    0    0 -0.21165862311E+02 -0.50020434656E+02  0.42318571709E+01  0.54478860356E+02  0.00000000000E+00 0. -1.
         -5    1    5    5    0  502  0.87359211520E+02  0.29677433766E+01  0.42056845690E+03  0.42958160608E+03  0.47000000000E+01 0.  1.
         13    1    6    6    0    0 -0.21706183792E+02 -0.15692234886E+02  0.33717094604E+03  0.33823313189E+03  0.00000000000E+00 0. -1.
        -14    1    6    6    0    0 -0.27028214457E+01  0.66578276691E+02  0.42363854637E+03  0.42884681431E+03  0.00000000000E+00 0.  1.
</event>
<event>
12    1  0.8417180E-002  0.2635181E+03  0.7818608E-02  0.1105137E+00
         21   -1    0    0  503  502  0.00000000000E+00  0.00000000000E+00  0.33783841458E+03  0.33783841458E+03  0.00000000000E+00 0.  1.
         21   -1    0    0  501  503 -0.00000000000E+00 -0.00000000000E+00 -0.23731088601E+03  0.23731088601E+03  0.00000000000E+00 0. -1.
          6    2    1    2  501    0 -0.82489613448E+02  0.18013688449E+03 -0.55673419349E+02  0.26933496207E+03  0.17374682355E+03 0.  0.
         24    2    3    3    0    0 -0.13346915723E+00  0.95596564197E+02  0.22387066127E+02  0.12775413834E+03  0.81738719297E+02 0.  0.
         -6    2    1    2    0  502  0.82489613448E+02 -0.18013688449E+03  0.15620094792E+03  0.30581433852E+03  0.17282893287E+03 0.  0.
        -24    2    5    5    0    0  0.89563638013E+02 -0.14994271398E+03  0.54719922258E+02  0.19959655129E+03  0.79624435095E+02 0.  0.
          5    1    3    3  501    0 -0.82356144291E+02  0.84540320292E+02 -0.78060485476E+02  0.14158082374E+03  0.47000000000E+01 0. -1.
        -13    1    4    4    0    0  0.64652837504E+01  0.10485748301E+03  0.35036376216E+02  0.11074492898E+03  0.00000000000E+00 0.  1.
         14    1    4    4    0    0 -0.65987529076E+01 -0.92609188113E+01 -0.12649310089E+02  0.17009209356E+02  0.00000000000E+00 0. -1.
         -5    1    5    5    0  502 -0.70740245644E+01 -0.30194170511E+02  0.10148102566E+03  0.10621778724E+03  0.47000000000E+01 0.  1.
         13    1    6    6    0    0  0.27812069618E+02 -0.17127123572E+02 -0.16653092056E+02  0.36662992967E+02  0.00000000000E+00 0. -1.
        -14    1    6    6    0    0  0.61751568395E+02 -0.13281559041E+03  0.71373014314E+02  0.16293355832E+03  0.00000000000E+00 0.  1.
</event>
<event>
12    1  0.8417180E-002  0.2197927E+03  0.7818608E-02  0.1134140E+00
         21   -1    0    0  503  502  0.00000000000E+00  0.00000000000E+00  0.50822364979E+02  0.50822364979E+02  0.00000000000E+00 0.  1.
         21   -1    0    0  501  503 -0.00000000000E+00 -0.00000000000E+00 -0.96043566578E+03  0.96043566578E+03  0.00000000000E+00 0.  1.
          6    2    1    2  501    0  0.13252153828E+03  0.30006862167E+02 -0.51138293470E+03  0.55639952525E+03  0.17206265114E+03 0.  0.
         24    2    3    3    0    0  0.13412762158E+03  0.60197237394E+02 -0.30791576895E+03  0.35064477854E+03  0.80781889597E+02 0.  0.
         -6    2    1    2    0  502 -0.13252153828E+03 -0.30006862167E+02 -0.39823036611E+03  0.45485850551E+03  0.17276129677E+03 0.  0.
        -24    2    5    5    0    0 -0.42478993672E+02  0.33686488206E+02 -0.10936091103E+03  0.14561401519E+03  0.79400177366E+02 0.  0.
          5    1    3    3  501    0 -0.16060833001E+01 -0.30190375227E+02 -0.20346716574E+03  0.20575474671E+03  0.47000000000E+01 0. -1.
        -13    1    4    4    0    0  0.13598736599E+03  0.36786095572E+02 -0.28456719967E+03  0.31752837930E+03  0.00000000000E+00 0.  1.
         14    1    4    4    0    0 -0.18597444128E+01  0.23411141822E+02 -0.23348569287E+02  0.33116399237E+02  0.00000000000E+00 0. -1.
         -5    1    5    5    0  502 -0.90042544603E+02 -0.63693350373E+02 -0.28886945508E+03  0.30924449032E+03  0.47000000000E+01 0.  1.
         11    1    6    6    0    0 -0.49845672384E+02  0.34885607165E+02 -0.11886424993E+03  0.13353017095E+03  0.00000000000E+00 0. -1.
        -12    1    6    6    0    0  0.73666787121E+01 -0.11991189593E+01  0.95033388921E+01  0.12083844240E+02  0.00000000000E+00 0.  1.
</event>
<event>
12    1  0.8417180E-002  0.2476637E+03  0.7818608E-02  0.1114796E+00
         21   -1    0    0  501  502  0.00000000000E+00  0.00000000000E+00  0.10911684515E+04  0.10911684515E+04  0.00000000000E+00 0.  1.
         21   -1    0    0  502  503 -0.00000000000E+00 -0.00000000000E+00 -0.57860129061E+02  0.57860129061E+02  0.00000000000E+00 0.  1.
         -6    2    1    2    0  503 -0.17337910561E+03  0.25954324098E+02  0.61386023021E+03  0.66193784117E+03  0.17493822380E+03 0.  0.
        -24    2    3    3    0    0 -0.12766119003E+03  0.77833924434E+02  0.34904797717E+03  0.38820578223E+03  0.80707742853E+02 0.  0.
          6    2    1    2  501    0  0.17337910561E+03 -0.25954324098E+02  0.41944809222E+03  0.48709073938E+03  0.17489066618E+03 0.  0.
         24    2    5    5    0    0  0.10746071332E+03 -0.66762958206E+02  0.35751221125E+03  0.38774929580E+03  0.80804936139E+02 0.  0.
          5    1    5    5  501    0  0.65918392291E+02  0.40808634108E+02  0.61935880967E+02  0.99341443573E+02  0.47000000000E+01 0. -1.
        -11    1    6    6    0    0  0.87762963968E+02 -0.23367364275E+02  0.29785615489E+03  0.31139470221E+03  0.00000000000E+00 0.  1.
         12    1    6    6    0    0  0.19697749356E+02 -0.43395593931E+02  0.59656056366E+02  0.76354593598E+02  0.00000000000E+00 0. -1.
         -5    1    3    3    0  503 -0.45717915590E+02 -0.51879600336E+02  0.26481225303E+03  0.27373205894E+03  0.47000000000E+01 0.  1.
         11    1    4    4    0    0 -0.65959461786E+02  0.41536148066E+02  0.27237371578E+03  0.28330785948E+03  0.00000000000E+00 0. -1.
        -12    1    4    4    0    0 -0.61701728240E+02  0.36297776369E+02  0.76674261393E+02  0.10489792275E+03  0.00000000000E+00 0.  1.
</event>
<event>
12    1  0.8417180E-002  0.2165127E+03  0.7818608E-02  0.1136746E+00
         21   -1    0    0  503  502  0.00000000000E+00  0.00000000000E+00  0.73996743488E+02  0.73996743488E+02  0.00000000000E+00 0.  1.
         21   -1    0    0  501  503 -0.00000000000E+00 -0.00000000000E+00 -0.63002951325E+03  0.63002951325E+03  0.00000000000E+00 0.  1.
          6    2    1    2  501    0 -0.10403990689E+03  0.80356138400E+02 -0.27378034029E+03  0.34904645472E+03  0.17203587305E+03 0.  0.
         24    2    3    3    0    0 -0.91831159515E+02  0.72560188681E+01 -0.23576442691E+03  0.26561995618E+03  0.80520087288E+02 0.  0.
         -6    2    1    2    0  502  0.10403990689E+03 -0.80356138400E+02 -0.28225242947E+03  0.35497980202E+03  0.17047819419E+03 0.  0.
        -24    2    5    5    0    0  0.62823389094E+01  0.17670869602E+02 -0.10178124952E+03  0.12747645438E+03  0.74425104986E+02 0.  0.
          5    1    3    3  501    0 -0.12208747378E+02  0.73100119532E+02 -0.38015913380E+02  0.83426498538E+02  0.47000000000E+01 0. -1.
        -13    1    4    4    0    0 -0.70122977467E+02  0.16092100165E+01 -0.72701224632E+02  0.10102123336E+03  0.00000000000E+00 0.  1.
         14    1    4    4    0    0 -0.21708182049E+02  0.56468088516E+01 -0.16306320228E+03  0.16459872282E+03  0.00000000000E+00 0. -1.
         -5    1    5    5    0  502  0.97757567984E+02 -0.98027008002E+02 -0.18047117995E+03  0.22750334764E+03  0.47000000000E+01 0.  1.
         11    1    6    6    0    0  0.23602600769E+02  0.19611203937E+02 -0.74895880195E+01  0.31587592685E+02  0.00000000000E+00 0. -1.
        -12    1    6    6    0    0 -0.17320261860E+02 -0.19403343343E+01 -0.94291661503E+02  0.95888861695E+02  0.00000000000E+00 0.  1.
</event>
<event>
12    1  0.8417180E-002  0.2038431E+03  0.7818608E-02  0.1146777E+00
         21   -1    0    0  501  502  0.00000000000E+00  0.00000000000E+00  0.15348801796E+03  0.15348801796E+03  0.00000000000E+00 0.  1.
         21   -1    0    0  502  503 -0.00000000000E+00 -0.00000000000E+00 -0.36528393913E+03  0.36528393913E+03  0.00000000000E+00 0. -1.
         -6    2    1    2    0  503 -0.94508689408E+02  0.54585748037E+02 -0.23872589384E+03  0.31315768607E+03  0.17078111047E+03 0.  0.
        -24    2    3    3    0    0 -0.30255951306E+02  0.86858808730E+02 -0.19174735150E+03  0.22714002370E+03  0.79785138420E+02 0.  0.
          6    2    1    2  501    0  0.94508689408E+02 -0.54585748037E+02  0.26929972673E+02  0.20561427102E+03  0.17216419128E+03 0.  0.
         24    2    5    5    0    0  0.76115172637E+02  0.23709470827E+02  0.52011076198E+02  0.12123646286E+03  0.75083083097E+02 0.  0.
          5    1    5    5  501    0  0.18393516771E+02 -0.78295218864E+02 -0.25081103525E+02  0.84377808162E+02  0.47000000000E+01 0. -1.
        -13    1    6    6    0    0 -0.46587056460E+01  0.19328361730E+02  0.32378596881E+02  0.37995560812E+02  0.00000000000E+00 0.  1.
         14    1    6    6    0    0  0.80773878283E+02  0.43811090978E+01  0.19632479317E+02  0.83240902049E+02  0.00000000000E+00 0. -1.
         -5    1    3    3    0  503 -0.64252738102E+02 -0.32273060693E+02 -0.46978542336E+02  0.86017662373E+02  0.47000000000E+01 0.  1.
         11    1    4    4    0    0  0.18908160672E+02  0.16458042492E+02 -0.92812601456E+02  0.96138258210E+02  0.00000000000E+00 0. -1.
        -12    1    4    4    0    0 -0.49164111978E+02  0.70400766238E+02 -0.98934750049E+02  0.13100176549E+03  0.00000000000E+00 0.  1.
</event>
<event>
12    1  0.8417180E-002  0.2562559E+03  0.7818608E-02  0.1109518E+00
         21   -1    0    0  503  502  0.00000000000E+00  0.00000000000E+00  0.16384290311E+04  0.16384290311E+04  0.00000000000E+00 0.  1.
         21   -1    0    0  501  503 -0.00000000000E+00 -0.00000000000E+00 -0.51661172964E+02  0.51661172964E+02  0.00000000000E+00 0. -1.
          6    2    1    2  501    0  0.16425659943E+03 -0.94539140271E+02  0.39061906190E+03  0.46679996237E+03  0.17146741338E+03 0.  0.
         24    2    3    3    0    0  0.13969935337E+03 -0.14397191344E+02  0.31403942484E+03  0.35316756768E+03  0.79896070342E+02 0.  0.
         -6    2    1    2    0  502 -0.16425659943E+03  0.94539140271E+02  0.11961487962E+04  0.12232902417E+04  0.17247954425E+03 0.  0.
        -24    2    5    5    0    0 -0.10734453091E+03  0.12283820283E+03  0.10170625384E+04  0.10332013198E+04  0.80477871554E+02 0.  0.
          5    1    3    3  501    0  0.24557246061E+02 -0.80141948927E+02  0.76579637062E+02  0.11363239470E+03  0.47000000000E+01 0. -1.
        -11    1    4    4    0    0 -0.38076821522E+01  0.11202536852E+02  0.82935326137E+01  0.14449150788E+02  0.00000000000E+00 0.  1.
         12    1    4    4    0    0  0.14350703552E+03 -0.25599728196E+02  0.30574589223E+03  0.33871841689E+03  0.00000000000E+00 0. -1.
         -5    1    5    5    0  502 -0.56912068513E+02 -0.28299062562E+02  0.17908625786E+03  0.19008892193E+03  0.47000000000E+01 0.  1.
         13    1    6    6    0    0 -0.42280495376E+02 -0.68365580231E+00  0.23261986302E+03  0.23643203748E+03  0.00000000000E+00 0. -1.
        -14    1    6    6    0    0 -0.65064035538E+02  0.12352185864E+03  0.78444267536E+03  0.79676928230E+03  0.00000000000E+00 0.  1.
</event>
<event>
12    1  0.8417180E-002  0.1887148E+03  0.7818608E-02  0.1159816E+00
         21   -1    0    0  501  502  0.00000000000E+00  0.00000000000E+00  0.22922380013E+03  0.22922380013E+03  0.00000000000E+00 0. -1.
         21   -1    0    0  502  503 -0.00000000000E+00 -0.00000000000E+00 -0.15492531320E+03  0.15492531320E+03  0.00000000000E+00 0. -1.
         -6    2    1    2    0  503 -0.76665287759E+02  0.25575667504E+02  0.29571644251E+02  0.19101767117E+03  0.17053324438E+03 0.  0.
        -24    2    3    3    0    0 -0.10840176848E+03  0.47481345775E+02  0.18074673166E+01  0.14326829976E+03  0.80728663891E+02 0.  0.
          6    2    1    2  501    0  0.76665287759E+02 -0.25575667504E+02  0.44726842682E+02  0.19313144216E+03  0.16961008926E+03 0.  0.
         24    2    5    5    0    0 -0.16233333998E+02  0.22872273550E+02  0.22696340760E+02  0.85964329982E+02  0.78026150202E+02 0.  0.
          5    1    5    5  501    0  0.92898621757E+02 -0.48447941054E+02  0.22030501922E+02  0.10716711217E+03  0.47000000000E+01 0. -1.
        -11    1    6    6    0    0 -0.35343428002E+02 -0.15784195045E+02  0.17669848609E+02  0.42550232267E+02  0.00000000000E+00 0.  1.
         12    1    6    6    0    0  0.19110094004E+02  0.38656468595E+02  0.50264921516E+01  0.43414097715E+02  0.00000000000E+00 0. -1.
         -5    1    3    3    0  503  0.31736480717E+02 -0.21905678271E+02  0.27764176934E+02  0.47749371406E+02  0.47000000000E+01 0.  1.
         13    1    4    4    0    0 -0.88835035039E+02  0.10084855388E+02  0.27888130012E+02  0.93654234043E+02  0.00000000000E+00 0. -1.
        -14    1    4    4    0    0 -0.19566733437E+02  0.37396490388E+02 -0.26080662695E+02  0.49614065720E+02  0.00000000000E+00 0.  1.
</event>
<event>
12    1  0.8417180E-002  0.2242430E+03  0.7818608E-02  0.1130886E+00
         21   -1    0    0  503  502  0.00000000000E+00  0.00000000000E+00  0.55454620417E+03  0.55454620417E+03  0.00000000000E+00 0.  1.
         21   -1    0    0  501  503 -0.00000000000E+00 -0.00000000000E+00 -0.13334641498E+03  0.13334641498E+03  0.00000000000E+00 0. -1.
          6    2    1    2  501    0 -0.12015216485E+03 -0.81525881390E+02  0.15618894916E+02  0.22478629219E+03  0.17088567881E+03 0.  0.
         24    2    3    3    0    0 -0.57858000062E+02 -0.84527197574E+02 -0.44922529418E+02  0.13774075855E+03  0.80387111009E+02 0.  0.
         -6    2    1    2    0  502  0.12015216485E+03  0.81525881390E+02  0.40558089427E+03  0.46310632695E+03  0.16996645613E+03 0.  0.
        -24    2    5    5    0    0  0.52336862172E+02  0.64878716314E+01  0.89642907177E+02  0.13134056640E+03  0.80207567935E+02 0.  0.
          5    1    3    3  501    0 -0.62294164792E+02  0.30013161841E+01  0.60541424334E+02  0.87045533638E+02  0.47000000000E+01 0. -1.
        -11    1    4    4    0    0  0.56304384534E+01  0.99658621781E+01 -0.17052760163E+02  0.20538180915E+02  0.00000000000E+00 0.  1.
         12    1    4    4    0    0 -0.63488438515E+02 -0.94493059752E+02 -0.27869769255E+02  0.11720257764E+03  0.00000000000E+00 0. -1.
         -5    1    5    5    0  502  0.67815302682E+02  0.75038009759E+02  0.31593798710E+03  0.33176576056E+03  0.47000000000E+01 0.  1.
         13    1    6    6    0    0  0.12251952856E+02  0.30042302601E+02  0.76391506022E+02  0.82995858251E+02  0.00000000000E+00 0. -1.
        -14    1    6    6    0    0  0.40084909316E+02 -0.23554430970E+02  0.13251401154E+02  0.48344708146E+02  0.00000000000E+00 0.  1.
</event>
<event>
12    1  0.8417180E-002  0.3038757E+03  0.7818608E-02  0.1083462E+00
         21   -1    0    0  501  502  0.00000000000E+00  0.00000000000E+00  0.26984981438E+03  0.26984981438E+03  0.00000000000E+00 0.  1.
         21   -1    0    0  502  503 -0.00000000000E+00 -0.00000000000E+00 -0.64850461813E+03  0.64850461813E+03  0.00000000000E+00 0.  1.
         -6    2    1    2    0  503  0.21439189239E+02  0.24793066188E+03 -0.50538693276E+03  0.58911061998E+03  0.17235463101E+03 0.  0.
        -24    2    3    3    0    0 -0.42854588330E+02  0.16494652342E+03 -0.38489838507E+03  0.42923680351E+03  0.83985685221E+02 0.  0.
          6    2    1    2  501    0 -0.21439189239E+02 -0.24793066188E+03  0.12673212900E+03  0.32924381253E+03  0.17438808339E+03 0.  0.
         24    2    5    5    0    0 -0.41387449943E+02 -0.48845715470E+02  0.22291322127E+02  0.10349456860E+03  0.78201008653E+02 0.  0.
          5    1    5    5  501    0  0.19948260704E+02 -0.19908494641E+03  0.10444080688E+03  0.22574924393E+03  0.47000000000E+01 0. -1.
        -13    1    6    6    0    0 -0.31242278725E+02 -0.38885895103E+02  0.51074405194E+02  0.71391790031E+02  0.00000000000E+00 0.  1.
         14    1    6    6    0    0 -0.10145171218E+02 -0.99598203664E+01 -0.28783083068E+02  0.32102778566E+02  0.00000000000E+00 0. -1.
         -5    1    3    3    0  503  0.64293777569E+02  0.82984138463E+02 -0.12048854769E+03  0.15987381648E+03  0.47000000000E+01 0.  1.
         11    1    4    4    0    0  0.10358629066E+02  0.10168870615E+03 -0.26092338949E+03  0.28023010070E+03  0.00000000000E+00 0. -1.
        -12    1    4    4    0    0 -0.53213217396E+02  0.63257817273E+02 -0.12397499559E+03  0.14900670281E+03  0.00000000000E+00 0.  1.
</event>
<event>
12    1  0.8417180E-002  0.1730099E+03  0.7818608E-02  0.1174812E+00
         21   -1    0    0  503  502  0.00000000000E+00  0.00000000000E+00  0.72416809882E+02  0.72416809882E+02  0.00000000000E+00 0. -1.
         21   -1    0    0  501  503 -0.00000000000E+00 -0.00000000000E+00 -0.58030905802E+03  0.58030905802E+03  0.00000000000E+00 0. -1.
          6    2    1    2  501    0 -0.20916707205E+02 -0.53345564957E+01 -0.42947923485E+03  0.46301711183E+03  0.17165799297E+03 0.  0.
         24    2    3    3    0    0 -0.30498077604E+02 -0.65911487077E+02 -0.32265870721E+03  0.33975283354E+03  0.77774608299E+02 0.  0.
         -6    2    1    2    0  502  0.20916707205E+02  0.53345564957E+01 -0.78413013292E+02  0.18970875607E+03  0.17139091383E+03 0.  0.
        -24    2    5    5    0    0 -0.96059435958E+01 -0.58792552773E+02 -0.36535791329E+02  0.10712722015E+03  0.81194450771E+02 0.  0.
          5    1    3    3  501    0  0.95813703987E+01  0.60576930581E+02 -0.10682052764E+03  0.12326427829E+03  0.47000000000E+01 0. -1.
        -13    1    4    4    0    0 -0.74148173062E+01 -0.31669607170E+02 -0.30172603423E+02  0.44365859975E+02  0.00000000000E+00 0.  1.
         14    1    4    4    0    0 -0.23083260298E+02 -0.34241879907E+02 -0.29248610378E+03  0.29538697356E+03  0.00000000000E+00 0. -1.
         -5    1    5    5    0  502  0.30522650801E+02  0.64127109269E+02 -0.41877221963E+02  0.82581535917E+02  0.47000000000E+01 0.  1.
         13    1    6    6    0    0  0.35782783494E+02 -0.23364649105E+02 -0.10924200111E+02  0.44109551918E+02  0.00000000000E+00 0. -1.
        -14    1    6    6    0    0 -0.45388727090E+02 -0.35427903668E+02 -0.25611591218E+02  0.63017668236E+02  0.00000000000E+00 0.  1.
</event>
<event>
12    1  0.8417180E-002  0.1917535E+03  0.7818608E-02  0.1157061E+00
         21   -1    0    0  501  502  0.00000000000E+00  0.00000000000E+00  0.52111755304E+03  0.52111755304E+03  0.00000000000E+00 0.  1.
         21   -1    0    0  502  503 -0.00000000000E+00 -0.00000000000E+00 -0.94368160951E+02  0.94368160951E+02  0.00000000000E+00 0. -1.
         -6    2    1    2    0  503 -0.77015060282E+02 -0.30919219592E+02  0.57560299031E+02  0.19946889298E+03  0.17200969041E+03 0.  0.
        -24    2    3    3    0    0 -0.79127365289E+02  0.32556590444E+02  0.61681414886E+01  0.11763440057E+03  0.80490587703E+02 0.  0.
          6    2    1    2  501    0  0.77015060282E+02  0.30919219592E+02  0.36918909306E+03  0.41601682101E+03  0.17286437249E+03 0.  0.
         24    2    5    5    0    0  0.61376515572E+02  0.44538435279E+02  0.37776388664E+03  0.39308945305E+03  0.77865365655E+02 0.  0.
          5    1    5    5  501    0  0.15638544710E+02 -0.13619215688E+02 -0.85747935799E+01  0.22927367959E+02  0.47000000000E+01 0. -1.
        -13    1    6    6    0    0  0.15427984396E+02 -0.10896606404E+02  0.17660706492E+02  0.25858447119E+02  0.00000000000E+00 0.  1.
         14    1    6    6    0    0  0.45948531176E+02  0.55435041683E+02  0.36010318015E+03  0.36723100593E+03  0.00000000000E+00 0. -1.
         -5    1    3    3    0  503  0.21123050072E+01 -0.63475810036E+02  0.51392157542E+02  0.81834492416E+02  0.47000000000E+01 0.  1.
         13    1    4    4    0    0 -0.88566102440E+02  0.91419883037E+01  0.16145742422E+02  0.90488758694E+02  0.00000000000E+00 0. -1.
        -14    1    4    4    0    0  0.94387371513E+01  0.23414602140E+02 -0.99776009329E+01  0.27145641875E+02  0.00000000000E+00 0.  1.
</event>
<event>
12    1  0.8417180E-002  0.2793745E+03  0.7818608E-02  0.1096070E+00
         21   -1    0    0  503  502  0.00000000000E+00  0.00000000000E+00  0.31297328870E+03  0.31297328870E+03  0.00000000000E+00 0. -1.
         21   -1    0    0  501  503 -0.00000000000E+00 -0.00000000000E+00 -0.25014438526E+03  0.25014438526E+03  0.00000000000E+00 0. -1.
          6    2    1    2  501    0 -0.17861614198E+03  0.12870212579E+03  0.13481814444E+02  0.27969963636E+03  0.17199466241E+03 0.  0.
         24    2    3    3    0    0 -0.19125092058E+03  0.72969508436E+02  0.27187610744E+02  0.22074455923E+03  0.78022627922E+02 0.  0.
         -6    2    1    2    0  502  0.17861614198E+03 -0.12870212579E+03  0.49347088998E+02  0.28341803760E+03  0.17153042146E+03 0.  0.
        -24    2    5    5    0    0  0.36827557131E+02 -0.81046241375E+02 -0.15186348859E+02  0.12044030687E+03  0.79689899748E+02 0.  0.
          5    1    3    3  501    0  0.12634778596E+02  0.55732617350E+02 -0.13705796300E+02  0.58955077127E+02  0.47000000000E+01 0. -1.
        -11    1    4    4    0    0 -0.90558650363E+02  0.23258954972E+02 -0.25195331834E+02  0.96833118757E+02  0.00000000000E+00 0.  1.
         12    1    4    4    0    0 -0.10069227022E+03  0.49710553464E+02  0.52382942578E+02  0.12391144047E+03  0.00000000000E+00 0. -1.
         -5    1    5    5    0  502  0.14178858485E+03 -0.47655884412E+02  0.64533437857E+02  0.16297773073E+03  0.47000000000E+01 0.  1.
         11    1    6    6    0    0 -0.23431226519E+02 -0.16296804431E+02  0.67093350768E+01  0.29319334713E+02  0.00000000000E+00 0. -1.
        -12    1    6    6    0    0  0.60258783651E+02 -0.64749436944E+02 -0.21895683936E+02  0.91120972156E+02  0.00000000000E+00 0.  1.
</event>
<event>
12    1  0.8417180E-002  0.1834615E+03  0.7818608E-02  0.1165371E+00
         21   -1    0    0  501  502  0.00000000000E+00  0.00000000000E+00  0.54811536690E+03  0.54811536690E+03  0.00000000000E+00 0.  1.
         21   -1    0    0  502  503 -0.00000000000E+00 -0.00000000000E+00 -0.14060802044E+03  0.14060802044E+03  0.00000000000E+00 0.  1.
         -6    2    1    2    0  503  0.27030729500E+02  0.43008796638E+02 -0.57560805404E+02  0.18877689783E+03  0.17246174622E+03 0.  0.
        -24    2    3    3    0    0  0.29561541383E+02  0.71520244956E+02  0.16325439549E+02  0.10940073713E+03  0.75584199019E+02 0.  0.
          6    2    1    2  501    0 -0.27030729500E+02 -0.43008796638E+02  0.46506815186E+03  0.49994648950E+03  0.17628865408E+03 0.  0.
         24    2    5    5    0    0 -0.76617558183E+02 -0.54455227180E+02  0.23706166545E+03  0.26628236688E+03  0.76631871292E+02 0.  0.
          5    1    5    5  501    0  0.49586828683E+02  0.11446430542E+02  0.22800648641E+03  0.23366412261E+03  0.47000000000E+01 0. -1.
        -11    1    6    6    0    0 -0.14457006199E+02  0.13615722271E+01  0.12839452847E+03  0.12921305602E+03  0.00000000000E+00 0.  1.
         12    1    6    6    0    0 -0.62160551984E+02 -0.55816799407E+02  0.10866713698E+03  0.13706931086E+03  0.00000000000E+00 0. -1.
         -5    1    3    3    0  503 -0.25308118826E+01 -0.28511448318E+02 -0.73886244953E+02  0.79376160698E+02  0.47000000000E+01 0.  1.
         11    1    4    4    0    0 -0.10374407828E+02  0.94943363089E+01  0.31130166436E+02  0.34159303594E+02  0.00000000000E+00 0. -1.
        -12    1    4    4    0    0  0.39935949211E+02  0.62025908647E+02 -0.14804726887E+02  0.75241433539E+02  0.00000000000E+00 0.  1.
</event>
<event>
12    1  0.8417180E-002  0.1742121E+03  0.7818608E-02  0.1173706E+00
         21   -1    0    0  501  502  0.00000000000E+00  0.00000000000E+00  0.14512474672E+03  0.14512474672E+03  0.00000000000E+00 0.  1.
         21   -1    0    0  502  503 -0.00000000000E+00 -0.00000000000E+00 -0.22592237670E+03  0.22592237670E+03  0.00000000000E+00 0.  1.
         -6    2    1    2    0  503  0.62695643059E+01 -0.20670827697E+02 -0.92331262455E+02  0.19716719866E+03  0.17286772876E+03 0.  0.
        -24    2    3    3    0    0 -0.23053155448E+02 -0.68896349548E+02 -0.30514017600E+02  0.11332815875E+03  0.81449440386E+02 0.  0.
          6    2    1    2  501    0 -0.62695643059E+01  0.20670827697E+02  0.11533632475E+02  0.17387992475E+03  0.17214706793E+03 0.  0.
         24    2    5    5    0    0  0.56913439664E+02  0.10990881363E+02 -0.12252895388E+02  0.10551559005E+03  0.87312468810E+02 0.  0.
          5    1    5    5  501    0 -0.63183003970E+02  0.96799463337E+01  0.23786527863E+02  0.68364334704E+02  0.47000000000E+01 0. -1.
        -11    1    6    6    0    0  0.15664718822E+02 -0.36962773921E+01  0.36557741381E+02  0.39943889860E+02  0.00000000000E+00 0.  1.
         12    1    6    6    0    0  0.41248720842E+02  0.14687158755E+02 -0.48810636769E+02  0.65571700185E+02  0.00000000000E+00 0. -1.
         -5    1    3    3    0  503  0.29322719754E+02  0.48225521851E+02 -0.61817244855E+02  0.83839039910E+02  0.47000000000E+01 0.  1.
         11    1    4    4    0    0  0.25396536693E+02 -0.11346648284E+02 -0.25821011043E+02  0.37953328109E+02  0.00000000000E+00 0. -1.
        -12    1    4    4    0    0 -0.48449692141E+02 -0.57549701263E+02 -0.46930065573E+01  0.75374830644E+02  0.00000000000E+00 0.  1.
</event>
<event>
12    1  0.8417180E-002  0.2352917E+03  0.7818608E-02  0.1123174E+00
         21   -1    0    0  501  502  0.00000000000E+00  0.00000000000E+00  0.95534437801E+03  0.95534437801E+03  0.00000000000E+00 0. -1.
         21   -1    0    0  502  503 -0.00000000000E+00 -0.00000000000E+00 -0.16301361028E+03  0.16301361028E+03  0.00000000000E+00 0.  1.
         -6    2    1    2    0  503 -0.26249744681E+02 -0.15987484725E+03 -0.53020349764E+02  0.24119149061E+03  0.17062579459E+03 0.  0.
        -24    2    3    3    0    0 -0.37414854101E+02 -0.18216512583E+03 -0.63657186094E+02  0.21368242893E+03  0.83808941744E+02 0.  0.
          6    2    1    2  501    0  0.26249744681E+02  0.15987484725E+03  0.84535111749E+03  0.87716649767E+03  0.16897791844E+03 0.  0.
         24    2    5    5    0    0  0.16714219733E+02  0.31929951057E+02  0.52117406824E+03  0.52849233465E+03  0.79892749764E+02 0.  0.
          5    1    5    5  501    0  0.95355249484E+01  0.12794489619E+03  0.32417704925E+03  0.34867416302E+03  0.47000000000E+01 0. -1.
        -11    1    6    6    0    0  0.71728353099E+01  0.26971190728E+02  0.50526436668E+02  0.57721880583E+02  0.00000000000E+00 0.  1.
         12    1    6    6    0    0  0.95413844230E+01  0.49587603293E+01  0.47064763157E+03  0.47077045407E+03  0.00000000000E+00 0. -1.
         -5    1    3    3    0  503  0.11165109420E+02  0.22290278583E+02  0.10636836330E+02  0.27509061685E+02  0.47000000000E+01 0.  1.
         13    1    4    4    0    0  0.16707549963E+02 -0.11349380001E+02  0.65514025524E+01  0.21233735601E+02  0.00000000000E+00 0. -1.
        -14    1    4    4    0    0 -0.54122404064E+02 -0.17081574583E+03 -0.70208588646E+02  0.19244869333E+03  0.00000000000E+00 0.  1.
</event>
<event>
12    1  0.8417180E-002  0.1996966E+03  0.7818608E-02  0.1150390E+00
         21   -1    0    0  503  502  0.00000000000E+00  0.00000000000E+00  0.66109491045E+03  0.66109491045E+03  0.00000000000E+00 0.  1.
         21   -1    0    0  501  503 -0.00000000000E+00 -0.00000000000E+00 -0.79088418530E+02  0.79088418530E+02  0.00000000000E+00 0.  1.
          6    2    1    2  501    0  0.40508420954E+02 -0.89819334366E+02  0.10702758807E+03  0.22493224838E+03  0.17155514204E+03 0.  0.
         24    2    3    3    0    0  0.65597231026E+02 -0.77976446900E+02  0.17703030349E+02  0.13128039850E+03  0.80856804028E+02 0.  0.
         -6    2    1    2    0  502 -0.40508420954E+02  0.89819334366E+02  0.47497890385E+03  0.51525108059E+03  0.17369591808E+03 0.  0.
        -24    2    5    5    0    0  0.27587015702E+02  0.45537981832E+02  0.13968721400E+03  0.17022871326E+03  0.81428163680E+02 0.  0.
          5    1    3    3  501    0 -0.25088810072E+02 -0.11842887466E+02  0.89324557722E+02  0.93651849883E+02  0.47000000000E+01 0. -1.
        -13    1    4    4    0    0  0.42232196003E+02 -0.89796535659E+02  0.28058239246E+02  0.10312245626E+03  0.00000000000E+00 0.  1.
         14    1    4    4    0    0  0.23365035023E+02  0.11820088759E+02 -0.10355208898E+02  0.28157942240E+02  0.00000000000E+00 0. -1.
         -5    1    5    5    0  502 -0.68095436655E+02  0.44281352534E+02  0.33529168985E+03  0.34502236733E+03  0.47000000000E+01 0.  1.
         13    1    6    6    0    0 -0.93700815142E+01 -0.18697831925E+02  0.47840377225E+02  0.52212154134E+02  0.00000000000E+00 0. -1.
        -14    1    6    6    0    0  0.36957097216E+02  0.64235813757E+02  0.91846836772E+02  0.11801655913E+03  0.00000000000E+00 0.  1.
</event>
<event>
12    1  0.8417180E-002  0.3767709E+03  0.7818608E-02  0.1052340E+00
         21   -1    0    0  501  502  0.00000000000E+00  0.00000000000E+00  0.13846954630E+03  0.13846954630E+03  0.00000000000E+00 0.  1.
         21   -1    0    0  502  503 -0.00000000000E+00 -0.00000000000E+00 -0.14758651943E+04  0.14758651943E+04  0.00000000000E+00 0. -1.
         -6    2    1    2    0  503 -0.80268055538E+02 -0.32849558224E+03 -0.11190358645E+04  0.11807614380E+04  0.16614451290E+03 0.  0.
        -24    2    3    3    0    0 -0.22753209284E+02 -0.23996343791E+03 -0.93112859868E+03  0.96517588965E+03  0.80398200224E+02 0.  0.
          6    2    1    2  501    0  0.80268055538E+02  0.32849558224E+03 -0.21835978351E+03  0.43357330261E+03  0.16109781310E+03 0.  0.
         24    2    5    5    0    0  0.60452100678E+01  0.26281329145E+03 -0.17211731807E+03  0.32410344500E+03  0.79443698034E+02 0.  0.
          5    1    5    5  501    0  0.74222845471E+02  0.65682290795E+02 -0.46242465435E+02  0.10946985760E+03  0.47000000000E+01 0. -1.
        -13    1    6    6    0    0  0.38049698718E+02  0.16484280086E+03 -0.12726670190E+03  0.21170201223E+03  0.00000000000E+00 0.  1.
         14    1    6    6    0    0 -0.32004488650E+02  0.97970490584E+02 -0.44850616171E+02  0.11240143278E+03  0.00000000000E+00 0. -1.
         -5    1    3    3    0  503 -0.57514846255E+02 -0.88532144326E+02 -0.18790726584E+03  0.21558554839E+03  0.47000000000E+01 0.  1.
         11    1    4    4    0    0 -0.38634298042E+02 -0.66580144526E+02 -0.22128842628E+03  0.23429488308E+03  0.00000000000E+00 0. -1.
        -12    1    4    4    0    0  0.15881088759E+02 -0.17338329339E+03 -0.70984017240E+03  0.73088100657E+03  0.00000000000E+00 0.  1.
</event>
<event>
12    1  0.8417180E-002  0.3255382E+03  0.7818608E-02  0.1073159E+00
         21   -1    0    0  501  502  0.00000000000E+00  0.00000000000E+00  0.27263157376E+03  0.27263157376E+03  0.00000000000E+00 0. -1.
         21   -1    0    0  502  503 -0.00000000000E+00 -0.00000000000E+00 -0.42142616579E+03  0.42142616579E+03  0.00000000000E+00 0.  1.
         -6    2    1    2    0  503 -0.33843251909E+01  0.27618772385E+03 -0.17153478064E+03  0.36772629687E+03  0.17177699489E+03 0.  0.
        -24    2    3    3    0    0 -0.25297136661E+02  0.28728533558E+03 -0.14827964088E+03  0.33357633613E+03  0.78188943986E+02 0.  0.
          6    2    1    2  501    0  0.33843251909E+01 -0.27618772385E+03  0.22740188615E+02  0.32633144268E+03  0.17229039974E+03 0.  0.
         24    2    5    5    0    0 -0.23682154108E+02 -0.94497173605E+02 -0.39370427881E+02  0.13236271059E+03  0.80494076303E+02 0.  0.
          5    1    5    5  501    0  0.27066479299E+02 -0.18169055025E+03  0.62110616496E+02  0.19396873210E+03  0.47000000000E+01 0. -1.
        -11    1    6    6    0    0 -0.32160528681E+02 -0.98095125591E+02 -0.12535022763E+02  0.10399076914E+03  0.00000000000E+00 0.  1.
         12    1    6    6    0    0  0.84783745729E+01  0.35979519856E+01 -0.26835405118E+02  0.28371941451E+02  0.00000000000E+00 0. -1.
         -5    1    3    3    0  503  0.21912811470E+02 -0.11097611734E+02 -0.23255139763E+02  0.34149960734E+02  0.47000000000E+01 0.  1.
         11    1    4    4    0    0 -0.48077633799E+02  0.13164654228E+03 -0.54035234434E+02  0.15020678256E+03  0.00000000000E+00 0. -1.
        -12    1    4    4    0    0  0.22780497137E+02  0.15563879330E+03 -0.94244406449E+02  0.18336955357E+03  0.00000000000E+00 0.  1.
</event>
<event>
12    1  0.8417180E-002  0.1757071E+03  0.7818608E-02  0.1172132E+00
         21   -1    0    0  503  502  0.00000000000E+00  0.00000000000E+00  0.16093491811E+03  0.16093491811E+03  0.00000000000E+00 0.  1.
         21   -1    0    0  501  503 -0.00000000000E+00 -0.00000000000E+00 -0.19723068896E+03  0.19723068896E+03  0.00000000000E+00 0.  1.
          6    2    1    2  501    0  0.53464007525E+01  0.33561622961E+02 -0.49062689906E+02  0.18242842326E+03  0.17238913984E+03 0.  0.
         24    2    3    3    0    0 -0.19352182600E+02  0.34918694642E+02 -0.94128729894E+02  0.13080575747E+03  0.81584963006E+02 0.  0.
         -6    2    1    2    0  502 -0.53464007525E+01 -0.33561622961E+02  0.12766919057E+02  0.17573718381E+03  0.17194649463E+03 0.  0.
        -24    2    5    5    0    0 -0.40918931991E+02 -0.31805732125E+01 -0.50985206202E+02  0.96523317365E+02  0.70942120792E+02 0.  0.
          5    1    3    3  501    0  0.24698583352E+02 -0.13570716812E+01  0.45066039988E+02  0.51622665791E+02  0.47000000000E+01 0. -1.
        -11    1    4    4    0    0 -0.79277508155E+01 -0.23334138431E+02 -0.53406343683E+02  0.58818099212E+02  0.00000000000E+00 0.  1.
         12    1    4    4    0    0 -0.11424431784E+02  0.58252833073E+02 -0.40722386211E+02  0.71987658257E+02  0.00000000000E+00 0. -1.
         -5    1    5    5    0  502  0.35572531239E+02 -0.30381049748E+02  0.63752125259E+02  0.79213866448E+02  0.47000000000E+01 0.  1.
         13    1    6    6    0    0  0.62497741180E+00 -0.59848704568E+01 -0.54412347530E+02  0.54744066663E+02  0.00000000000E+00 0. -1.
        -14    1    6    6    0    0 -0.41543909403E+02  0.28042972443E+01  0.34271413279E+01  0.41779250702E+02  0.00000000000E+00 0.  1.
</event>
<event>
12    1  0.8417180E-002  0.2392098E+03  0.7818608E-02  0.1121056E+00
         21   -1    0    0  503  502  0.00000000000E+00  0.00000000000E+00  0.50220988860E+02  0.50220988860E+02  0.00000000000E+00 0. -1.
         21   -1    0    0  501  503 -0.00000000000E+00 -0.00000000000E+00 -0.11416577564E+04  0.11416577564E+04  0.00000000000E+00 0.  1.
          6    2    1    2  501    0 -0.13688482391E+03 -0.89913961808E+02 -0.63505960585E+03  0.67861772222E+03  0.17435404897E+03 0.  0.
         24    2    3    3    0    0 -0.12642828896E+03 -0.87312432409E+02 -0.33399150996E+03  0.37732020242E+03  0.84927223708E+02 0.  0.
         -6    2    1    2    0  502  0.13688482391E+03  0.89913961808E+02 -0.45637716166E+03  0.51326102301E+03  0.16832940477E+03 0.  0.
        -24    2    5    5    0    0  0.15375420768E+03  0.84718401852E+02 -0.45564339608E+03  0.49497992993E+03  0.81096625393E+02 0.  0.
          5    1    3    3  501    0 -0.10456534950E+02 -0.26015293991E+01 -0.30106809589E+03  0.30129751980E+03  0.47000000000E+01 0. -1.
        -11    1    4    4    0    0 -0.90111860407E+02 -0.33568496250E+02 -0.26825572684E+03  0.28497039550E+03  0.00000000000E+00 0.  1.
         12    1    4    4    0    0 -0.36316428549E+02 -0.53743936158E+02 -0.65735783120E+02  0.92349806923E+02  0.00000000000E+00 0. -1.
         -5    1    5    5    0  502 -0.16869383779E+02  0.51955599559E+01 -0.73376558665E+00  0.18281093082E+02  0.47000000000E+01 0.  1.
         13    1    6    6    0    0  0.93696309353E+02  0.13152059799E+02 -0.17145824796E+03  0.19583131991E+03  0.00000000000E+00 0. -1.
        -14    1    6    6    0    0  0.60057898332E+02  0.71566342053E+02 -0.28418514812E+03  0.29914861002E+03  0.00000000000E+00 0.  1.
</event>
<event>
12    1  0.8417180E-002  0.4108349E+03  0.7818608E-02  0.1040267E+00
         21   -1    0    0  503  502  0.00000000000E+00  0.00000000000E+00  0.18702483894E+03  0.18702483894E+03  0.00000000000E+00 0. -1.
         21   -1    0    0  501  503 -0.00000000000E+00 -0.00000000000E+00 -0.16450164127E+04  0.16450164127E+04  0.00000000000E+00 0.  1.
          6    2    1    2  501    0 -0.34348858049E+03  0.14526121018E+03 -0.13473410322E+04  0.14085855146E+04  0.17233708500E+03 0.  0.
         24    2    3    3    0    0 -0.28493619167E+03  0.10686059091E+03 -0.85163623315E+03  0.90793760682E+03  0.80365446846E+02 0.  0.
         -6    2    1    2    0  502  0.34348858049E+03 -0.14526121018E+03 -0.11065054163E+03  0.42345573707E+03  0.16729015149E+03 0.  0.
        -24    2    5    5    0    0  0.34055082949E+03 -0.14170441164E+03 -0.72089255083E+02  0.38433612540E+03  0.80388984610E+02 0.  0.
          5    1    3    3  501    0 -0.58552388818E+02  0.38400619270E+02 -0.49570479900E+03  0.50064790776E+03  0.47000000000E+01 0. -1.
        -13    1    4    4    0    0 -0.11020721323E+03  0.62554242557E+02 -0.25641238822E+03  0.28601743993E+03  0.00000000000E+00 0.  1.
         14    1    4    4    0    0 -0.17472897844E+03  0.44306348354E+02 -0.59522384494E+03  0.62192016689E+03  0.00000000000E+00 0. -1.
         -5    1    5    5    0  502  0.29377509955E+01 -0.35567985429E+01 -0.38561286548E+02  0.39119611668E+02  0.47000000000E+01 0.  1.
         11    1    6    6    0    0  0.20185048508E+03 -0.11003189959E+03 -0.12930630750E+02  0.23025602807E+03  0.00000000000E+00 0. -1.
        -12    1    6    6    0    0  0.13870034442E+03 -0.31672512051E+02 -0.59158624332E+02  0.15408009733E+03  0.00000000000E+00 0.  1.
</event>
<event>
12    1  0.8417180E-002  0.1879256E+03  0.7818608E-02  0.1160757E+00
         21   -1    0    0  503  502  0.00000000000E+00  0.00000000000E+00  0.16454204104E+03  0.16454204104E+03  0.00000000000E+00 0. -1.
         21   -1    0    0  501  503 -0.00000000000E+00 -0.00000000000E+00 -0.28526398744E+03  0.28526398744E+03  0.00000000000E+00 0. -1.
          6    2    1    2  501    0  0.30261027246E+02  0.70543640485E+02  0.52938032124E+02  0.19523954984E+03  0.17153399544E+03 0.  0.
         24    2    3    3    0    0  0.59324953014E+02  0.10285243897E+03  0.39946404529E+02  0.14963864383E+03  0.81840908110E+02 0.  0.
         -6    2    1    2    0  502 -0.30261027246E+02 -0.70543640485E+02 -0.17365997853E+03  0.25456647865E+03  0.16957054262E+03 0.  0.
        -24    2    5    5    0    0  0.31156351224E+01 -0.72876068360E+02 -0.37216866051E+02  0.11400241939E+03  0.79314740035E+02 0.  0.
          5    1    3    3  501    0 -0.29063925769E+02 -0.32308798488E+02  0.12991627595E+02  0.45600906004E+02  0.47000000000E+01 0. -1.
        -13    1    4    4    0    0 -0.96307310862E+00  0.11306798895E+01  0.31021416549E+02  0.31056951420E+02  0.00000000000E+00 0.  1.
         14    1    4    4    0    0  0.60288026123E+02  0.10172175908E+03  0.89249879800E+01  0.11858169241E+03  0.00000000000E+00 0. -1.
         -5    1    5    5    0  502 -0.33376662368E+02  0.23324278752E+01 -0.13644311248E+03  0.14056405925E+03  0.47000000000E+01 0.  1.
         11    1    6    6    0    0 -0.34876701915E+02 -0.17387915529E+02 -0.45372673336E+01  0.39234050743E+02  0.00000000000E+00 0. -1.
        -12    1    6    6    0    0  0.37992337037E+02 -0.55488152831E+02 -0.32679598718E+02  0.74768368650E+02  0.00000000000E+00 0.  1.
</event>
<event>
12    1  0.8417180E-002  0.1896685E+03  0.7818608E-02  0.1159030E+00
         21   -1    0    0  503  502  0.00000000000E+00  0.00000000000E+00  0.54249562262E+02  0.54249562262E+02  0.00000000000E+00 0. -1.
         21   -1    0    0  501  503 -0.00000000000E+00 -0.00000000000E+00 -0.65901710265E+03  0.65901710265E+03  0.00000000000E+00 0. -1.
          6    2    1    2  501    0 -0.23509257898E+02  0.76476253959E+02 -0.30615811804E+03  0.36014847490E+03  0.17196752050E+03 0.  0.
         24    2    3    3    0    0  0.31173826372E+02  0.98489110371E+02 -0.17270678595E+03  0.21418219939E+03  0.73310765292E+02 0.  0.
         -6    2    1    2    0  502  0.23509257898E+02 -0.76476253959E+02 -0.29860942235E+03  0.35311819001E+03  0.17065628138E+03 0.  0.
        -24    2    5    5    0    0  0.23474485246E+02 -0.76389351363E+02 -0.98013773804E+02  0.15246746617E+03  0.85165978690E+02 0.  0.
          5    1    3    3  501    0 -0.54683084270E+02 -0.22012856411E+02 -0.13345133208E+03  0.14596627551E+03  0.47000000000E+01 0. -1.
        -13    1    4    4    0    0  0.41815142615E+02  0.89909801699E+02 -0.17418726656E+03  0.20043323683E+03  0.00000000000E+00 0.  1.
         14    1    4    4    0    0 -0.10641316242E+02  0.85793086717E+01  0.14804806063E+01  0.13748962560E+02  0.00000000000E+00 0. -1.
         -5    1    5    5    0  502  0.34772652030E-01 -0.86902596582E-01 -0.20059564855E+03  0.20065072384E+03  0.47000000000E+01 0.  1.
         11    1    6    6    0    0  0.11476406513E+02  0.16060526986E+02 -0.34218612869E+02  0.39503947906E+02  0.00000000000E+00 0. -1.
        -12    1    6    6    0    0  0.11998078733E+02 -0.92449878349E+02 -0.63795160935E+02  0.11296351826E+03  0.00000000000E+00 0.  1.
</event>
<event>
12    1  0.8417180E-002  0.2008972E+03  0.7818608E-02  0.1149013E+00
         21   -1    0    0  503  502  0.00000000000E+00  0.00000000000E+00  0.42348567515E+03  0.42348567515E+03  0.00000000000E+00 0. -1.
         21   -1    0    0  501  503 -0.00000000000E+00 -0.00000000000E+00 -0.14566173112E+03  0.14566173112E+03  0.00000000000E+00 0.  1.
          6    2    1    2  501    0 -0.51327066798E+02 -0.90135825136E+02 -0.28551609779E+02  0.20277917254E+03  0.17188735740E+03 0.  0.
         24    2    3    3    0    0 -0.90487327062E+02 -0.81539674428E+02 -0.52365682500E+02  0.15591106130E+03  0.82033038885E+02 0.  0.
         -6    2    1    2    0  502  0.51327066798E+02  0.90135825136E+02  0.30637555380E+03  0.36636823374E+03  0.17204873718E+03 0.  0.
        -24    2    5    5    0    0 -0.15937972542E+02  0.23530868693E+02  0.67238361476E+02  0.10913391936E+03  0.81126409696E+02 0.  0.
          5    1    3    3  501    0  0.39160260263E+02 -0.85961507088E+01  0.23814072721E+02  0.46868111232E+02  0.47000000000E+01 0. -1.
        -13    1    4    4    0    0 -0.45092512770E+02 -0.87616058248E+02 -0.22016435167E+02  0.10096846928E+03  0.00000000000E+00 0.  1.
         14    1    4    4    0    0 -0.45394814292E+02  0.60763838201E+01 -0.30349247333E+02  0.54942592027E+02  0.00000000000E+00 0. -1.
         -5    1    5    5    0  502  0.67265039340E+02  0.66604956443E+02  0.23913719233E+03  0.25723431438E+03  0.47000000000E+01 0.  1.
         11    1    6    6    0    0 -0.20671213356E+02  0.32740425134E+02  0.82243791026E+02  0.90902561360E+02  0.00000000000E+00 0. -1.
        -12    1    6    6    0    0  0.47332408142E+01 -0.92095564411E+01 -0.15005429550E+02  0.18231357997E+02  0.00000000000E+00 0.  1.
</event>
<event>
12    1  0.8417180E-002  0.1965437E+03  0.7818608E-02  0.1153526E+00
         21   -1    0    0  501  502  0.00000000000E+00  0.00000000000E+00  0.50638135709E+03  0.50638135709E+03  0.00000000000E+00 0. -1.
         21   -1    0    0  502  503 -0.00000000000E+00 -0.00000000000E+00 -0.84864976015E+02  0.84864976015E+02  0.00000000000E+00 0. -1.
         -6    2    1    2    0  503  0.41015473469E+01  0.91773465541E+02  0.11079742465E+03  0.22562247280E+03  0.17375338632E+03 0.  0.
        -24    2    3    3    0    0 -0.62069599416E+02  0.39862461256E+02  0.83571880206E+02  0.13709737297E+03  0.79810898537E+02 0.  0.
          6    2    1    2  501    0 -0.41015473469E+01 -0.91773465541E+02  0.31071895643E+03  0.36562386031E+03  0.16939700609E+03 0.  0.
         24    2    5    5    0    0  0.97819485400E+01 -0.40585356686E+02  0.56839441728E+02  0.10622094604E+03  0.79431162311E+02 0.  0.
          5    1    5    5  501    0 -0.13883495887E+02 -0.51188108855E+02  0.25387951471E+03  0.25940291427E+03  0.47000000000E+01 0. -1.
        -11    1    6    6    0    0 -0.32834404930E+02 -0.13615567913E+02  0.38894264687E+02  0.52690090741E+02  0.00000000000E+00 0.  1.
         12    1    6    6    0    0  0.42616353470E+02 -0.26969788773E+02  0.17945177041E+02  0.53530855295E+02  0.00000000000E+00 0. -1.
         -5    1    3    3    0  503  0.66171146763E+02  0.51911004285E+02  0.27225544439E+02  0.88525099830E+02  0.47000000000E+01 0.  1.
         11    1    4    4    0    0 -0.45135685740E+02  0.64355043913E+02  0.55972651852E+02  0.96497355195E+02  0.00000000000E+00 0. -1.
        -12    1    4    4    0    0 -0.16933913676E+02 -0.24492582658E+02  0.27599228354E+02  0.40600017776E+02  0.00000000000E+00 0.  1.
</event>
<event>
12    1  0.8417180E-002  0.1827277E+03  0.7818608E-02  0.1165402E+00
         21   -1    0    0  503  502  0.00000000000E+00  0.00000000000E+00  0.19404334526E+03  0.19404334526E+03  0.00000000000E+00 0. -1.
         21   -1    0    0  501  503 -0.00000000000E+00 -0.00000000000E+00 -0.17298055384E+03  0.17298055384E+03  0.00000000000E+00 0. -1.
          6    2    1    2  501    0 -0.61599321983E+02  0.39053329836E+01 -0.79470380124E+01  0.18200776258E+03  0.17103783830E+03 0.  0.
         24    2    3    3    0    0  0.82164199796E+01 -0.77794644146E+01  0.29044626437E+02  0.10199997824E+03  0.97120418103E+02 0.  0.
         -6    2    1    2    0  502  0.61599321983E+02 -0.39053329836E+01  0.29009829427E+02  0.18501613652E+03  0.17198741952E+03 0.  0.
        -24    2    5    5    0    0  0.38302292691E+02 -0.60105898758E+02 -0.30624312671E+02  0.99695704787E+02  0.62622682277E+02 0.  0.
          5    1    3    3  501    0 -0.69815741963E+02  0.11684797398E+02 -0.36991664450E+02  0.80007784339E+02  0.47000000000E+01 0. -1.
        -11    1    4    4    0    0 -0.39942963033E+02  0.13302924458E+02  0.25694500465E+02  0.49321551569E+02  0.00000000000E+00 0.  1.
         12    1    4    4    0    0  0.48159383012E+02 -0.21082388873E+02  0.33501259722E+01  0.52678426673E+02  0.00000000000E+00 0. -1.
         -5    1    5    5    0  502  0.23297029292E+02  0.56200565774E+02  0.59634142097E+02  0.85320431731E+02  0.47000000000E+01 0.  1.
         13    1    6    6    0    0  0.37613557700E+02 -0.19124407460E+02  0.84877158836E+01  0.43041421961E+02  0.00000000000E+00 0. -1.
        -14    1    6    6    0    0  0.68873499124E+00 -0.40981491297E+02 -0.39112028554E+02  0.56654282825E+02  0.00000000000E+00 0.  1.
</event>
<event>
12    1  0.8417180E-002  0.3339209E+03  0.7818608E-02  0.1069452E+00
         21   -1    0    0  501  502  0.00000000000E+00  0.00000000000E+00  0.15125359733E+03  0.15125359733E+03  0.00000000000E+00 0. -1.
         21   -1    0    0  502  503 -0.00000000000E+00 -0.00000000000E+00 -0.77181570051E+03  0.77181570051E+03  0.00000000000E+00 0. -1.
         -6    2    1    2    0  503  0.50769933736E+02 -0.28160422750E+03 -0.40922520207E+03  0.52817462363E+03  0.17211809877E+03 0.  0.
        -24    2    3    3    0    0  0.83866178887E+02 -0.11961463014E+03 -0.17442725238E+03  0.24096710584E+03  0.79366768996E+02 0.  0.
          6    2    1    2  501    0 -0.50769933736E+02  0.28160422750E+03 -0.21133690112E+03  0.39489467422E+03  0.17146425527E+03 0.  0.
         24    2    5    5    0    0 -0.58588854653E+02  0.26988730778E+03 -0.13623156934E+03  0.31833539918E+03  0.80663331818E+02 0.  0.
          5    1    5    5  501    0  0.78189209171E+01  0.11716919720E+02 -0.75105331777E+02  0.76559275031E+02  0.47000000000E+01 0. -1.
        -11    1    6    6    0    0 -0.78116481187E+02  0.20842338845E+03 -0.96598588091E+02  0.24263919862E+03  0.00000000000E+00 0.  1.
         12    1    6    6    0    0  0.19527626534E+02  0.61463919330E+02 -0.39632981249E+02  0.75696200565E+02  0.00000000000E+00 0. -1.
         -5    1    3    3    0  503 -0.33096245152E+02 -0.16198959736E+03 -0.23479794969E+03  0.28720751779E+03  0.47000000000E+01 0.  1.
         11    1    4    4    0    0  0.24086147092E+02 -0.94981886766E+02 -0.12878094700E+03  0.16182161044E+03  0.00000000000E+00 0. -1.
        -12    1    4    4    0    0  0.59780031795E+02 -0.24632743369E+02 -0.45646305382E+02  0.79145495401E+02  0.00000000000E+00 0.  1.
</event>
<event>
12    1  0.8417180E-002  0.2595634E+03  0.7818608E-02  0.1107786E+00
         21   -1    0    0  501  502  0.00000000000E+00  0.00000000000E+00  0.11544861010E+03  0.11544861010E+03  0.00000000000E+00 0.  1.
         21   -1    0    0  502  503 -0.00000000000E+00 -0.00000000000E+00 -0.58741285721E+03  0.58741285721E+03  0.00000000000E+00 0.  1.
         -6    2    1    2    0  503  0.10514867932E+03 -0.16430024416E+03 -0.19247740677E+03  0.32314189708E+03  0.17123760842E+03 0.  0.
        -24    2    3    3    0    0  0.11053335345E+03 -0.96405874669E+02 -0.19213704935E+03  0.25487150842E+03  0.80815377121E+02 0.  0.
          6    2    1    2  501    0 -0.10514867932E+03  0.16430024416E+03 -0.27948684033E+03  0.37971957023E+03  0.16740144293E+03 0.  0.
         24    2    5    5    0    0 -0.95911168814E+02  0.12366249573E+03 -0.11346447327E+03  0.20848209021E+03  0.78097567745E+02 0.  0.
          5    1    5    5  501    0 -0.92375105103E+01  0.40637748430E+02 -0.16602236706E+03  0.17123748002E+03  0.47000000000E+01 0. -1.
        -13    1    6    6    0    0 -0.10887553987E+03  0.10583237574E+03 -0.91052029150E+02  0.17704475974E+03  0.00000000000E+00 0.  1.
         14    1    6    6    0    0  0.12964371055E+02  0.17830119991E+02 -0.22412444120E+02  0.31437330471E+02  0.00000000000E+00 0. -1.
         -5    1    3    3    0  503 -0.53846741274E+01 -0.67894369496E+02 -0.34035742568E+00  0.68270388660E+02  0.47000000000E+01 0.  1.
         13    1    4    4    0    0 -0.63887535706E+01  0.67448859498E+01 -0.30235055906E+01  0.97699152871E+01  0.00000000000E+00 0. -1.
        -14    1    4    4    0    0  0.11692210702E+03 -0.10315076062E+03 -0.18911354375E+03  0.24510159314E+03  0.00000000000E+00 0.  1.
</event>
<event>
12    1  0.8417180E-002  0.1810756E+03  0.7818608E-02  0.1166814E+00
         21   -1    0    0  501  502  0.00000000000E+00  0.00000000000E+00  0.70444080272E+03  0.70444080272E+03  0.00000000000E+00 0.  1.
         21   -1    0    0  502  503 -0.00000000000E+00 -0.00000000000E+00 -0.83191148890E+02  0.83191148890E+02  0.00000000000E+00 0.  1.
         -6    2    1    2    0  503 -0.24314811033E+02  0.51987296260E+02  0.49161597764E+02  0.18763057399E+03  0.17173957200E+03 0.  0.
        -24    2    3    3    0    0 -0.39673964362E+02  0.33414659422E+02  0.95983482541E+02  0.13476068346E+03  0.79101516887E+02 0.  0.
          6    2    1    2  501    0  0.24314811033E+02 -0.51987296260E+02  0.57208805607E+03  0.60000137762E+03  0.17153139727E+03 0.  0.
         24    2    5    5    0    0  0.29672455782E+02 -0.14365992748E+02  0.54876102619E+03  0.55516492863E+03  0.77347254252E+02 0.  0.
          5    1    5    5  501    0 -0.53576447487E+01 -0.37621303512E+02  0.23327029878E+02  0.44836448991E+02  0.47000000000E+01 0. -1.
        -11    1    6    6    0    0 -0.15490309960E+02  0.21124671600E+02  0.14647494074E+03  0.14879889018E+03  0.00000000000E+00 0.  1.
         12    1    6    6    0    0  0.45162765742E+02 -0.35490664348E+02  0.40228608545E+03  0.40636603845E+03  0.00000000000E+00 0. -1.
         -5    1    3    3    0  503  0.15359153329E+02  0.18572636838E+02 -0.46821884777E+02  0.52869890525E+02  0.47000000000E+01 0.  1.
         11    1    4    4    0    0 -0.32967969339E+02 -0.48708105574E+01  0.89307965689E+02  0.95323263337E+02  0.00000000000E+00 0. -1.
        -12    1    4    4    0    0 -0.67059950222E+01  0.38285469980E+02  0.66755168521E+01  0.39437420124E+02  0.00000000000E+00 0.  1.
</event>
<event>
12    1  0.8417180E-002  0.1822594E+03  0.7818608E-02  0.1166853E+00
         21   -1    0    0  503  502  0.00000000000E+00  0.00000000000E+00  0.46788257996E+02  0.46788257996E+02  0.00000000000E+00 0. -1.
         21   -1    0    0  501  503 -0.00000000000E+00 -0.00000000000E+00 -0.69535710382E+03  0.69535710382E+03  0.00000000000E+00 0. -1.
          6    2    1    2  501    0  0.43387810227E+02 -0.28204849539E+01 -0.29766669070E+03  0.34903287243E+03  0.17699726007E+03 0.  0.
         24    2    3    3    0    0  0.52368214890E+02 -0.58573384019E+02 -0.25495273878E+03  0.27807087477E+03  0.78417097257E+02 0.  0.
         -6    2    1    2    0  502 -0.43387810227E+02  0.28204849539E+01 -0.35090215512E+03  0.39311248939E+03  0.17179828180E+03 0.  0.
        -24    2    5    5    0    0 -0.49202762029E+02 -0.62028753187E+02 -0.18697316911E+03  0.21666408387E+03  0.75603447420E+02 0.  0.
          5    1    3    3  501    0 -0.89804046624E+01  0.55752899065E+02 -0.42713951925E+02  0.70961997654E+02  0.47000000000E+01 0. -1.
        -13    1    4    4    0    0  0.62791984289E+02 -0.28725918905E+02 -0.22162686750E+03  0.23213461635E+03  0.00000000000E+00 0.  1.
         14    1    4    4    0    0 -0.10423769399E+02 -0.29847465113E+02 -0.33325871276E+02  0.45936258429E+02  0.00000000000E+00 0. -1.
         -5    1    5    5    0  502  0.58149518018E+01  0.64849238141E+02 -0.16392898602E+03  0.17644840551E+03  0.47000000000E+01 0.  1.
         13    1    6    6    0    0 -0.36890573272E+02  0.93663125743E+00 -0.11233524773E+03  0.11824127687E+03  0.00000000000E+00 0. -1.
        -14    1    6    6    0    0 -0.12312188757E+02 -0.62965384444E+02 -0.74637921379E+02  0.98422807001E+02  0.00000000000E+00 0.  1.
</event>
<event>
12    1  0.8417180E-002  0.1998488E+03  0.7818608E-02  0.1150058E+00
         21   -1    0    0  501  502  0.00000000000E+00  0.00000000000E+00  0.77461417763E+03  0.77461417763E+03  0.00000000000E+00 0. -1.
         21   -1    0    0  502  503 -0.00000000000E+00 -0.00000000000E+00 -0.25799108684E+03  0.25799108684E+03  0.00000000000E+00 0. -1.
         -6    2    1    2    0  503  0.10064888046E+03 -0.84789267389E+01 -0.20390296834E+03  0.28487715198E+03  0.17139568807E+03 0.  0.
        -24    2    3    3    0    0  0.24534290367E+02  0.51779507190E+02 -0.12874737751E+03  0.16201559364E+03  0.79938204881E+02 0.  0.
          6    2    1    2  501    0 -0.10064888046E+03  0.84789267389E+01  0.72052605913E+03  0.74772811249E+03  0.17244546670E+03 0.  0.
         24    2    5    5    0    0 -0.56553286401E+01  0.32712024394E+02  0.20065031127E+03  0.21866866298E+03  0.80332916494E+02 0.  0.
          5    1    5    5  501    0 -0.94993551818E+02 -0.24233097655E+02  0.51987574786E+03  0.52905944952E+03  0.47000000000E+01 0. -1.
        -11    1    6    6    0    0 -0.72123152508E+01 -0.24029232994E+02  0.31631226860E+02  0.40372714080E+02  0.00000000000E+00 0.  1.
         12    1    6    6    0    0  0.15569866107E+01  0.56741257388E+02  0.16901908441E+03  0.17829594890E+03  0.00000000000E+00 0. -1.
         -5    1    3    3    0  503  0.76114590091E+02 -0.60258433929E+02 -0.75155590832E+02  0.12286155834E+03  0.47000000000E+01 0.  1.
         13    1    4    4    0    0  0.36334673605E+02 -0.55863235468E+01 -0.31104244015E+02  0.48154849315E+02  0.00000000000E+00 0. -1.
        -14    1    4    4    0    0 -0.11800383238E+02  0.57365830737E+02 -0.97643133495E+02  0.11386074433E+03  0.00000000000E+00 0.  1.
</event>
<event>
12    1  0.8417180E-002  0.1905553E+03  0.7818608E-02  0.1158153E+00
         21   -1    0    0  503  502  0.00000000000E+00  0.00000000000E+00  0.31185420578E+02  0.31185420578E+02  0.00000000000E+00 0. -1.
         21   -1    0    0  501  503 -0.00000000000E+00 -0.00000000000E+00 -0.12317435162E+04  0.12317435162E+04  0.00000000000E+00 0.  1.
          6    2    1    2  501    0  0.25187943277E+02  0.76263084691E+02 -0.44827923579E+03  0.48709916088E+03  0.17280286085E+03 0.  0.
         24    2    3    3    0    0 -0.39320350012E+02 -0.10820711048E+00 -0.18739815102E+03  0.20768025582E+03  0.80417162463E+02 0.  0.
         -6    2    1    2    0  502 -0.25187943277E+02 -0.76263084691E+02 -0.75227885986E+03  0.77582977592E+03  0.17186584200E+03 0.  0.
        -24    2    5    5    0    0 -0.35160275040E+02 -0.10929475151E+03 -0.69342622447E+03  0.70744658278E+03  0.80368843737E+02 0.  0.
          5    1    3    3  501    0  0.64508293289E+02  0.76371291801E+02 -0.26088108476E+03  0.27941890505E+03  0.47000000000E+01 0. -1.
        -11    1    4    4    0    0 -0.19580935147E+02 -0.32039594605E+02 -0.15023507811E+03  0.15485647335E+03  0.00000000000E+00 0.  1.
         12    1    4    4    0    0 -0.19739414865E+02  0.31931387494E+02 -0.37163072911E+02  0.52823782473E+02  0.00000000000E+00 0. -1.
         -5    1    5    5    0  502  0.99723317630E+01  0.33031666816E+02 -0.58852635383E+02  0.68383193147E+02  0.47000000000E+01 0.  1.
         11    1    6    6    0    0  0.18456424275E+01 -0.23277663389E+02 -0.33063186009E+02  0.40477528061E+02  0.00000000000E+00 0. -1.
        -12    1    6    6    0    0 -0.37005917467E+02 -0.86017088118E+02 -0.66036303847E+03  0.66696905471E+03  0.00000000000E+00 0.  1.
</event>
<event>
12    1  0.8417180E-002  0.2379827E+03  0.7818608E-02  0.1121327E+00
         21   -1    0    0  501  502  0.00000000000E+00  0.00000000000E+00  0.17780290072E+03  0.17780290072E+03  0.00000000000E+00 0. -1.
         21   -1    0    0  502  503 -0.00000000000E+00 -0.00000000000E+00 -0.64920370588E+03  0.64920370588E+03  0.00000000000E+00 0. -1.
         -6    2    1    2    0  503 -0.41038120544E+02  0.15898942270E+03 -0.53119488729E+03  0.58162706227E+03  0.17076377664E+03 0.  0.
        -24    2    3    3    0    0 -0.87621981617E+01  0.10762275609E+03 -0.49015505548E+03  0.50823341541E+03  0.79936176951E+02 0.  0.
          6    2    1    2  501    0  0.41038120544E+02 -0.15898942270E+03  0.59794082133E+02  0.24537954433E+03  0.17226150077E+03 0.  0.
         24    2    5    5    0    0  0.90384646044E+02 -0.12145156543E+03  0.35643265684E+02  0.17867480505E+03  0.87945304502E+02 0.  0.
          5    1    5    5  501    0 -0.49346525500E+02 -0.37537857263E+02  0.24150816449E+02  0.66704739277E+02  0.47000000000E+01 0. -1.
        -11    1    6    6    0    0  0.42141408627E+02 -0.19013807370E+01 -0.72630765821E+01  0.42804974608E+02  0.00000000000E+00 0.  1.
         12    1    6    6    0    0  0.48243237417E+02 -0.11955018470E+03  0.42906342266E+02  0.13586983044E+03  0.00000000000E+00 0. -1.
         -5    1    3    3    0  503 -0.32275922382E+02  0.51366666605E+02 -0.41039831816E+02  0.73393646859E+02  0.47000000000E+01 0.  1.
         13    1    4    4    0    0 -0.23279442391E+02  0.31899164396E+02 -0.64327857666E+02  0.75482199220E+02  0.00000000000E+00 0. -1.
        -14    1    4    4    0    0  0.14517244229E+02  0.75723591695E+02 -0.42582719781E+03  0.43275121619E+03  0.00000000000E+00 0.  1.
</event>
<event>
12    1  0.8417180E-002  0.1868943E+03  0.7818608E-02  0.1162175E+00
         21   -1    0    0  501  502  0.00000000000E+00  0.00000000000E+00  0.71741424366E+03  0.71741424366E+03  0.00000000000E+00 0.  1.
         21   -1    0    0  502  503 -0.00000000000E+00 -0.00000000000E+00 -0.98700557628E+02  0.98700557628E+02  0.00000000000E+00 0.  1.
         -6    2    1    2    0  503  0.65027018862E+02  0.34458517291E+02  0.14527824919E+02  0.18368295175E+03  0.16766772639E+03 0.  0.
        -24    2    3    3    0    0  0.36208252805E+02 -0.49745682779E+01  0.69329409334E+02  0.11012485792E+03  0.77363644120E+02 0.  0.
          6    2    1    2  501    0 -0.65027018862E+02 -0.34458517291E+02  0.60418586111E+03  0.63243184953E+03  0.17179518893E+03 0.  0.
         24    2    5    5    0    0 -0.54150931935E+02 -0.75339966404E+02  0.55185043725E+03  0.56497320488E+03  0.77764922457E+02 0.  0.
          5    1    5    5  501    0 -0.10876086927E+02  0.40881449113E+02  0.52335423855E+02  0.67458644653E+02  0.47000000000E+01 0. -1.
        -13    1    6    6    0    0 -0.23562962617E+02  0.88844706584E+01  0.21267832589E+03  0.21416399634E+03  0.00000000000E+00 0.  1.
         14    1    6    6    0    0 -0.30587969318E+02 -0.84224437062E+02  0.33917211136E+03  0.35080920854E+03  0.00000000000E+00 0. -1.
         -5    1    3    3    0  503  0.28818766057E+02  0.39433085569E+02 -0.54801584415E+02  0.73558093837E+02  0.47000000000E+01 0.  1.
         11    1    4    4    0    0  0.49654928515E+02  0.22785170914E+02  0.41946515465E+02  0.68878778292E+02  0.00000000000E+00 0. -1.
        -12    1    4    4    0    0 -0.13446675710E+02 -0.27759739192E+02  0.27382893870E+02  0.41246079624E+02  0.00000000000E+00 0.  1.
</event>
<event>
12    1  0.8417180E-002  0.1924272E+03  0.7818608E-02  0.1156796E+00
         21   -1    0    0  501  502  0.00000000000E+00  0.00000000000E+00  0.70132128427E+03  0.70132128427E+03  0.00000000000E+00 0.  1.
         21   -1    0    0  502  503 -0.00000000000E+00 -0.00000000000E+00 -0.10197042782E+03  0.10197042782E+03  0.00000000000E+00 0.  1.
         -6    2    1    2    0  503 -0.61818550792E+02  0.58026245589E+02  0.18107231275E+02  0.19102349571E+03  0.17021611466E+03 0.  0.
        -24    2    3    3    0    0  0.12995244735E+02  0.52958495314E+01  0.47843431716E+02  0.94670341706E+02  0.80477060286E+02 0.  0.
          6    2    1    2  501    0  0.61818550792E+02 -0.58026245589E+02  0.58124362517E+03  0.61226821638E+03  0.17274153695E+03 0.  0.
         24    2    5    5    0    0  0.92357082772E+02 -0.33536186954E+02  0.27251650762E+03  0.30103375810E+03  0.81863117567E+02 0.  0.
          5    1    5    5  501    0 -0.30538531981E+02 -0.24490058635E+02  0.30872711755E+03  0.31123445828E+03  0.47000000000E+01 0. -1.
        -13    1    6    6    0    0  0.44588407563E+02 -0.16786801436E+02  0.23013272243E+03  0.23501275013E+03  0.00000000000E+00 0.  1.
         14    1    6    6    0    0  0.47768675209E+02 -0.16749385518E+02  0.42383785193E+02  0.66021007973E+02  0.00000000000E+00 0. -1.
         -5    1    3    3    0  503 -0.74813795527E+02  0.52730396058E+02 -0.29736200442E+02  0.96353154003E+02  0.47000000000E+01 0.  1.
         13    1    4    4    0    0  0.11413282739E+02 -0.36816378058E+02  0.15488103059E+02  0.41540222105E+02  0.00000000000E+00 0. -1.
        -14    1    4    4    0    0  0.15819619964E+01  0.42112227589E+02  0.32355328657E+02  0.53130119601E+02  0.00000000000E+00 0.  1.
</event>
<event>
12    1  0.8417180E-002  0.1908014E+03  0.7818608E-02  0.1158437E+00
         21   -1    0    0  501  502  0.00000000000E+00  0.00000000000E+00  0.24527979160E+04  0.24527979160E+04  0.00000000000E+00 0.  1.
         21   -1    0    0  502  503 -0.00000000000E+00 -0.00000000000E+00 -0.58129805636E+02  0.58129805636E+02  0.00000000000E+00 0. -1.
         -6    2    1    2    0  503 -0.63245554129E+02  0.41037640990E+02  0.11341607047E+03  0.22196481546E+03  0.17527431691E+03 0.  0.
        -24    2    3    3    0    0 -0.92420112178E+02 -0.95001834742E+01  0.10958978349E+03  0.16329662126E+03  0.77615302925E+02 0.  0.
          6    2    1    2  501    0  0.63245554129E+02 -0.41037640990E+02  0.22812520399E+04  0.22889629062E+04  0.17191924916E+03 0.  0.
         24    2    5    5    0    0  0.10596653510E+03 -0.27772616129E+02  0.13396455079E+04  0.13462826878E+04  0.76333241488E+02 0.  0.
          5    1    5    5  501    0 -0.42720980972E+02 -0.13265024861E+02  0.94160653199E+03  0.94268021841E+03  0.47000000000E+01 0. -1.
        -13    1    6    6    0    0  0.27050498193E+02  0.17170145933E+02  0.63517236448E+03  0.63597993362E+03  0.00000000000E+00 0.  1.
         14    1    6    6    0    0  0.78916036908E+02 -0.44942762062E+02  0.70447314347E+03  0.71030275419E+03  0.00000000000E+00 0. -1.
         -5    1    3    3    0  503  0.29174558050E+02  0.50537824464E+02  0.38262869795E+01  0.58668194203E+02  0.47000000000E+01 0.  1.
         13    1    4    4    0    0 -0.29004541305E+02 -0.30563046451E+02  0.98988792470E+01  0.43282225394E+02  0.00000000000E+00 0. -1.
        -14    1    4    4    0    0 -0.63415570874E+02  0.21062862977E+02  0.99690904246E+02  0.12001439587E+03  0.00000000000E+00 0.  1.
</event>
<event>
12    1  0.8417180E-002  0.1848283E+03  0.7818608E-02  0.1163479E+00
         21   -1    0    0  501  502  0.00000000000E+00  0.00000000000E+00  0.31475476278E+03  0.31475476278E+03  0.00000000000E+00 0. -1.
         21   -1    0    0  502  503 -0.00000000000E+00 -0.00000000000E+00 -0.11518604795E+03  0.11518604795E+03  0.00000000000E+00 0. -1.
         -6    2    1    2    0  503  0.57338417574E+02 -0.34762466134E+02  0.45871263522E+02  0.19043548683E+03  0.17223640337E+03 0.  0.
        -24    2    3    3    0    0  0.19737208601E+02 -0.45013796801E+02  0.91958629499E+02  0.12989561568E+03  0.77464069909E+02 0.  0.
          6    2    1    2  501    0 -0.57338417574E+02  0.34762466134E+02  0.15369745131E+03  0.23950532390E+03  0.17100810056E+03 0.  0.
         24    2    5    5    0    0 -0.50220409557E+01 -0.35753186945E+02  0.41561182805E+02  0.97005873706E+02  0.79870497339E+02 0.  0.
          5    1    5    5  501    0 -0.52316376618E+02  0.70515653078E+02  0.11213626851E+03  0.14249945020E+03  0.47000000000E+01 0. -1.
        -11    1    6    6    0    0 -0.42339961588E+02 -0.14911683711E+02  0.20275241814E+02  0.49255619872E+02  0.00000000000E+00 0.  1.
         12    1    6    6    0    0  0.37317920632E+02 -0.20841503233E+02  0.21285940991E+02  0.47750253834E+02  0.00000000000E+00 0. -1.
         -5    1    3    3    0  503  0.37601208973E+02  0.10251330668E+02 -0.46087365976E+02  0.60539871153E+02  0.47000000000E+01 0.  1.
         11    1    4    4    0    0 -0.18160967614E+02  0.87795223554E+01  0.48858482420E+01  0.20755054096E+02  0.00000000000E+00 0. -1.
        -12    1    4    4    0    0  0.37898176215E+02 -0.53793319156E+02  0.87072781257E+02  0.10914056158E+03  0.00000000000E+00 0.  1.
</event>
<event>
12    1  0.8417180E-002  0.2474806E+03  0.7818608E-02  0.1115006E+00
         21   -1    0    0  501  502  0.00000000000E+00  0.00000000000E+00  0.91843733448E+02  0.91843733448E+02  0.00000000000E+00 0.  1.
         21   -1    0    0  502  503 -0.00000000000E+00 -0.00000000000E+00 -0.95612312589E+03  0.95612312589E+03  0.00000000000E+00 0. -1.
         -6    2    1    2    0  503  0.14849328387E+03 -0.97490821740E+02 -0.72080128381E+03  0.76190284403E+03  0.17142560291E+03 0.  0.
        -24    2    3    3    0    0  0.12612891620E+02 -0.23861067299E+02 -0.36985594741E+03  0.37840637616E+03  0.75296268924E+02 0.  0.
          6    2    1    2  501    0 -0.14849328387E+03  0.97490821740E+02 -0.14347810864E+03  0.28606401530E+03  0.17231348617E+03 0.  0.
         24    2    5    5    0    0 -0.75856726634E+02  0.17944614508E+02 -0.13942341995E+03  0.17816499292E+03  0.78915286890E+02 0.  0.
          5    1    5    5  501    0 -0.72636557234E+02  0.79546207232E+02 -0.40546886864E+01  0.10789902239E+03  0.47000000000E+01 0. -1.
        -11    1    6    6    0    0 -0.61139214230E+01  0.95056075752E+01  0.86760397179E+01  0.14248167451E+02  0.00000000000E+00 0.  1.
         12    1    6    6    0    0 -0.69742805211E+02  0.84390069324E+01 -0.14809945967E+03  0.16391682546E+03  0.00000000000E+00 0. -1.
         -5    1    3    3    0  503  0.13588039225E+03 -0.73629754441E+02 -0.35094533640E+03  0.38349646788E+03  0.47000000000E+01 0.  1.
         13    1    4    4    0    0 -0.31917858579E+01 -0.43354028906E+02 -0.31617224938E+03  0.31914675401E+03  0.00000000000E+00 0. -1.
        -14    1    4    4    0    0  0.15804677478E+02  0.19492961607E+02 -0.53683698031E+02  0.59259622144E+02  0.00000000000E+00 0.  1.
</event>
<event>
12    1  0.8417180E-002  0.1862484E+03  0.7818608E-02  0.1161936E+00
         21   -1    0    0  501  502  0.00000000000E+00  0.00000000000E+00  0.12553380821E+03  0.12553380821E+03  0.00000000000E+00 0.  1.
         21   -1    0    0  502  503 -0.00000000000E+00 -0.00000000000E+00 -0.29822820603E+03  0.29822820603E+03  0.00000000000E+00 0.  1.
         -6    2    1    2    0  503  0.71274820921E+02 -0.16045756280E+01 -0.14411423418E+03  0.23533357027E+03  0.17184383039E+03 0.  0.
        -24    2    3    3    0    0  0.66494556451E+02 -0.21923474899E+02 -0.19529858544E+02  0.10892524282E+03  0.81124153985E+02 0.  0.
          6    2    1    2  501    0 -0.71274820921E+02  0.16045756280E+01 -0.28580163637E+02  0.18842844397E+03  0.17206329645E+03 0.  0.
         24    2    5    5    0    0 -0.62714801165E+02 -0.31608396219E+02  0.42660561377E+02  0.10922171233E+03  0.71952914816E+02 0.  0.
          5    1    5    5  501    0 -0.85600197557E+01  0.33212971847E+02 -0.71240725014E+02  0.79206731643E+02  0.47000000000E+01 0. -1.
        -13    1    6    6    0    0 -0.52394536583E+02 -0.32889074904E+02 -0.34452420149E+01  0.61957633947E+02  0.00000000000E+00 0.  1.
         14    1    6    6    0    0 -0.10320264582E+02  0.12806786853E+01  0.46105803392E+02  0.47264078382E+02  0.00000000000E+00 0. -1.
         -5    1    3    3    0  503  0.47802644695E+01  0.20318899271E+02 -0.12458437564E+03  0.12640832745E+03  0.47000000000E+01 0.  1.
         11    1    4    4    0    0  0.74465091402E+02 -0.41546566896E+02 -0.10554191521E+02  0.85921813395E+02  0.00000000000E+00 0. -1.
        -12    1    4    4    0    0 -0.79705349509E+01  0.19623091997E+02 -0.89756670228E+01  0.23003429427E+02  0.00000000000E+00 0.  1.
</event>
<event>
12    1  0.8417180E-002  0.1761823E+03  0.7818608E-02  0.1172243E+00
         21   -1    0    0  503  502  0.00000000000E+00  0.00000000000E+00  0.26101669403E+03  0.26101669403E+03  0.00000000000E+00 0. -1.
         21   -1    0    0  501  503 -0.00000000000E+00 -0.00000000000E+00 -0.14007097873E+03  0.14007097873E+03  0.00000000000E+00 0. -1.
          6    2    1    2  501    0  0.15753917197E+02 -0.21198097998E+02  0.14214577770E+03  0.22637498469E+03  0.17419146451E+03 0.  0.
         24    2    3    3    0    0 -0.20572252710E+02  0.24918785865E+02  0.15531189730E+02  0.86733653114E+02  0.78976865331E+02 0.  0.
         -6    2    1    2    0  502 -0.15753917197E+02  0.21198097998E+02 -0.21200062404E+02  0.17471268807E+03  0.17139876155E+03 0.  0.
        -24    2    5    5    0    0  0.37115649160E+01  0.78011656508E+01 -0.78684591016E+02  0.11238337057E+03  0.79775454987E+02 0.  0.
          5    1    3    3  501    0  0.36326169907E+02 -0.46116883863E+02  0.12661458797E+03  0.13964133158E+03  0.47000000000E+01 0. -1.
        -13    1    4    4    0    0 -0.27705276631E+02 -0.15825541932E+01 -0.25289293385E+02  0.37545108748E+02  0.00000000000E+00 0.  1.
         14    1    4    4    0    0  0.71330239209E+01  0.26501340058E+02  0.40820483115E+02  0.49188544366E+02  0.00000000000E+00 0. -1.
         -5    1    5    5    0  502 -0.19465482113E+02  0.13396932347E+02  0.57484528612E+02  0.62329317499E+02  0.47000000000E+01 0.  1.
         11    1    6    6    0    0  0.17813785107E+02 -0.25484951617E+02 -0.67864608298E+02  0.74648635340E+02  0.00000000000E+00 0. -1.
        -12    1    6    6    0    0 -0.14102220191E+02  0.33286117268E+02 -0.10819982718E+02  0.37734735233E+02  0.00000000000E+00 0.  1.
</event>
<event>
12    1  0.8417180E-002  0.1843357E+03  0.7818608E-02  0.1163678E+00
         21   -1    0    0  503  502  0.00000000000E+00  0.00000000000E+00  0.13975194318E+03  0.13975194318E+03  0.00000000000E+00 0.  1.
         21   -1    0    0  501  503 -0.00000000000E+00 -0.00000000000E+00 -0.62719441813E+03  0.62719441813E+03  0.00000000000E+00 0.  1.
          6    2    1    2  501    0  0.40629180789E+02  0.46153574263E+02 -0.54381679797E+03  0.57420934881E+03  0.17377797258E+03 0.  0.
         24    2    3    3    0    0 -0.39771349133E+02  0.56242801949E+02 -0.29929822682E+03  0.31657111530E+03  0.76764767192E+02 0.  0.
         -6    2    1    2    0  502 -0.40629180789E+02 -0.46153574263E+02  0.56374323026E+02  0.19273701250E+03  0.17374869480E+03 0.  0.
        -24    2    5    5    0    0 -0.53112542763E+02 -0.82598995773E+02 -0.86229659691E+01  0.11703469648E+03  0.63081125037E+02 0.  0.
          5    1    3    3  501    0  0.80400529922E+02 -0.10089227686E+02 -0.24451857116E+03  0.25763823351E+03  0.47000000000E+01 0. -1.
        -11    1    4    4    0    0 -0.12898304899E+02  0.59514353704E+02 -0.11343876994E+03  0.12875045278E+03  0.00000000000E+00 0.  1.
         12    1    4    4    0    0 -0.26873044235E+02 -0.32715517549E+01 -0.18585945687E+03  0.18782066251E+03  0.00000000000E+00 0. -1.
         -5    1    5    5    0  502  0.12483361975E+02  0.36445421509E+02  0.64997288995E+02  0.75702316027E+02  0.47000000000E+01 0.  1.
         11    1    6    6    0    0 -0.48426025102E+02 -0.55054380786E+02  0.21043994423E+02  0.76281809445E+02  0.00000000000E+00 0. -1.
        -12    1    6    6    0    0 -0.46865176613E+01 -0.27544614987E+02 -0.29666960392E+02  0.40752887032E+02  0.00000000000E+00 0.  1.
</event>
<event>
12    1  0.8417180E-002  0.1942918E+03  0.7818608E-02  0.1154836E+00
         21   -1    0    0  503  502  0.00000000000E+00  0.00000000000E+00  0.77770508728E+02  0.77770508728E+02  0.00000000000E+00 0.  1.
         21   -1    0    0  501  503 -0.00000000000E+00 -0.00000000000E+00 -0.63554951065E+03  0.63554951065E+03  0.00000000000E+00 0. -1.
          6    2    1    2  501    0 -0.47855597107E+02 -0.83403542370E+02 -0.45301929277E+03  0.49258507519E+03  0.16783106871E+03 0.  0.
         24    2    3    3    0    0 -0.45268611055E+02 -0.86891732792E+01 -0.12022170804E+03  0.15146156113E+03  0.79765885790E+02 0.  0.
         -6    2    1    2    0  502  0.47855597107E+02  0.83403542370E+02 -0.10475970915E+03  0.22073494419E+03  0.16882834439E+03 0.  0.
        -24    2    5    5    0    0 -0.36545618716E+02  0.43238712653E+02 -0.66209242628E+02  0.11951732098E+03  0.81826387463E+02 0.  0.
          5    1    3    3  501    0 -0.25869860518E+01 -0.74714369091E+02 -0.33279758473E+03  0.34112351406E+03  0.47000000000E+01 0. -1.
        -11    1    4    4    0    0 -0.60742938700E+02 -0.88672437941E+01 -0.12130008834E+03  0.13594868167E+03  0.00000000000E+00 0.  1.
         12    1    4    4    0    0  0.15474327645E+02  0.17807051492E+00  0.10783803017E+01  0.15512879463E+02  0.00000000000E+00 0. -1.
         -5    1    5    5    0  502  0.84401215823E+02  0.40164829717E+02 -0.38550466522E+02  0.10121762321E+03  0.47000000000E+01 0.  1.
         13    1    6    6    0    0 -0.39088494224E+02  0.53538804064E+02 -0.15991640932E+02  0.68191249446E+02  0.00000000000E+00 0. -1.
        -14    1    6    6    0    0  0.25428755078E+01 -0.10300091411E+02 -0.50217601696E+02  0.51326071533E+02  0.00000000000E+00 0.  1.
</event>
<event>
12    1  0.8417180E-002  0.2181336E+03  0.7818608E-02  0.1135474E+00
         21   -1    0    0  501  502  0.00000000000E+00  0.00000000000E+00  0.27183271133E+03  0.27183271133E+03  0.00000000000E+00 0.  1.
         21   -1    0    0  502  503 -0.00000000000E+00 -0.00000000000E+00 -0.18215662543E+03  0.18215662543E+03  0.00000000000E+00 0.  1.
         -6    2    1    2    0  503  0.13180040002E+03 -0.24118664612E+02 -0.26227569705E+01  0.21713215472E+03  0.17084038846E+03 0.  0.
        -24    2    3    3    0    0  0.62652917896E+02 -0.49859268274E+01 -0.66527534862E+02  0.12093783796E+03  0.79055677644E+02 0.  0.
          6    2    1    2  501    0 -0.13180040002E+03  0.24118664612E+02  0.92298842870E+02  0.23685718204E+03  0.17213132446E+03 0.  0.
         24    2    5    5    0    0 -0.72047263904E+02 -0.76431529917E+00 -0.18434966042E+02  0.10850740058E+03  0.79010224612E+02 0.  0.
          5    1    5    5  501    0 -0.59753136120E+02  0.24882979912E+02  0.11073380891E+03  0.12834978146E+03  0.47000000000E+01 0. -1.
        -11    1    6    6    0    0 -0.39619518788E+02 -0.17357224021E+02  0.26450314641E+02  0.50701071382E+02  0.00000000000E+00 0.  1.
         12    1    6    6    0    0 -0.32427745116E+02  0.16592908722E+02 -0.44885280682E+02  0.57806329196E+02  0.00000000000E+00 0. -1.
         -5    1    3    3    0  503  0.69147482127E+02 -0.19132737785E+02  0.63904777892E+02  0.96194316761E+02  0.47000000000E+01 0.  1.
         13    1    4    4    0    0  0.42212559718E+02 -0.76843313488E+01  0.79697021204E+01  0.43640179859E+02  0.00000000000E+00 0. -1.
        -14    1    4    4    0    0  0.20440358178E+02  0.26984045214E+01 -0.74497236983E+02  0.77297658098E+02  0.00000000000E+00 0.  1.
</event>
<event>
12    1  0.8417180E-002  0.1742968E+03  0.7818608E-02  0.1173875E+00
         21   -1    0    0  503  502  0.00000000000E+00  0.00000000000E+00  0.29385840777E+02  0.29385840777E+02  0.00000000000E+00 0.  1.
         21   -1    0    0  501  503 -0.00000000000E+00 -0.00000000000E+00 -0.11005564617E+04  0.11005564617E+04  0.00000000000E+00 0.  1.
          6    2    1    2  501    0  0.22318676153E+02 -0.77296973510E+01 -0.68738571239E+03  0.70913925195E+03  0.17268899658E+03 0.  0.
         24    2    3    3    0    0  0.77026554264E+02 -0.18995293809E+02 -0.54539131539E+03  0.55648158143E+03  0.76981506337E+02 0.  0.
         -6    2    1    2    0  502 -0.22318676153E+02  0.77296973510E+01 -0.38378490858E+03  0.42080305057E+03  0.17095753797E+03 0.  0.
        -24    2    5    5    0    0  0.16593278800E+02 -0.51605220676E+02 -0.19395515135E+03  0.21809094075E+03  0.83705567325E+02 0.  0.
          5    1    3    3  501    0 -0.54707878111E+02  0.11265596458E+02 -0.14199439699E+03  0.15265767052E+03  0.47000000000E+01 0. -1.
        -11    1    4    4    0    0 -0.54726333068E+01  0.16015309174E+02 -0.15572481056E+03  0.15664180945E+03  0.00000000000E+00 0.  1.
         12    1    4    4    0    0  0.82499187571E+02 -0.35010602983E+02 -0.38966650484E+03  0.39983977199E+03  0.00000000000E+00 0. -1.
         -5    1    5    5    0  502 -0.38911954953E+02  0.59334918027E+02 -0.18982975724E+03  0.20271210982E+03  0.47000000000E+01 0.  1.
         11    1    6    6    0    0 -0.33166654155E+02 -0.32452790977E+02 -0.91186017190E+02  0.10231373476E+03  0.00000000000E+00 0. -1.
        -12    1    6    6    0    0  0.49759932955E+02 -0.19152429698E+02 -0.10276913416E+03  0.11577720599E+03  0.00000000000E+00 0.  1.
</event>
<event>
12    1  0.8417180E-002  0.1789841E+03  0.7818608E-02  0.1168805E+00
         21   -1    0    0  503  502  0.00000000000E+00  0.00000000000E+00  0.45927744631E+03  0.45927744631E+03  0.00000000000E+00 0.  1.
         21   -1    0    0  501  503 -0.00000000000E+00 -0.00000000000E+00 -0.11167130748E+03  0.11167130748E+03  0.00000000000E+00 0.  1.
          6    2    1    2  501    0 -0.30195440725E+02  0.41367424985E+02 -0.11353937162E+01  0.17898765445E+03  0.17150003742E+03 0.  0.
         24    2    3    3    0    0 -0.34546545808E+02  0.91530029901E+02 -0.16699108555E+02  0.12607699137E+03  0.77751767351E+02 0.  0.
         -6    2    1    2    0  502  0.30195440725E+02 -0.41367424985E+02  0.34874153255E+03  0.39196109934E+03  0.17143458922E+03 0.  0.
        -24    2    5    5    0    0  0.29615195645E+02  0.20352075988E+02  0.82963938845E+02  0.11907018194E+03  0.77481780232E+02 0.  0.
          5    1    3    3  501    0  0.43511050821E+01 -0.50162604916E+02  0.15563714839E+02  0.52910663074E+02  0.47000000000E+01 0. -1.
        -11    1    4    4    0    0 -0.38323764269E+02  0.57698334657E+01 -0.73972501528E+00  0.38762727962E+02  0.00000000000E+00 0.  1.
         12    1    4    4    0    0  0.37772184618E+01  0.85760196435E+02 -0.15959383540E+02  0.87314263411E+02  0.00000000000E+00 0. -1.
         -5    1    5    5    0  502  0.58024508037E+00 -0.61719500973E+02  0.26577759370E+03  0.27289091740E+03  0.47000000000E+01 0.  1.
         11    1    6    6    0    0  0.93691926053E+01 -0.19586836253E+02 -0.32183931042E+01  0.21949578098E+02  0.00000000000E+00 0. -1.
        -12    1    6    6    0    0  0.20246003040E+02  0.39938912241E+02  0.86182331950E+02  0.97120603841E+02  0.00000000000E+00 0.  1.
</event>
<event>
12    1  0.8417180E-002  0.2004569E+03  0.7818608E-02  0.1149546E+00
         21   -1    0    0  503  502  0.00000000000E+00  0.00000000000E+00  0.47595542608E+02  0.47595542608E+02  0.00000000000E+00 0. -1.
         21   -1    0    0  501  503 -0.00000000000E+00 -0.00000000000E+00 -0.96021913607E+03  0.96021913607E+03  0.00000000000E+00 0. -1.
          6    2    1    2  501    0 -0.86945361985E+02  0.54128269782E+02 -0.63338845177E+03  0.66407751055E+03  0.17125607617E+03 0.  0.
         24    2    3    3    0    0 -0.27761990309E+02 -0.21371766900E+02 -0.15883455605E+03  0.17990149197E+03  0.76867744162E+02 0.  0.
         -6    2    1    2    0  502  0.86945361985E+02 -0.54128269782E+02 -0.27923514169E+03  0.34373716812E+03  0.17231834155E+03 0.  0.
        -24    2    5    5    0    0  0.10960890437E+03 -0.86547108016E+02 -0.20954431867E+03  0.26346564117E+03  0.77464887328E+02 0.  0.
          5    1    3    3  501    0 -0.59183371676E+02  0.75500036682E+02 -0.47455389573E+03  0.48417601858E+03  0.47000000000E+01 0. -1.
        -13    1    4    4    0    0 -0.41456094356E+02 -0.41789291679E+02 -0.98470683747E+02  0.11472326798E+03  0.00000000000E+00 0.  1.
         14    1    4    4    0    0  0.13694104047E+02  0.20417524779E+02 -0.60363872299E+02  0.65178223991E+02  0.00000000000E+00 0. -1.
         -5    1    5    5    0  502 -0.22663542385E+02  0.32418838235E+02 -0.69690823017E+02  0.80271526949E+02  0.47000000000E+01 0.  1.
         11    1    6    6    0    0  0.49218810604E+02 -0.78817124130E+02 -0.15976478246E+03  0.18482266119E+03  0.00000000000E+00 0. -1.
        -12    1    6    6    0    0  0.60390093765E+02 -0.77299838863E+01 -0.49779536209E+02  0.78642979986E+02  0.00000000000E+00 0.  1.
</event>
<event>
12    1  0.8417180E-002  0.1788824E+03  0.7818608E-02  0.1169164E+00
         21   -1    0    0  503  502  0.00000000000E+00  0.00000000000E+00  0.38593949526E+03  0.38593949526E+03  0.00000000000E+00 0. -1.
         21   -1    0    0  501  503 -0.00000000000E+00 -0.00000000000E+00 -0.10947947268E+03  0.10947947268E+03  0.00000000000E+00 0. -1.
          6    2    1    2  501    0  0.83337893844E+01  0.46474624813E+02  0.14689018608E+02  0.17836536267E+03  0.17137413030E+03 0.  0.
         24    2    3    3    0    0  0.37240764809E+02  0.30307634042E+02  0.68373944871E+02  0.11511074919E+03  0.79183716742E+02 0.  0.
         -6    2    1    2    0  502 -0.83337893844E+01 -0.46474624813E+02  0.26177100397E+03  0.31705360527E+03  0.17253865451E+03 0.  0.
        -24    2    5    5    0    0  0.38841421185E+02 -0.30793017485E+02  0.24632716097E+03  0.26478491878E+03  0.83529138979E+02 0.  0.
          5    1    3    3  501    0 -0.28906975424E+02  0.16166990771E+02 -0.53684926263E+02  0.63254613481E+02  0.47000000000E+01 0. -1.
        -13    1    4    4    0    0  0.33312637445E+02 -0.65701215191E+00 -0.65396333014E+01  0.33954827083E+02  0.00000000000E+00 0.  1.
         14    1    4    4    0    0  0.39281273639E+01  0.30964646194E+02  0.74913578172E+02  0.81155922107E+02  0.00000000000E+00 0. -1.
         -5    1    5    5    0  502 -0.47175210569E+02 -0.15681607328E+02  0.15443842998E+02  0.52268686487E+02  0.47000000000E+01 0.  1.
         13    1    6    6    0    0  0.31181837853E+02  0.23566364451E+02  0.70783667253E+02  0.80857950104E+02  0.00000000000E+00 0. -1.
        -14    1    6    6    0    0  0.76595833317E+01 -0.54359381937E+02  0.17554349372E+03  0.18392696868E+03  0.00000000000E+00 0.  1.
</event>
<event>
12    1  0.8417180E-002  0.1749496E+03  0.7818608E-02  0.1172825E+00
         21   -1    0    0  501  502  0.00000000000E+00  0.00000000000E+00  0.93533804924E+02  0.93533804924E+02  0.00000000000E+00 0. -1.
         21   -1    0    0  502  503 -0.00000000000E+00 -0.00000000000E+00 -0.10377187056E+04  0.10377187056E+04  0.00000000000E+00 0. -1.
         -6    2    1    2    0  503  0.15878943245E+02  0.27542562738E+02 -0.94014778230E+03  0.95625633860E+03  0.17186506026E+03 0.  0.
        -24    2    3    3    0    0  0.30928406991E+02  0.80258777546E+02 -0.71162011229E+03  0.72119789560E+03  0.79531017035E+02 0.  0.
          6    2    1    2  501    0 -0.15878943245E+02 -0.27542562738E+02 -0.40371183870E+01  0.17499617194E+03  0.17203670617E+03 0.  0.
         24    2    5    5    0    0  0.49768346353E+02  0.16428560887E+01 -0.25490462875E+02  0.99871666662E+02  0.82734508093E+02 0.  0.
          5    1    5    5  501    0 -0.65647289599E+02 -0.29185418827E+02  0.21453344488E+02  0.75124505280E+02  0.47000000000E+01 0. -1.
        -11    1    6    6    0    0 -0.47072389002E+00  0.18578345566E+02 -0.40678200103E+02  0.44722393368E+02  0.00000000000E+00 0.  1.
         12    1    6    6    0    0  0.50239070243E+02 -0.16935489477E+02  0.15187737228E+02  0.55149273294E+02  0.00000000000E+00 0. -1.
         -5    1    3    3    0  503 -0.15049463746E+02 -0.52716214807E+02 -0.22852767001E+03  0.23505844300E+03  0.47000000000E+01 0.  1.
         11    1    4    4    0    0 -0.12766901323E+02  0.48236746615E+02 -0.50971750590E+03  0.51215399375E+03  0.00000000000E+00 0. -1.
        -12    1    4    4    0    0  0.43695308315E+02  0.32022030931E+02 -0.20190260639E+03  0.20904390185E+03  0.00000000000E+00 0.  1.
</event>
<event>
12    1  0.8417180E-002  0.1990609E+03  0.7818608E-02  0.1150717E+00
         21   -1    0    0  503  502  0.00000000000E+00  0.00000000000E+00  0.33064132545E+03  0.33064132545E+03  0.00000000000E+00 0.  1.
         21   -1    0    0  501  503 -0.00000000000E+00 -0.00000000000E+00 -0.13156377667E+03  0.13156377667E+03  0.00000000000E+00 0. -1.
          6    2    1    2  501    0 -0.79234737000E+02 -0.59237540245E+02  0.28860827796E+02  0.20029108091E+03  0.17174498534E+03 0.  0.
         24    2    3    3    0    0 -0.53247785054E+01 -0.46960740074E+02  0.75220264944E+02  0.11206019516E+03  0.68306183515E+02 0.  0.
         -6    2    1    2    0  502  0.79234737000E+02  0.59237540245E+02  0.17021672098E+03  0.26191402121E+03  0.17273677282E+03 0.  0.
        -24    2    5    5    0    0  0.26422447875E+02 -0.14020169876E+02  0.19721826201E+02  0.86338871118E+02  0.78554053506E+02 0.  0.
          5    1    3    3  501    0 -0.73909958494E+02 -0.12276800170E+02 -0.46359437148E+02  0.88230885747E+02  0.47000000000E+01 0. -1.
        -11    1    4    4    0    0 -0.35106318171E+02 -0.17296235649E+02  0.24443946165E+02  0.46142386667E+02  0.00000000000E+00 0.  1.
         12    1    4    4    0    0  0.29781539666E+02 -0.29664504425E+02  0.50776318779E+02  0.65917808492E+02  0.00000000000E+00 0. -1.
         -5    1    5    5    0  502  0.52812289125E+02  0.73257710120E+02  0.15049489478E+03  0.17557515009E+03  0.47000000000E+01 0.  1.
         11    1    6    6    0    0 -0.76902884280E+01  0.26262740191E+02 -0.53779646168E+01  0.27888968462E+02  0.00000000000E+00 0. -1.
        -12    1    6    6    0    0  0.34112736303E+02 -0.40282910067E+02  0.25099790818E+02  0.58449902657E+02  0.00000000000E+00 0.  1.
</event>
<event>
12    1  0.8417180E-002  0.2473254E+03  0.7818608E-02  0.1115021E+00
         21   -1    0    0  503  502  0.00000000000E+00  0.00000000000E+00  0.57906792351E+03  0.57906792351E+03  0.00000000000E+00 0. -1.
         21   -1    0    0  501  503 -0.00000000000E+00 -0.00000000000E+00 -0.12121844694E+03  0.12121844694E+03  0.00000000000E+00 0.  1.
          6    2    1    2  501    0 -0.11946972610E+03  0.13143043102E+03  0.10319557342E+03  0.26791008627E+03  0.17198695968E+03 0.  0.
         24    2    3    3    0    0 -0.10577215950E+03  0.10355569632E+03  0.72816867544E+01  0.16698344053E+03  0.76934481766E+02 0.  0.
         -6    2    1    2    0  502  0.11946972610E+03 -0.13143043102E+03  0.35465390315E+03  0.43237628418E+03  0.17211300488E+03 0.  0.
        -24    2    5    5    0    0  0.82543793822E+02 -0.16341701658E+03  0.30367178414E+03  0.36160953642E+03  0.70896439509E+02 0.  0.
          5    1    3    3  501    0 -0.13697566605E+02  0.27874734702E+02  0.95913886666E+02  0.10092664574E+03  0.47000000000E+01 0. -1.
        -11    1    4    4    0    0 -0.47932934586E+02  0.62827045224E+02 -0.32932427907E+02  0.85611615085E+02  0.00000000000E+00 0.  1.
         12    1    4    4    0    0 -0.57839224911E+02  0.40728651093E+02  0.40214114661E+02  0.81371825444E+02  0.00000000000E+00 0. -1.
         -5    1    5    5    0  502  0.36925932279E+02  0.31986585565E+02  0.50982119010E+02  0.70766747767E+02  0.47000000000E+01 0.  1.
         13    1    6    6    0    0  0.47429846985E+02 -0.32266419178E+02  0.12196353830E+03  0.13478062496E+03  0.00000000000E+00 0. -1.
        -14    1    6    6    0    0  0.35113946837E+02 -0.13115059741E+03  0.18170824584E+03  0.22682891145E+03  0.00000000000E+00 0.  1.
</event>
<event>
12    1  0.8417180E-002  0.2115152E+03  0.7818608E-02  0.1140448E+00
         21   -1    0    0  501  502  0.00000000000E+00  0.00000000000E+00  0.77544186490E+02  0.77544186490E+02  0.00000000000E+00 0. -1.
         21   -1    0    0  502  503 -0.00000000000E+00 -0.00000000000E+00 -0.65960267112E+03  0.65960267112E+03  0.00000000000E+00 0. -1.
         -6    2    1    2    0  503  0.10443373238E+03 -0.62641632165E+02 -0.15995257471E+03  0.26518576783E+03  0.17294012479E+03 0.  0.
        -24    2    3    3    0    0  0.19275534255E+02 -0.29928108656E+02 -0.98738444273E+01  0.89493398584E+02  0.81512806833E+02 0.  0.
          6    2    1    2  501    0 -0.10443373238E+03  0.62641632165E+02 -0.42210590993E+03  0.47196108978E+03  0.17246301788E+03 0.  0.
         24    2    5    5    0    0 -0.92551277192E+02  0.95600907596E+02 -0.23456149760E+03  0.28111428427E+03  0.79378033637E+02 0.  0.
          5    1    5    5  501    0 -0.11882455187E+02 -0.32959275431E+02 -0.18754441233E+03  0.19084680551E+03  0.47000000000E+01 0. -1.
        -13    1    6    6    0    0 -0.15301177991E+02  0.56097956319E+02 -0.48132913163E+02  0.75484330034E+02  0.00000000000E+00 0.  1.
         14    1    6    6    0    0 -0.77250099202E+02  0.39502951277E+02 -0.18642858443E+03  0.20562995424E+03  0.00000000000E+00 0. -1.
         -5    1    3    3    0  503  0.85158198125E+02 -0.32713523509E+02 -0.15007873028E+03  0.17569236924E+03  0.47000000000E+01 0.  1.
         13    1    4    4    0    0 -0.27336543803E+02 -0.70020842700E+01  0.14935549742E+02  0.31927832017E+02  0.00000000000E+00 0. -1.
        -14    1    4    4    0    0  0.46612078058E+02 -0.22926024386E+02 -0.24809394170E+02  0.57565566566E+02  0.00000000000E+00 0.  1.
</event>
<event>
12    1  0.8417180E-002  0.1823026E+03  0.7818608E-02  0.1165703E+00
         21   -1    0    0  503  502  0.00000000000E+00  0.00000000000E+00  0.64440066669E+02  0.64440066669E+02  0.00000000000E+00 0. -1.
         21   -1    0    0  501  503 -0.00000000000E+00 -0.00000000000E+00 -0.57620045294E+03  0.57620045294E+03  0.00000000000E+00 0. -1.
          6    2    1    2  501    0 -0.99227766562E+01 -0.55445466972E+02 -0.15072090374E+03  0.23618564478E+03  0.17289941200E+03 0.  0.
         24    2    3    3    0    0  0.20055550503E+02 -0.58107502714E+02 -0.17550938972E+03  0.19691293707E+03  0.64749146154E+02 0.  0.
         -6    2    1    2    0  502  0.99227766562E+01  0.55445466972E+02 -0.36103948253E+03  0.40445487483E+03  0.17338274576E+03 0.  0.
        -24    2    5    5    0    0  0.55118654473E+02  0.71384893538E+02 -0.17116700485E+03  0.20857128575E+03  0.77910003172E+02 0.  0.
          5    1    3    3  501    0 -0.29978327160E+02  0.26620357421E+01  0.24788485978E+02  0.39272707708E+02  0.47000000000E+01 0. -1.
        -11    1    4    4    0    0  0.26416445953E+02 -0.65205719476E+02 -0.10905877127E+03  0.12978224092E+03  0.00000000000E+00 0.  1.
         12    1    4    4    0    0 -0.63608954500E+01  0.70982167616E+01 -0.66450618451E+02  0.67130696143E+02  0.00000000000E+00 0. -1.
         -5    1    5    5    0  502 -0.45195877817E+02 -0.15939426566E+02 -0.18987247768E+03  0.19588358908E+03  0.47000000000E+01 0.  1.
         11    1    6    6    0    0 -0.57626997420E+01  0.13979652950E+02 -0.92480404951E+02  0.93708402530E+02  0.00000000000E+00 0. -1.
        -12    1    6    6    0    0  0.60881354215E+02  0.57405240588E+02 -0.78686599898E+02  0.11486288322E+03  0.00000000000E+00 0.  1.
</event>
<event>
12    1  0.8417180E-002  0.3934311E+03  0.7818608E-02  0.1046331E+00
         21   -1    0    0  503  502  0.00000000000E+00  0.00000000000E+00  0.71599464389E+03  0.71599464389E+03  0.00000000000E+00 0.  1.
         21   -1    0    0  501  503 -0.00000000000E+00 -0.00000000000E+00 -0.32245818186E+03  0.32245818186E+03  0.00000000000E+00 0.  1.
          6    2    1    2  501    0 -0.19174735534E+03 -0.29733706433E+03  0.49654933282E+03  0.63175926611E+03  0.16547553382E+03 0.  0.
         24    2    3    3    0    0 -0.11424934545E+03 -0.15459798759E+03  0.37464782071E+03  0.42862764814E+03  0.80045115305E+02 0.  0.
         -6    2    1    2    0  502  0.19174735534E+03  0.29733706433E+03 -0.10301287079E+03  0.40669355963E+03  0.17208027718E+03 0.  0.
        -24    2    5    5    0    0  0.49842184163E+02  0.46740098332E+02 -0.41021893399E+02  0.11207365492E+03  0.78796118401E+02 0.  0.
          5    1    3    3  501    0 -0.77498009892E+02 -0.14273907674E+03  0.12190151211E+03  0.20313161797E+03  0.47000000000E+01 0. -1.
        -11    1    4    4    0    0 -0.11565843387E+03 -0.11346892495E+03  0.25520429725E+03  0.30229340646E+03  0.00000000000E+00 0.  1.
         12    1    4    4    0    0  0.14090884246E+01 -0.41129062639E+02  0.11944352346E+03  0.12633424168E+03  0.00000000000E+00 0. -1.
         -5    1    5    5    0  502  0.14190517117E+03  0.25059696600E+03 -0.61990977388E+02  0.29461990471E+03  0.47000000000E+01 0.  1.
         13    1    6    6    0    0  0.65621192809E+02  0.13151663659E+02 -0.22570589244E+02  0.70629588003E+02  0.00000000000E+00 0. -1.
        -14    1    6    6    0    0 -0.15779008647E+02  0.33588434673E+02 -0.18451304155E+02  0.41444066917E+02  0.00000000000E+00 0.  1.
</event>
<event>
12    1  0.8417180E-002  0.1752120E+03  0.7818608E-02  0.1172744E+00
         21   -1    0    0  501  502  0.00000000000E+00  0.00000000000E+00  0.55108216390E+03  0.55108216390E+03  0.00000000000E+00 0. -1.
         21   -1    0    0  502  503 -0.00000000000E+00 -0.00000000000E+00 -0.81216805796E+02  0.81216805796E+02  0.00000000000E+00 0.  1.
         -6    2    1    2    0  503 -0.27866224664E+02  0.19966077809E+02  0.56355279265E+02  0.18320007137E+03  0.17091277866E+03 0.  0.
        -24    2    3    3    0    0 -0.53941958934E+02  0.13457961854E+02  0.95071611271E+02  0.13583612036E+03  0.79510934182E+02 0.  0.
          6    2    1    2  501    0  0.27866224664E+02 -0.19966077809E+02  0.41351007884E+03  0.44909889832E+03  0.17182568037E+03 0.  0.
         24    2    5    5    0    0  0.73958381250E+02 -0.23755953830E+02  0.36612578310E+03  0.38271959778E+03  0.79950071729E+02 0.  0.
          5    1    5    5  501    0 -0.46092156586E+02  0.37898760204E+01  0.47384295735E+02  0.66379300548E+02  0.47000000000E+01 0. -1.
        -13    1    6    6    0    0 -0.91269412097E+01  0.12626752075E+02  0.22800318103E+02  0.27615039913E+02  0.00000000000E+00 0.  1.
         14    1    6    6    0    0  0.83085322460E+02 -0.36382705905E+02  0.34332546500E+03  0.35510455786E+03  0.00000000000E+00 0. -1.
         -5    1    3    3    0  503  0.26075734270E+02  0.65081159551E+01 -0.38716332007E+02  0.47363951008E+02  0.47000000000E+01 0.  1.
         11    1    4    4    0    0 -0.32797639562E+02 -0.30862075869E+02  0.29191543913E+02  0.53668418310E+02  0.00000000000E+00 0. -1.
        -12    1    4    4    0    0 -0.21144319372E+02  0.44320037724E+02  0.65880067358E+02  0.82167702053E+02  0.00000000000E+00 0.  1.
</event>
<event>
12    1  0.8417180E-002  0.2880560E+03  0.7818608E-02  0.1092163E+00
         21   -1    0    0  501  502  0.00000000000E+00  0.00000000000E+00  0.31302682130E+03  0.31302682130E+03  0.00000000000E+00 0. -1.
         21   -1    0    0  502  503 -0.00000000000E+00 -0.00000000000E+00 -0.39646476953E+03  0.39646476953E+03  0.00000000000E+00 0.  1.
         -6    2    1    2    0  503 -0.21527303119E+03 -0.84413723876E+02 -0.24984272674E+03  0.37682533595E+03  0.16157905487E+03 0.  0.
        -24    2    3    3    0    0 -0.51700005915E+02  0.20149556772E+01 -0.75495374166E+02  0.12257124926E+03  0.81530417437E+02 0.  0.
          6    2    1    2  501    0  0.21527303119E+03  0.84413723876E+02  0.16640477851E+03  0.33266625488E+03  0.17177931217E+03 0.  0.
         24    2    5    5    0    0  0.13792077190E+03  0.22504080942E+02  0.16939357910E+03  0.23343320175E+03  0.79172609276E+02 0.  0.
          5    1    5    5  501    0  0.77352259286E+02  0.61909642934E+02 -0.29888005848E+01  0.99233053132E+02  0.47000000000E+01 0. -1.
        -13    1    6    6    0    0  0.33693893778E+02 -0.72819803026E+01  0.97359175186E+02  0.10328172495E+03  0.00000000000E+00 0.  1.
         14    1    6    6    0    0  0.10422687812E+03  0.29786061244E+02  0.72034403913E+02  0.13015147680E+03  0.00000000000E+00 0. -1.
         -5    1    3    3    0  503 -0.16357302527E+03 -0.86428679553E+02 -0.17434735257E+03  0.25425408668E+03  0.47000000000E+01 0.  1.
         13    1    4    4    0    0  0.13742947629E+02 -0.21647288854E+02 -0.29833923664E+02  0.39338743313E+02  0.00000000000E+00 0. -1.
        -14    1    4    4    0    0 -0.65442953544E+02  0.23662244532E+02 -0.45661450502E+02  0.83232505950E+02  0.00000000000E+00 0.  1.
</event>
<event>
12    1  0.8417180E-002  0.1837869E+03  0.7818608E-02  0.1164661E+00
         21   -1    0    0  503  502  0.00000000000E+00  0.00000000000E+00  0.97087710073E+02  0.97087710073E+02  0.00000000000E+00 0. -1.
         21   -1    0    0  501  503 -0.00000000000E+00 -0.00000000000E+00 -0.34475065510E+03  0.34475065510E+03  0.00000000000E+00 0.  1.
          6    2    1    2  501    0 -0.56646310057E+02 -0.18283094040E+02 -0.11383822643E+03  0.21449130479E+03  0.17176816370E+03 0.  0.
         24    2    3    3    0    0 -0.76218805459E+02  0.30363450313E+02 -0.10781565076E+03  0.16150139752E+03  0.87904729297E+02 0.  0.
         -6    2    1    2    0  502  0.56646310057E+02  0.18283094040E+02 -0.13382471859E+03  0.22734706038E+03  0.17388086320E+03 0.  0.
        -24    2    5    5    0    0 -0.10776729188E+02  0.70474280031E+02 -0.47471341355E+02  0.10590249741E+03  0.62282009196E+02 0.  0.
          5    1    3    3  501    0  0.19572495402E+02 -0.48646544354E+02 -0.60225756702E+01  0.52989907261E+02  0.47000000000E+01 0. -1.
        -13    1    4    4    0    0 -0.27251599489E+02 -0.27345899546E+02 -0.14238229712E+02  0.41148208734E+02  0.00000000000E+00 0.  1.
         14    1    4    4    0    0 -0.48967205970E+02  0.57709349859E+02 -0.93577421050E+02  0.12035318879E+03  0.00000000000E+00 0. -1.
         -5    1    5    5    0  502  0.67423039245E+02 -0.52191185990E+02 -0.86353377236E+02  0.12144456297E+03  0.47000000000E+01 0.  1.
         13    1    6    6    0    0  0.12987639551E+02  0.40075369789E+02 -0.52143975820E+02  0.67035127053E+02  0.00000000000E+00 0. -1.
        -14    1    6    6    0    0 -0.23764368739E+02  0.30398910242E+02  0.46726344650E+01  0.38867370355E+02  0.00000000000E+00 0.  1.
</event>
<event>
12    1  0.8417180E-002  0.1800028E+03  0.7818608E-02  0.1168252E+00
         21   -1    0    0  503  502  0.00000000000E+00  0.00000000000E+00  0.16221083985E+04  0.16221083985E+04  0.00000000000E+00 0.  1.
         21   -1    0    0  501  503 -0.00000000000E+00 -0.00000000000E+00 -0.35934673729E+02  0.35934673729E+02  0.00000000000E+00 0.  1.
          6    2    1    2  501    0 -0.55216075366E+01  0.46924395930E+02  0.23479767053E+03  0.29473157745E+03  0.17176836023E+03 0.  0.
         24    2    3    3    0    0  0.35588327292E+02 -0.25687002196E+02  0.92740596716E+02  0.12991427223E+03  0.79690330205E+02 0.  0.
         -6    2    1    2    0  502  0.55216075366E+01 -0.46924395930E+02  0.13513760542E+04  0.13633114947E+04  0.17369111877E+03 0.  0.
        -24    2    5    5    0    0 -0.52301529026E+02 -0.21578885632E+02  0.55103463858E+03  0.56047005238E+03  0.85360461893E+02 0.  0.
          5    1    3    3  501    0 -0.41109934829E+02  0.72611398126E+02  0.14205707381E+03  0.16481730522E+03  0.47000000000E+01 0. -1.
        -13    1    4    4    0    0  0.40648294094E+02  0.42489713448E+01  0.10425342749E+02  0.42178493829E+02  0.00000000000E+00 0.  1.
         14    1    4    4    0    0 -0.50599668011E+01 -0.29935973541E+02  0.82315253967E+02  0.87735778400E+02  0.00000000000E+00 0. -1.
         -5    1    5    5    0  502  0.57823136563E+02 -0.25345510298E+02  0.80034141563E+03  0.80284144237E+03  0.47000000000E+01 0.  1.
         13    1    6    6    0    0 -0.22410621616E+02  0.23283883821E+02  0.37440000055E+03  0.37579214417E+03  0.00000000000E+00 0. -1.
        -14    1    6    6    0    0 -0.29890907410E+02 -0.44862769453E+02  0.17663463803E+03  0.18467790821E+03  0.00000000000E+00 0.  1.
</event>
<event>
12    1  0.8417180E-002  0.1830737E+03  0.7818608E-02  0.1164920E+00
         21   -1    0    0  503  502  0.00000000000E+00  0.00000000000E+00  0.53427809944E+03  0.53427809944E+03  0.00000000000E+00 0. -1.
         21   -1    0    0  501  503 -0.00000000000E+00 -0.00000000000E+00 -0.70466677338E+02  0.70466677338E+02  0.00000000000E+00 0.  1.
          6    2    1    2  501    0 -0.10369500379E+02 -0.64203941417E+02  0.13131434514E+03  0.22529853749E+03  0.17113240816E+03 0.  0.
         24    2    3    3    0    0 -0.48937809827E+02  0.28608172114E+01  0.10971364188E+03  0.14483813278E+03  0.80857331078E+02 0.  0.
         -6    2    1    2    0  502  0.10369500379E+02  0.64203941417E+02  0.33249707696E+03  0.37944623929E+03  0.17086681857E+03 0.  0.
        -24    2    5    5    0    0  0.42142737344E+02  0.79924107291E+02  0.31900935719E+03  0.34122751630E+03  0.80655902858E+02 0.  0.
          5    1    3    3  501    0  0.38568309448E+02 -0.67064758628E+02  0.21600703261E+02  0.80460404703E+02  0.47000000000E+01 0. -1.
        -13    1    4    4    0    0 -0.18920347257E+01 -0.20694801747E+02 -0.24720949599E+01  0.20927634081E+02  0.00000000000E+00 0.  1.
         14    1    4    4    0    0 -0.47045775102E+02  0.23555618959E+02  0.11218573684E+03  0.12391049870E+03  0.00000000000E+00 0. -1.
         -5    1    5    5    0  502 -0.31773236965E+02 -0.15720165875E+02  0.13487719771E+02  0.38218722990E+02  0.47000000000E+01 0.  1.
         11    1    6    6    0    0  0.43832387030E+02  0.19614120164E+02  0.22083503315E+03  0.22599580467E+03  0.00000000000E+00 0. -1.
        -12    1    6    6    0    0 -0.16896496859E+01  0.60309987128E+02  0.98174324040E+02  0.11523171163E+03  0.00000000000E+00 0.  1.
</event>
<event>
12    1  0.8417180E-002  0.1942263E+03  0.7818608E-02  0.1154857E+00
         21   -1    0    0  501  502  0.00000000000E+00  0.00000000000E+00  0.45426464621E+03  0.45426464621E+03  0.00000000000E+00 0. -1.
         21   -1    0    0  502  503 -0.00000000000E+00 -0.00000000000E+00 -0.10650008804E+03  0.10650008804E+03  0.00000000000E+00 0.  1.
         -6    2    1    2    0  503  0.76311465943E+01 -0.87245520276E+02  0.41223439678E+02  0.19787173885E+03  0.17257994625E+03 0.  0.
        -24    2    3    3    0    0 -0.27632826428E+02 -0.43446426984E+02 -0.37851468559E+02  0.10072834237E+03  0.77860774274E+02 0.  0.
          6    2    1    2  501    0 -0.76311465943E+01  0.87245520276E+02  0.30654111849E+03  0.36289299540E+03  0.17336047293E+03 0.  0.
         24    2    5    5    0    0  0.27217872922E+01 -0.31791601596E+01  0.12433443082E+03  0.15916481104E+03  0.99281776770E+02 0.  0.
          5    1    5    5  501    0 -0.10352933887E+02  0.90424680436E+02  0.18220668767E+03  0.20372818436E+03  0.47000000000E+01 0. -1.
        -11    1    6    6    0    0 -0.44377871540E+02  0.17576137847E+02  0.55206699183E+02  0.72980105088E+02  0.00000000000E+00 0.  1.
         12    1    6    6    0    0  0.47099658833E+02 -0.20755298007E+02  0.69127731640E+02  0.86184705947E+02  0.00000000000E+00 0. -1.
         -5    1    3    3    0  503  0.35263973022E+02 -0.43799093293E+02  0.79074908237E+02  0.97143396478E+02  0.47000000000E+01 0.  1.
         13    1    4    4    0    0 -0.12349166117E+02 -0.37325700734E+01 -0.53769317678E+02  0.55295329882E+02  0.00000000000E+00 0. -1.
        -14    1    4    4    0    0 -0.15283660311E+02 -0.39713856910E+02  0.15917849120E+02  0.45433012489E+02  0.00000000000E+00 0.  1.
</event>
<event>
12    1  0.8417180E-002  0.1749968E+03  0.7818608E-02  0.1172947E+00
         21   -1    0    0  503  502  0.00000000000E+00  0.00000000000E+00  0.55265876359E+03  0.55265876359E+03  0.00000000000E+00 0.  1.
         21   -1    0    0  501  503 -0.00000000000E+00 -0.00000000000E+00 -0.57812785628E+02  0.57812785628E+02  0.00000000000E+00 0.  1.
          6    2    1    2  501    0  0.22695320934E+02  0.49279839712E+01  0.31355949264E+03  0.35908696657E+03  0.17344893058E+03 0.  0.
         24    2    3    3    0    0 -0.28330278349E+02  0.18122383291E+02  0.72823126331E+02  0.11260412332E+03  0.79028193778E+02 0.  0.
         -6    2    1    2    0  502 -0.22695320934E+02 -0.49279839712E+01  0.18128648532E+03  0.25138458264E+03  0.17259796063E+03 0.  0.
        -24    2    5    5    0    0  0.47060202517E+02  0.24682616041E+02  0.11523602717E+03  0.15074972931E+03  0.81377175739E+02 0.  0.
          5    1    3    3  501    0  0.51025599282E+02 -0.13194399320E+02  0.24073636631E+03  0.24648284326E+03  0.47000000000E+01 0. -1.
        -11    1    4    4    0    0 -0.26827234263E+01 -0.68198336522E+01 -0.15590236420E+02  0.17226799112E+02  0.00000000000E+00 0.  1.
         12    1    4    4    0    0 -0.25647554922E+02  0.24942216943E+02  0.88413362750E+02  0.95377324204E+02  0.00000000000E+00 0. -1.
         -5    1    5    5    0  502 -0.69755523451E+02 -0.29610600012E+02  0.66050458140E+02  0.10063485333E+03  0.47000000000E+01 0.  1.
         11    1    6    6    0    0  0.76614614175E+01 -0.27302140827E+02  0.17748632073E+02  0.33453233405E+02  0.00000000000E+00 0. -1.
        -12    1    6    6    0    0  0.39398741099E+02  0.51984756868E+02  0.97487395102E+02  0.11729649590E+03  0.00000000000E+00 0.  1.
</event>
<event>
12    1  0.8417180E-002  0.2012233E+03  0.7818608E-02  0.1149498E+00
         21   -1    0    0  503  502  0.00000000000E+00  0.00000000000E+00  0.52683728792E+03  0.52683728792E+03  0.00000000000E+00 0.  1.
         21   -1    0    0  501  503 -0.00000000000E+00 -0.00000000000E+00 -0.78883402896E+02  0.78883402896E+02  0.00000000000E+00 0.  1.
          6    2    1    2  501    0  0.28568535404E+02 -0.91446884113E+02  0.16271551373E+03  0.25878015781E+03  0.17695236037E+03 0.  0.
         24    2    3    3    0    0  0.30829809257E+02 -0.19058962947E+02  0.77162954044E+01  0.87631181270E+02  0.79410084426E+02 0.  0.
         -6    2    1    2    0  502 -0.28568535404E+02  0.91446884113E+02  0.28523837130E+03  0.34694053301E+03  0.17270816760E+03 0.  0.
        -24    2    5    5    0    0  0.31587063742E+02  0.19571591527E+01  0.15705062917E+03  0.17936579084E+03  0.80657384856E+02 0.  0.
          5    1    3    3  501    0 -0.22612738527E+01 -0.72387921165E+02  0.15499921832E+03  0.17114897654E+03  0.47000000000E+01 0. -1.
        -11    1    4    4    0    0  0.55786875726E+01 -0.31427920356E+02 -0.27802629338E+02  0.42329920045E+02  0.00000000000E+00 0.  1.
         12    1    4    4    0    0  0.25251121684E+02  0.12368957409E+02  0.35518924742E+02  0.45301261224E+02  0.00000000000E+00 0. -1.
         -5    1    5    5    0  502 -0.60155599146E+02  0.89489724960E+02  0.12818774213E+03  0.16757474217E+03  0.47000000000E+01 0.  1.
         11    1    6    6    0    0  0.14445679145E+02 -0.29459083389E+02  0.21636073118E+02  0.39301843469E+02  0.00000000000E+00 0. -1.
        -12    1    6    6    0    0  0.17141384597E+02  0.31416242542E+02  0.13541455606E+03  0.14006394737E+03  0.00000000000E+00 0.  1.
</event>
<event>
12    1  0.8417180E-002  0.2013036E+03  0.7818608E-02  0.1148680E+00
         21   -1    0    0  503  502  0.00000000000E+00  0.00000000000E+00  0.26567859608E+03  0.26567859608E+03  0.00000000000E+00 0.  1.
         21   -1    0    0  501  503 -0.00000000000E+00 -0.00000000000E+00 -0.17004170802E+03  0.17004170802E+03  0.00000000000E+00 0. -1.
          6    2    1    2  501    0 -0.66408650533E+02  0.82318021058E+02 -0.22380622293E+02  0.20237231463E+03  0.17107687166E+03 0.  0.
         24    2    3    3    0    0  0.17187031898E+02  0.85556673100E+01  0.57152586845E+01  0.87304545558E+02  0.84975443422E+02 0.  0.
         -6    2    1    2    0  502  0.66408650533E+02 -0.82318021058E+02  0.11801751036E+03  0.23334798946E+03  0.17127984697E+03 0.  0.
        -24    2    5    5    0    0  0.36949901426E+02  0.13518505778E+02  0.16118154297E+02  0.90316431616E+02  0.79681978565E+02 0.  0.
          5    1    3    3  501    0 -0.83595682430E+02  0.73762353748E+02 -0.28095880977E+02  0.11506776907E+03  0.47000000000E+01 0. -1.
        -13    1    4    4    0    0  0.41316897308E+02 -0.16756794246E+01  0.30382623703E+02  0.51312744302E+02  0.00000000000E+00 0.  1.
         14    1    4    4    0    0 -0.24129865411E+02  0.10231346735E+02 -0.24667365018E+02  0.35991801257E+02  0.00000000000E+00 0. -1.
         -5    1    5    5    0  502  0.29458749107E+02 -0.95836526836E+02  0.10189935606E+03  0.14303155785E+03  0.47000000000E+01 0.  1.
         13    1    6    6    0    0 -0.93528176297E+01  0.34469088162E+02 -0.33966282052E+01  0.35876598494E+02  0.00000000000E+00 0. -1.
        -14    1    6    6    0    0  0.46302719056E+02 -0.20950582385E+02  0.19514782502E+02  0.54439833122E+02  0.00000000000E+00 0.  1.
</event>
<event>
12    1  0.8417180E-002  0.1852505E+03  0.7818608E-02  0.1164870E+00
         21   -1    0    0  503  502  0.00000000000E+00  0.00000000000E+00  0.15096078448E+03  0.15096078448E+03  0.00000000000E+00 0.  1.
         21   -1    0    0  501  503 -0.00000000000E+00 -0.00000000000E+00 -0.15800467572E+04  0.15800467572E+04  0.00000000000E+00 0.  1.
          6    2    1    2  501    0 -0.42523414647E+02 -0.30301648580E+02 -0.15160869643E+04  0.15263446035E+04  0.16876532465E+03 0.  0.
         24    2    3    3    0    0  0.21245588600E+02  0.17306079610E+02 -0.10392408643E+04  0.10428807739E+04  0.82630859857E+02 0.  0.
         -6    2    1    2    0  502  0.42523414647E+02  0.30301648580E+02  0.87000991552E+02  0.20466293815E+03  0.17773945826E+03 0.  0.
        -24    2    5    5    0    0  0.11248158652E+02 -0.35663073371E+02 -0.39536442911E+00  0.90690576509E+02  0.82621114003E+02 0.  0.
          5    1    3    3  501    0 -0.63769003247E+02 -0.47607728190E+02 -0.47684609995E+03  0.48346382967E+03  0.47000000000E+01 0. -1.
        -13    1    4    4    0    0  0.30936785497E+02 -0.27070803706E+02 -0.55111381022E+03  0.55264486330E+03  0.00000000000E+00 0.  1.
         14    1    4    4    0    0 -0.96911968967E+01  0.44376883316E+02 -0.48812705410E+03  0.49023591057E+03  0.00000000000E+00 0. -1.
         -5    1    5    5    0  502  0.31275255995E+02  0.65964721951E+02  0.87396355981E+02  0.11397236164E+03  0.47000000000E+01 0.  1.
         11    1    6    6    0    0 -0.77156018126E+00 -0.19850733760E+02 -0.40960565069E+02  0.45523783089E+02  0.00000000000E+00 0. -1.
        -12    1    6    6    0    0  0.12019718833E+02 -0.15812339612E+02  0.40565200640E+02  0.45166793420E+02  0.00000000000E+00 0.  1.
</event>
<event>
12    1  0.8417180E-002  0.5059479E+03  0.7818608E-02  0.1012253E+00
         21   -1    0    0  501  502  0.00000000000E+00  0.00000000000E+00  0.52877287910E+03  0.52877287910E+03  0.00000000000E+00 0. -1.
         21   -1    0    0  502  503 -0.00000000000E+00 -0.00000000000E+00 -0.49002485092E+03  0.49002485092E+03  0.00000000000E+00 0.  1.
         -6    2    1    2    0  503  0.41746856425E+02 -0.47391751131E+03 -0.37631917300E+02  0.50711703374E+03  0.17149611413E+03 0.  0.
        -24    2    3    3    0    0  0.89059066968E+02 -0.38576709264E+03 -0.13598363188E+02  0.40411876530E+03  0.79870481485E+02 0.  0.
          6    2    1    2  501    0 -0.41746856425E+02  0.47391751131E+03  0.76379945478E+02  0.51168069629E+03  0.17217035557E+03 0.  0.
         24    2    5    5    0    0 -0.90082675704E+02  0.31811194971E+03  0.23027883620E+02  0.33998253976E+03  0.75813870159E+02 0.  0.
          5    1    5    5  501    0  0.48335819279E+02  0.15580556160E+03  0.53352061858E+02  0.17169815653E+03  0.47000000000E+01 0. -1.
        -13    1    6    6    0    0 -0.11358259195E+02  0.11781094652E+02  0.17061987631E+02  0.23641397274E+02  0.00000000000E+00 0.  1.
         14    1    6    6    0    0 -0.78724416510E+02  0.30633085506E+03  0.59658959886E+01  0.31634114249E+03  0.00000000000E+00 0. -1.
         -5    1    3    3    0  503 -0.47312210543E+02 -0.88150418663E+02 -0.24033554112E+02  0.10299826843E+03  0.47000000000E+01 0.  1.
         13    1    4    4    0    0  0.39015365443E+02 -0.55219729064E+02  0.12613083037E+02  0.68778681888E+02  0.00000000000E+00 0. -1.
        -14    1    4    4    0    0  0.50043701526E+02 -0.33054736358E+03 -0.26211446225E+02  0.33534008341E+03  0.00000000000E+00 0.  1.
</event>
<event>
12    1  0.8417180E-002  0.1964147E+03  0.7818608E-02  0.1152891E+00
         21   -1    0    0  501  502  0.00000000000E+00  0.00000000000E+00  0.17858116399E+03  0.17858116399E+03  0.00000000000E+00 0. -1.
         21   -1    0    0  502  503 -0.00000000000E+00 -0.00000000000E+00 -0.39153794255E+03  0.39153794255E+03  0.00000000000E+00 0. -1.
         -6    2    1    2    0  503 -0.92489942093E+02  0.20591964470E+02 -0.29752035638E+03  0.35627401419E+03  0.17156454277E+03 0.  0.
        -24    2    3    3    0    0 -0.97112561752E+01 -0.10960256652E+02 -0.59448981766E+02  0.10221118159E+03  0.81844416337E+02 0.  0.
          6    2    1    2  501    0  0.92489942093E+02 -0.20591964470E+02  0.84563577822E+02  0.21384509234E+03  0.17204739590E+03 0.  0.
         24    2    5    5    0    0 -0.10961115423E+02 -0.23434227129E+02  0.69956895108E+02  0.10922365602E+03  0.79790543357E+02 0.  0.
          5    1    5    5  501    0  0.10345105752E+03  0.28422626590E+01  0.14606682714E+02  0.10462143632E+03  0.47000000000E+01 0. -1.
        -13    1    6    6    0    0  0.99852188488E+01  0.25698403325E+02  0.38114968070E+02  0.47041081194E+02  0.00000000000E+00 0.  1.
         14    1    6    6    0    0 -0.20946334271E+02 -0.49132630454E+02  0.31841927038E+02  0.62182574828E+02  0.00000000000E+00 0. -1.
         -5    1    3    3    0  503 -0.82778685918E+02  0.31552221122E+02 -0.23807137462E+03  0.25406283261E+03  0.47000000000E+01 0.  1.
         11    1    4    4    0    0 -0.38263286575E+02  0.20498027274E+01 -0.59575546144E+02  0.70834500697E+02  0.00000000000E+00 0. -1.
        -12    1    4    4    0    0  0.28552030400E+02 -0.13010059380E+02  0.12656437726E+00  0.31376680888E+02  0.00000000000E+00 0.  1.
</event>
<event>
12    1  0.8417180E-002  0.1956690E+03  0.7818608E-02  0.1153594E+00
         21   -1    0    0  501  502  0.00000000000E+00  0.00000000000E+00  0.90857259508E+03  0.90857259508E+03  0.00000000000E+00 0. -1.
         21   -1    0    0  502  503 -0.00000000000E+00 -0.00000000000E+00 -0.12320171801E+04  0.12320171801E+04  0.00000000000E+00 0. -1.
         -6    2    1    2    0  503 -0.35650333382E+02  0.87241590826E+02 -0.12136288495E+04  0.12293011620E+04  0.17147688213E+03 0.  0.
        -24    2    3    3    0    0 -0.33189002987E+02 -0.17120645402E+02 -0.51773907338E+03  0.52560932247E+03  0.82563825926E+02 0.  0.
          6    2    1    2  501    0  0.35650333382E+02 -0.87241590826E+02  0.89018426449E+03  0.91128861319E+03  0.17069525578E+03 0.  0.
         24    2    5    5    0    0  0.68726253314E+02 -0.31046149850E+02  0.44572105458E+03  0.46204304668E+03  0.95547669642E+02 0.  0.
          5    1    5    5  501    0 -0.33075919932E+02 -0.56195440976E+02  0.44446320991E+03  0.44924556651E+03  0.47000000000E+01 0. -1.
        -11    1    6    6    0    0 -0.19968175932E+02  0.11774004024E+02  0.79719846164E+02  0.83021738679E+02  0.00000000000E+00 0.  1.
         12    1    6    6    0    0  0.88694429246E+02 -0.42820153874E+02  0.36600120841E+03  0.37902130800E+03  0.00000000000E+00 0. -1.
         -5    1    3    3    0  503 -0.24613303945E+01  0.10436223623E+03 -0.69588977616E+03  0.70369183956E+03  0.47000000000E+01 0.  1.
         11    1    4    4    0    0 -0.19477669008E+02 -0.16748122034E+02 -0.50832368708E+03  0.50897234702E+03  0.00000000000E+00 0. -1.
        -12    1    4    4    0    0 -0.13711333980E+02 -0.37252336843E+00 -0.94153862932E+01  0.16636975453E+02  0.00000000000E+00 0.  1.
</event>
<event>
12    1  0.8417180E-002  0.3186638E+03  0.7818608E-02  0.1076284E+00
         21   -1    0    0  501  502  0.00000000000E+00  0.00000000000E+00  0.24902229431E+03  0.24902229431E+03  0.00000000000E+00 0.  1.
         21   -1    0    0  502  503 -0.00000000000E+00 -0.00000000000E+00 -0.42468693857E+03  0.42468693857E+03  0.00000000000E+00 0. -1.
         -6    2    1    2    0  503 -0.19581779892E+03 -0.18319853501E+03 -0.15546327816E+03  0.35456374021E+03  0.17216358912E+03 0.  0.
        -24    2    3    3    0    0 -0.20956554047E+03 -0.17574696717E+03 -0.17110987702E+03  0.33194887084E+03  0.78145701161E+02 0.  0.
          6    2    1    2  501    0  0.19581779892E+03  0.18319853501E+03 -0.20201366100E+02  0.31914549267E+03  0.17187040669E+03 0.  0.
         24    2    5    5    0    0  0.12746947642E+03  0.83876997721E+02  0.49942999239E+02  0.17957979865E+03  0.80441175689E+02 0.  0.
          5    1    5    5  501    0  0.68348322498E+02  0.99321537285E+02 -0.70144365338E+02  0.13956569401E+03  0.47000000000E+01 0. -1.
        -11    1    6    6    0    0  0.12746012058E+03  0.60668783758E+02  0.21372703069E+02  0.14277106184E+03  0.00000000000E+00 0.  1.
         12    1    6    6    0    0  0.93558376875E-02  0.23208213963E+02  0.28570296169E+02  0.36808736817E+02  0.00000000000E+00 0. -1.
         -5    1    3    3    0  503  0.13747741553E+02 -0.74515678328E+01  0.15646598865E+02  0.22614869379E+02  0.47000000000E+01 0.  1.
         13    1    4    4    0    0 -0.95004792376E+02 -0.13007502023E+03 -0.94000615389E+02  0.18649808888E+03  0.00000000000E+00 0. -1.
        -14    1    4    4    0    0 -0.11456074810E+03 -0.45671946945E+02 -0.77109261635E+02  0.14545078196E+03  0.00000000000E+00 0.  1.
</event>
<event>
12    1  0.8417180E-002  0.2057710E+03  0.7818608E-02  0.1144965E+00
         21   -1    0    0  503  502  0.00000000000E+00  0.00000000000E+00  0.77682419406E+02  0.77682419406E+02  0.00000000000E+00 0. -1.
         21   -1    0    0  501  503 -0.00000000000E+00 -0.00000000000E+00 -0.17966398593E+04  0.17966398593E+04  0.00000000000E+00 0. -1.
          6    2    1    2  501    0  0.20448642679E+02  0.11212720256E+03 -0.16417110083E+04  0.16545563578E+04  0.17132148067E+03 0.  0.
         24    2    3    3    0    0  0.21580415231E+02 -0.20457699106E+02 -0.36481765377E+03  0.37078894664E+03  0.59230825349E+02 0.  0.
         -6    2    1    2    0  502 -0.20448642679E+02 -0.11212720256E+03 -0.77246431637E+02  0.21976592097E+03  0.17128745511E+03 0.  0.
        -24    2    5    5    0    0  0.18434142578E+02 -0.82228765001E+02 -0.10923747303E+03  0.16101811857E+03  0.83021813923E+02 0.  0.
          5    1    3    3  501    0 -0.11317725522E+01  0.13258490167E+03 -0.12768933545E+04  0.12837674111E+04  0.47000000000E+01 0. -1.
        -13    1    4    4    0    0  0.84894455667E+01 -0.39589509713E+02 -0.27785001257E+03  0.28078466741E+03  0.00000000000E+00 0.  1.
         14    1    4    4    0    0  0.13090969664E+02  0.19131810608E+02 -0.86967641204E+02  0.90004279235E+02  0.00000000000E+00 0. -1.
         -5    1    5    5    0  502 -0.38882785256E+02 -0.29898437559E+02  0.31991041394E+02  0.58747802404E+02  0.47000000000E+01 0.  1.
         11    1    6    6    0    0  0.12504181116E+02  0.91887505313E+00  0.96478750777E+01  0.15820251902E+02  0.00000000000E+00 0. -1.
        -12    1    6    6    0    0  0.59299614619E+01 -0.83147640054E+02 -0.11888534811E+03  0.14519786667E+03  0.00000000000E+00 0.  1.
</event>
<event>
12    1  0.8417180E-002  0.2004581E+03  0.7818608E-02  0.1150454E+00
         21   -1    0    0  503  502  0.00000000000E+00  0.00000000000E+00  0.16032159964E+03  0.16032159964E+03  0.00000000000E+00 0.  1.
         21   -1    0    0  501  503 -0.00000000000E+00 -0.00000000000E+00 -0.29057335890E+03  0.29057335890E+03  0.00000000000E+00 0.  1.
          6    2    1    2  501    0 -0.99641043450E+02 -0.14698288285E+02 -0.15586747664E+03  0.25392544410E+03  0.17331786887E+03 0.  0.
         24    2    3    3    0    0 -0.86411260597E+02 -0.73094545894E+02 -0.12651698321E+03  0.18707717171E+03  0.78623167935E+02 0.  0.
         -6    2    1    2    0  502  0.99641043450E+02  0.14698288285E+02  0.25615717378E+02  0.19696951444E+03  0.16732138962E+03 0.  0.
        -24    2    5    5    0    0  0.10012565753E+03 -0.15540639109E+02  0.67273128071E+02  0.14527756684E+03  0.79455892836E+02 0.  0.
          5    1    3    3  501    0 -0.13229782854E+02  0.58396257608E+02 -0.29350493428E+02  0.66848272389E+02  0.47000000000E+01 0.  1.
        -13    1    4    4    0    0 -0.50143302797E+02 -0.76428426394E+02 -0.11871573211E+03  0.14983017128E+03  0.00000000000E+00 0.  1.
         14    1    4    4    0    0 -0.36267957800E+02  0.33338805002E+01 -0.78012511083E+01  0.37247000430E+02  0.00000000000E+00 0. -1.
         -5    1    5    5    0  502 -0.48461408385E+00  0.30238927395E+02 -0.41657410694E+02  0.51691947598E+02  0.47000000000E+01 0.  1.
         13    1    6    6    0    0  0.57381523709E+02 -0.35161822743E+02  0.71335359783E+02  0.98070008653E+02  0.00000000000E+00 0. -1.
        -14    1    6    6    0    0  0.42744133825E+02  0.19621183634E+02 -0.40622317121E+01  0.47207558189E+02  0.00000000000E+00 0.  1.
</event>
<event>
12    1  0.8417180E-002  0.2003264E+03  0.7818608E-02  0.1150017E+00
         21   -1    0    0  501  502  0.00000000000E+00  0.00000000000E+00  0.93661072464E+03  0.93661072464E+03  0.00000000000E+00 0. -1.
         21   -1    0    0  502  503 -0.00000000000E+00 -0.00000000000E+00 -0.18614705587E+03  0.18614705587E+03  0.00000000000E+00 0.  1.
         -6    2    1    2    0  503 -0.57671105015E+02  0.81763411562E+02 -0.11771341496E+03  0.23235127010E+03  0.17354956881E+03 0.  0.
        -24    2    3    3    0    0 -0.10337574582E+03  0.47695894353E+02 -0.97089480195E+02  0.17154874873E+03  0.83911637242E+02 0.  0.
          6    2    1    2  501    0  0.57671105015E+02 -0.81763411562E+02  0.86817708373E+03  0.89040651040E+03  0.17053179539E+03 0.  0.
         24    2    5    5    0    0 -0.30532791041E+02 -0.57506820890E+02  0.36861665820E+03  0.38251772511E+03  0.78754577941E+02 0.  0.
          5    1    5    5  501    0  0.88203896057E+02 -0.24256590672E+02  0.49956042553E+03  0.50788878529E+03  0.47000000000E+01 0. -1.
        -11    1    6    6    0    0 -0.17958435607E+02 -0.75781841907E+02  0.31518015187E+03  0.32465970046E+03  0.00000000000E+00 0.  1.
         12    1    6    6    0    0 -0.12574355434E+02  0.18275021017E+02  0.53436506331E+02  0.57858024652E+02  0.00000000000E+00 0. -1.
         -5    1    3    3    0  503  0.45704640806E+02  0.34067517209E+02 -0.20623934762E+02  0.60802521371E+02  0.47000000000E+01 0.  1.
         13    1    4    4    0    0 -0.32760107537E+02 -0.21951965019E+02 -0.43870226399E+02  0.58989068295E+02  0.00000000000E+00 0. -1.
        -14    1    4    4    0    0 -0.70615638284E+02  0.69647859372E+02 -0.53219253796E+02  0.11255968044E+03  0.00000000000E+00 0.  1.
</event>
<event>
12    1  0.8417180E-002  0.3539570E+03  0.7818608E-02  0.1061032E+00
         21   -1    0    0  501  502  0.00000000000E+00  0.00000000000E+00  0.67072446267E+03  0.67072446267E+03  0.00000000000E+00 0. -1.
         21   -1    0    0  502  503 -0.00000000000E+00 -0.00000000000E+00 -0.23319203104E+03  0.23319203104E+03  0.00000000000E+00 0.  1.
         -6    2    1    2    0  503 -0.30629208645E+03  0.43037558809E+02  0.16759003507E+02  0.35406573978E+03  0.17150688089E+03 0.  0.
        -24    2    3    3    0    0 -0.19418616445E+03 -0.28547102401E+02 -0.26476877717E+02  0.21412456323E+03  0.81394717308E+02 0.  0.
          6    2    1    2  501    0  0.30629208645E+03 -0.43037558809E+02  0.42077342813E+03  0.54985075393E+03  0.17210026172E+03 0.  0.
         24    2    5    5    0    0  0.23664476170E+03 -0.33944583449E+02  0.40749880709E+03  0.47821460656E+03  0.74033466483E+02 0.  0.
          5    1    5    5  501    0  0.69647324753E+02 -0.90929753600E+01  0.13274621036E+02  0.71636147368E+02  0.47000000000E+01 0. -1.
        -11    1    6    6    0    0  0.12635270614E+03 -0.37374379927E+02  0.16028895209E+03  0.20749553919E+03  0.00000000000E+00 0.  1.
         12    1    6    6    0    0  0.11029205556E+03  0.34297964786E+01  0.24720985501E+03  0.27071906737E+03  0.00000000000E+00 0. -1.
         -5    1    3    3    0  503 -0.11210592201E+03  0.71584661209E+02  0.43235881223E+02  0.13994117655E+03  0.47000000000E+01 0.  1.
         13    1    4    4    0    0 -0.17218726328E+02 -0.13244796279E+02  0.21049216945E+02  0.30248614825E+02  0.00000000000E+00 0. -1.
        -14    1    4    4    0    0 -0.17696743812E+03 -0.15302306121E+02 -0.47526094662E+02  0.18387594840E+03  0.00000000000E+00 0.  1.
</event>
<event>
12    1  0.8417180E-002  0.1785873E+03  0.7818608E-02  0.1169313E+00
         21   -1    0    0  503  502  0.00000000000E+00  0.00000000000E+00  0.49479789947E+02  0.49479789947E+02  0.00000000000E+00 0. -1.
         21   -1    0    0  501  503 -0.00000000000E+00 -0.00000000000E+00 -0.72543482612E+03  0.72543482612E+03  0.00000000000E+00 0. -1.
          6    2    1    2  501    0 -0.59649340529E+01 -0.43705894077E+02 -0.20749942301E+03  0.27376896873E+03  0.17305389933E+03 0.  0.
         24    2    3    3    0    0  0.55319287979E+02  0.63694402130E+01 -0.92509298251E+02  0.13409751937E+03  0.79519689675E+02 0.  0.
         -6    2    1    2    0  502  0.59649340529E+01  0.43705894077E+02 -0.46845561316E+03  0.50114564733E+03  0.17248336943E+03 0.  0.
        -24    2    5    5    0    0  0.16812420460E+02 -0.19267768383E+02 -0.40991662398E+03  0.41435709176E+03  0.54829339747E+02 0.  0.
          5    1    3    3  501    0 -0.61284222032E+02 -0.50075334290E+02 -0.11499012476E+03  0.13967144936E+03  0.47000000000E+01 0. -1.
        -13    1    4    4    0    0 -0.94297925821E+00 -0.12766815871E+02 -0.69018345823E+02  0.70195533030E+02  0.00000000000E+00 0.  1.
         14    1    4    4    0    0  0.56262267237E+02  0.19136256084E+02 -0.23490952428E+02  0.63901986335E+02  0.00000000000E+00 0. -1.
         -5    1    5    5    0  502 -0.10847486407E+02  0.62973662459E+02 -0.58538989178E+02  0.86788555576E+02  0.47000000000E+01 0.  1.
         13    1    6    6    0    0  0.96039068358E+01  0.75034344403E+01 -0.32070912250E+03  0.32094061415E+03  0.00000000000E+00 0. -1.
        -14    1    6    6    0    0  0.72085136238E+01 -0.26771202823E+02 -0.89207501475E+02  0.93416477608E+02  0.00000000000E+00 0.  1.
</event>
<event>
12    1  0.8417180E-002  0.2315831E+03  0.7818608E-02  0.1125650E+00
         21   -1    0    0  501  502  0.00000000000E+00  0.00000000000E+00  0.89078812666E+02  0.89078812666E+02  0.00000000000E+00 0. -1.
         21   -1    0    0  502  503 -0.00000000000E+00 -0.00000000000E+00 -0.76594362074E+03  0.76594362074E+03  0.00000000000E+00 0. -1.
         -6    2    1    2    0  503  0.65321383076E+02 -0.14017592249E+03 -0.53764083664E+03  0.58539592718E+03  0.17237908807E+03 0.  0.
        -24    2    3    3    0    0  0.56581789356E+02 -0.18287423291E+02 -0.32750454740E+03  0.34226522819E+03  0.79688952333E+02 0.  0.
          6    2    1    2  501    0 -0.65321383076E+02  0.14017592249E+03 -0.13922397143E+03  0.26962650623E+03  0.17146126766E+03 0.  0.
         24    2    5    5    0    0 -0.93363653386E+02  0.14063251947E+03 -0.14927929539E+03  0.23946399730E+03  0.81021112482E+02 0.  0.
          5    1    5    5  501    0  0.28042270310E+02 -0.45659698096E+00  0.10055323952E+02  0.30162508926E+02  0.47000000000E+01 0. -1.
        -11    1    6    6    0    0  0.13475980563E+02  0.28454533175E+02 -0.34178507124E+02  0.46469698295E+02  0.00000000000E+00 0.  1.
         12    1    6    6    0    0 -0.10683963395E+03  0.11217798629E+03 -0.11510078826E+03  0.19299429901E+03  0.00000000000E+00 0. -1.
         -5    1    3    3    0  503  0.87395937203E+01 -0.12188849920E+03 -0.21013628925E+03  0.24313069899E+03  0.47000000000E+01 0.  1.
         11    1    4    4    0    0  0.74285772399E+02 -0.18417384319E+02 -0.29957538978E+03  0.30919733212E+03  0.00000000000E+00 0. -1.
        -12    1    4    4    0    0 -0.17703983043E+02  0.12996102779E+00 -0.27929157617E+02  0.33067896073E+02  0.00000000000E+00 0.  1.
</event>
<event>
12    1  0.8417180E-002  0.2033180E+03  0.7818608E-02  0.1147421E+00
         21   -1    0    0  503  502  0.00000000000E+00  0.00000000000E+00  0.26427131839E+03  0.26427131839E+03  0.00000000000E+00 0.  1.
         21   -1    0    0  501  503 -0.00000000000E+00 -0.00000000000E+00 -0.21997953430E+03  0.21997953430E+03  0.00000000000E+00 0.  1.
          6    2    1    2  501    0 -0.10028500297E+03  0.11748640982E+02 -0.10961038230E+03  0.23098187293E+03  0.17647401318E+03 0.  0.
         24    2    3    3    0    0 -0.14694676292E+02  0.58454605827E+02 -0.28085612771E+02  0.10379881895E+03  0.79702689515E+02 0.  0.
         -6    2    1    2    0  502  0.10028500297E+03 -0.11748640982E+02  0.15390216639E+03  0.25326897977E+03  0.17396605102E+03 0.  0.
        -24    2    5    5    0    0  0.87611503569E+02  0.45828841151E+02  0.54704671661E+02  0.13777864686E+03  0.78830807365E+02 0.  0.
          5    1    3    3  501    0 -0.85590326681E+02 -0.46705964845E+02 -0.81524769528E+02  0.12718305398E+03  0.47000000000E+01 0. -1.
        -11    1    4    4    0    0 -0.35156329594E+02  0.56784886013E+02 -0.42093709811E+02  0.78945368424E+02  0.00000000000E+00 0.  1.
         12    1    4    4    0    0  0.20461653303E+02  0.16697198146E+01  0.14008097040E+02  0.24853450521E+02  0.00000000000E+00 0. -1.
         -5    1    5    5    0  502  0.12673499404E+02 -0.57577482134E+02  0.99197494724E+02  0.11549033291E+03  0.47000000000E+01 0.  1.
         13    1    6    6    0    0  0.38336712719E+02  0.38803529999E+02 -0.10702131068E+02  0.55587346508E+02  0.00000000000E+00 0. -1.
        -14    1    6    6    0    0  0.49274790850E+02  0.70253111528E+01  0.65406802729E+02  0.82191300351E+02  0.00000000000E+00 0.  1.
</event>
<event>
12    1  0.8417180E-002  0.1761149E+03  0.7818608E-02  0.1173193E+00
         21   -1    0    0  503  502  0.00000000000E+00  0.00000000000E+00  0.18940411203E+03  0.18940411203E+03  0.00000000000E+00 0.  1.
         21   -1    0    0  501  503 -0.00000000000E+00 -0.00000000000E+00 -0.16811990563E+03  0.16811990563E+03  0.00000000000E+00 0.  1.
          6    2    1    2  501    0  0.40280221713E+02 -0.29460106170E+01 -0.33316781140E+02  0.17313927079E+03  0.16503340251E+03 0.  0.
         24    2    3    3    0    0  0.43358083854E+01 -0.57988385428E+02 -0.57671462302E+02  0.10287616263E+03  0.62257972935E+02 0.  0.
         -6    2    1    2    0  502 -0.40280221713E+02  0.29460106170E+01  0.54600987532E+02  0.18438474687E+03  0.17142138664E+03 0.  0.
        -24    2    5    5    0    0  0.32261072899E+02  0.37726053655E+02  0.41766585141E+02  0.10278387247E+03  0.79724807035E+02 0.  0.
          5    1    3    3  501    0  0.35944413328E+02  0.55042374811E+02  0.24354681162E+02  0.70263108163E+02  0.47000000000E+01 0. -1.
        -13    1    4    4    0    0 -0.86451783259E+01 -0.56028420794E+02 -0.66248948990E+02  0.87194301919E+02  0.00000000000E+00 0.  1.
         14    1    4    4    0    0  0.12980986711E+02 -0.19599646338E+01  0.85774866880E+01  0.15681860707E+02  0.00000000000E+00 0. -1.
         -5    1    5    5    0  502 -0.72541294613E+02 -0.34780043038E+02  0.12834402392E+02  0.81600874398E+02  0.47000000000E+01 0.  1.
         13    1    6    6    0    0  0.48061299273E+02 -0.37358878535E+01  0.30362527594E+02  0.56971294770E+02  0.00000000000E+00 0. -1.
        -14    1    6    6    0    0 -0.15800226373E+02  0.41461941508E+02  0.11404057546E+02  0.45812577701E+02  0.00000000000E+00 0.  1.
</event>
<event>
12    1  0.8417180E-002  0.2552389E+03  0.7818608E-02  0.1110128E+00
         21   -1    0    0  503  502  0.00000000000E+00  0.00000000000E+00  0.45778025986E+03  0.45778025986E+03  0.00000000000E+00 0. -1.
         21   -1    0    0  501  503 -0.00000000000E+00 -0.00000000000E+00 -0.14852473887E+03  0.14852473887E+03  0.00000000000E+00 0.  1.
          6    2    1    2  501    0  0.39603781587E+02 -0.18458909768E+03  0.91182078865E+02  0.27103705812E+03  0.17177112933E+03 0.  0.
         24    2    3    3    0    0 -0.17456540877E+02 -0.96246249967E+02  0.10577472052E+03  0.16475735954E+03  0.79928871938E+02 0.  0.
         -6    2    1    2    0  502 -0.39603781587E+02  0.18458909768E+03  0.21807344212E+03  0.33526794060E+03  0.17090047204E+03 0.  0.
        -24    2    5    5    0    0 -0.67159983401E+02  0.11380876828E+03  0.20697659816E+03  0.25836261417E+03  0.80305847277E+02 0.  0.
          5    1    3    3  501    0  0.57060322464E+02 -0.88342847710E+02 -0.14592641651E+02  0.10627969859E+03  0.47000000000E+01 0. -1.
        -11    1    4    4    0    0 -0.35033132930E+02 -0.13733204157E+02  0.14131330144E+02  0.40194723422E+02  0.00000000000E+00 0.  1.
         12    1    4    4    0    0  0.17576592054E+02 -0.82513045810E+02  0.91643390373E+02  0.12456263612E+03  0.00000000000E+00 0. -1.
         -5    1    5    5    0  502  0.27556201813E+02  0.70780329396E+02  0.11096843955E+02  0.76905326432E+02  0.47000000000E+01 0.  1.
         13    1    6    6    0    0 -0.50963424580E+02  0.25392001533E+02  0.42951190684E+02  0.71322010403E+02  0.00000000000E+00 0. -1.
        -14    1    6    6    0    0 -0.16196558821E+02  0.88416766747E+02  0.16402540748E+03  0.18704060377E+03  0.00000000000E+00 0.  1.
</event>
<event>
12    1  0.8417180E-002  0.1828054E+03  0.7818608E-02  0.1166746E+00
         21   -1    0    0  503  502  0.00000000000E+00  0.00000000000E+00  0.61870797069E+03  0.61870797069E+03  0.00000000000E+00 0.  1.
         21   -1    0    0  501  503 -0.00000000000E+00 -0.00000000000E+00 -0.99336372372E+02  0.99336372372E+02  0.00000000000E+00 0.  1.
          6    2    1    2  501    0 -0.26927572156E+02  0.55878393029E+02  0.14529842761E+02  0.18338195025E+03  0.17196026983E+03 0.  0.
         24    2    3    3    0    0  0.52015895535E+02  0.36761055721E+02  0.81573391733E+01  0.10177164160E+03  0.78955026726E+02 0.  0.
         -6    2    1    2    0  502  0.26927572156E+02 -0.55878393029E+02  0.50484175556E+03  0.53466239281E+03  0.16477617297E+03 0.  0.
        -24    2    5    5    0    0  0.19143028907E+02  0.22569257365E+02  0.35698572480E+03  0.36703742809E+03  0.80011492762E+02 0.  0.
          5    1    3    3  501    0 -0.78943467691E+02  0.19117337307E+02  0.63725035878E+01  0.81610308655E+02  0.47000000000E+01 0. -1.
        -13    1    4    4    0    0  0.31597579908E+02  0.45924557284E+02  0.35765466762E+02  0.66231719218E+02  0.00000000000E+00 0.  1.
         14    1    4    4    0    0  0.20418315627E+02 -0.91635015625E+01 -0.27608127589E+02  0.35539922382E+02  0.00000000000E+00 0. -1.
         -5    1    5    5    0  502  0.77845432491E+01 -0.78447650394E+02  0.14785603077E+03  0.16762496473E+03  0.47000000000E+01 0.  1.
         11    1    6    6    0    0  0.11334324584E+01  0.45140381751E+02  0.29757159585E+03  0.30097806131E+03  0.00000000000E+00 0. -1.
        -12    1    6    6    0    0  0.18009596448E+02 -0.22571124387E+02  0.59414128947E+02  0.66059366776E+02  0.00000000000E+00 0.  1.
</event>
<event>
12    1  0.8417180E-002  0.1730078E+03  0.7818608E-02  0.1175294E+00
         21   -1    0    0  501  502  0.00000000000E+00  0.00000000000E+00  0.11639041178E+04  0.11639041178E+04  0.00000000000E+00 0.  1.
         21   -1    0    0  502  503 -0.00000000000E+00 -0.00000000000E+00 -0.27131806286E+02  0.27131806286E+02  0.00000000000E+00 0.  1.
         -6    2    1    2    0  503 -0.66970489979E+01 -0.98167524339E+01  0.42126279671E+03  0.45540535667E+03  0.17259917699E+03 0.  0.
        -24    2    3    3    0    0 -0.50348040638E+02 -0.41353199817E+02  0.35634978639E+03  0.37093201476E+03  0.79751971640E+02 0.  0.
          6    2    1    2  501    0  0.66970489979E+01  0.98167524339E+01  0.71550951485E+03  0.73563056746E+03  0.17046186334E+03 0.  0.
         24    2    5    5    0    0  0.13162496653E+02 -0.50535529550E+02  0.28314807922E+03  0.29900406693E+03  0.80644319117E+02 0.  0.
          5    1    5    5  501    0 -0.64654476555E+01  0.60352281984E+02  0.43236143563E+03  0.43662650054E+03  0.47000000000E+01 0. -1.
        -11    1    6    6    0    0 -0.29245763473E+02 -0.58905187326E+00  0.11157042113E+03  0.11534132188E+03  0.00000000000E+00 0.  1.
         12    1    6    6    0    0  0.42408260126E+02 -0.49946477677E+02  0.17157765809E+03  0.18366274504E+03  0.00000000000E+00 0. -1.
         -5    1    3    3    0  503  0.43650991640E+02  0.31536447383E+02  0.64913010319E+02  0.84473341910E+02  0.47000000000E+01 0.  1.
         11    1    4    4    0    0 -0.15170611537E+02 -0.47886386219E+02  0.98072939861E+02  0.11018872434E+03  0.00000000000E+00 0. -1.
        -12    1    4    4    0    0 -0.35177429101E+02  0.65331864019E+01  0.25827684653E+03  0.26074329041E+03  0.00000000000E+00 0.  1.
</event>
<event>
12    1  0.8417180E-002  0.1771295E+03  0.7818608E-02  0.1171816E+00
         21   -1    0    0  503  502  0.00000000000E+00  0.00000000000E+00  0.54539822467E+03  0.54539822467E+03  0.00000000000E+00 0. -1.
         21   -1    0    0  501  503 -0.00000000000E+00 -0.00000000000E+00 -0.98074932658E+02  0.98074932658E+02  0.00000000000E+00 0.  1.
          6    2    1    2  501    0 -0.41994564470E+01  0.40302522107E+02  0.14634930298E+02  0.17773307666E+03  0.17243241177E+03 0.  0.
         24    2    3    3    0    0  0.63185725383E+01  0.18488767142E+02 -0.58340654678E+02  0.10070064945E+03  0.79719696068E+02 0.  0.
         -6    2    1    2    0  502  0.41994564470E+01 -0.40302522107E+02  0.43268836171E+03  0.46574008067E+03  0.16748932998E+03 0.  0.
        -24    2    5    5    0    0 -0.12006174672E+01  0.31550511156E+00  0.41176673478E+03  0.41949303312E+03  0.80131266925E+02 0.  0.
          5    1    3    3  501    0 -0.10518028985E+02  0.21813754965E+02  0.72975584976E+02  0.77032427211E+02  0.47000000000E+01 0. -1.
        -11    1    4    4    0    0 -0.15694938926E+02  0.34276060585E+02 -0.62800403709E+02  0.73246639125E+02  0.00000000000E+00 0.  1.
         12    1    4    4    0    0  0.22013511465E+02 -0.15787293443E+02  0.44597490309E+01  0.27454010321E+02  0.00000000000E+00 0. -1.
         -5    1    5    5    0  502  0.54000739142E+01 -0.40618027219E+02  0.20921626928E+02  0.46247047547E+02  0.47000000000E+01 0.  1.
         11    1    6    6    0    0  0.27750906877E+01 -0.14072173014E+02  0.10084438558E+02  0.17533484614E+02  0.00000000000E+00 0. -1.
        -12    1    6    6    0    0 -0.39757081549E+01  0.14387678126E+02  0.40168229622E+03  0.40195954851E+03  0.00000000000E+00 0.  1.
</event>
<event>
12    1  0.8417180E-002  0.2393312E+03  0.7818608E-02  0.1120674E+00
         21   -1    0    0  501  502  0.00000000000E+00  0.00000000000E+00  0.57791640398E+02  0.57791640398E+02  0.00000000000E+00 0.  1.
         21   -1    0    0  502  503 -0.00000000000E+00 -0.00000000000E+00 -0.14691396979E+04  0.14691396979E+04  0.00000000000E+00 0.  1.
         -6    2    1    2    0  503 -0.62280313369E+02 -0.15284261774E+03 -0.11434361183E+04  0.11676873421E+04  0.16972881040E+03 0.  0.
        -24    2    3    3    0    0 -0.24397884505E+02 -0.61104880853E+01 -0.33555726736E+03  0.34570454176E+03  0.79248695146E+02 0.  0.
          6    2    1    2  501    0  0.62280313369E+02  0.15284261774E+03 -0.26791193928E+03  0.35924399626E+03  0.17331975769E+03 0.  0.
         24    2    5    5    0    0  0.54090109395E+02  0.16300279536E+03 -0.28043424327E+03  0.34055692191E+03  0.88543780304E+02 0.  0.
          5    1    5    5  501    0  0.81902039736E+01 -0.10160177622E+02  0.12522303990E+02  0.18687074347E+02  0.47000000000E+01 0. -1.
        -11    1    6    6    0    0  0.33475577522E+02  0.29081651472E+02 -0.13355244028E+03  0.14072175044E+03  0.00000000000E+00 0.  1.
         12    1    6    6    0    0  0.20614531873E+02  0.13392114389E+03 -0.14688180300E+03  0.19983517147E+03  0.00000000000E+00 0. -1.
         -5    1    3    3    0  503 -0.37882428864E+02 -0.14673212966E+03 -0.80787885090E+03  0.82198280032E+03  0.47000000000E+01 0.  1.
         13    1    4    4    0    0 -0.39260837173E+02 -0.30450044235E+02 -0.15119245414E+03  0.15914702862E+03  0.00000000000E+00 0. -1.
        -14    1    4    4    0    0  0.14862952668E+02  0.24339556150E+02 -0.18436481322E+03  0.18655751314E+03  0.00000000000E+00 0.  1.
</event>
<event>
12    1  0.8417180E-002  0.1805899E+03  0.7818608E-02  0.1167811E+00
         21   -1    0    0  501  502  0.00000000000E+00  0.00000000000E+00  0.22962687880E+03  0.22962687880E+03  0.00000000000E+00 0.  1.
         21   -1    0    0  502  503 -0.00000000000E+00 -0.00000000000E+00 -0.25054375810E+03  0.25054375810E+03  0.00000000000E+00 0.  1.
         -6    2    1    2    0  503  0.48178223423E+02 -0.45074148812E+01 -0.16977849476E+03  0.24613542038E+03  0.17151224411E+03 0.  0.
        -24    2    3    3    0    0  0.97021063257E+02 -0.14719377369E+02 -0.10854642629E+03  0.16700664312E+03  0.80493138838E+02 0.  0.
          6    2    1    2  501    0 -0.48178223423E+02  0.45074148812E+01  0.14886161546E+03  0.23403521652E+03  0.17398633284E+03 0.  0.
         24    2    5    5    0    0 -0.78231863767E+02 -0.38830229967E+02  0.64751045114E+02  0.13464683288E+03  0.79429594574E+02 0.  0.
          5    1    5    5  501    0  0.30053640345E+02  0.43337644848E+02  0.84110570345E+02  0.99388383641E+02  0.47000000000E+01 0. -1.
        -13    1    6    6    0    0 -0.55994003714E+02 -0.12055255286E+01 -0.62130201286E+00  0.56010425458E+02  0.00000000000E+00 0.  1.
         14    1    6    6    0    0 -0.22237860053E+02 -0.37624704438E+02  0.65372347127E+02  0.78636407425E+02  0.00000000000E+00 0. -1.
         -5    1    3    3    0  503 -0.48842839834E+02  0.10211962487E+02 -0.61232068478E+02  0.79128777262E+02  0.47000000000E+01 0.  1.
         13    1    4    4    0    0  0.13743364698E+02 -0.23756113274E+02  0.28907175938E+01  0.27596906336E+02  0.00000000000E+00 0. -1.
        -14    1    4    4    0    0  0.83277698559E+02  0.90367359055E+01 -0.11143714388E+03  0.13940973678E+03  0.00000000000E+00 0.  1.
</event>
<event>
12    1  0.8417180E-002  0.2313207E+03  0.7818608E-02  0.1125981E+00
         21   -1    0    0  503  502  0.00000000000E+00  0.00000000000E+00  0.25494838285E+02  0.25494838285E+02  0.00000000000E+00 0. -1.
         21   -1    0    0  501  503 -0.00000000000E+00 -0.00000000000E+00 -0.20878122494E+04  0.20878122494E+04  0.00000000000E+00 0.  1.
          6    2    1    2  501    0  0.14877595360E+03 -0.31927094322E+02 -0.99587529666E+03  0.10223878381E+04  0.17422876146E+03 0.  0.
         24    2    3    3    0    0  0.90594049309E+02 -0.90236365694E+02 -0.66183320082E+03  0.67830744504E+03  0.75683028586E+02 0.  0.
         -6    2    1    2    0  502 -0.14877595360E+03  0.31927094322E+02 -0.10664421144E+04  0.10909192495E+04  0.17219872781E+03 0.  0.
        -24    2    5    5    0    0 -0.73061333436E+01  0.35312409868E+02 -0.37963429357E+03  0.38966876419E+03  0.80119929211E+02 0.  0.
          5    1    3    3  501    0  0.58181904289E+02  0.58309271372E+02 -0.33404209584E+03  0.34408039309E+03  0.47000000000E+01 0. -1.
        -11    1    4    4    0    0  0.40496439412E+02  0.51671556276E+01 -0.17960315646E+03  0.18418456752E+03  0.00000000000E+00 0.  1.
         12    1    4    4    0    0  0.50097609897E+02 -0.95403521322E+02 -0.48223004437E+03  0.49412287752E+03  0.00000000000E+00 0. -1.
         -5    1    5    5    0  502 -0.14146982025E+03 -0.33853155457E+01 -0.68680782084E+03  0.70125048533E+03  0.47000000000E+01 0.  1.
         11    1    6    6    0    0 -0.17445231625E+02  0.59277016134E+02 -0.26111115419E+03  0.26832281973E+03  0.00000000000E+00 0. -1.
        -12    1    6    6    0    0  0.10139098281E+02 -0.23964606266E+02 -0.11852313938E+03  0.12134594446E+03  0.00000000000E+00 0.  1.
</event>
<event>
12    1  0.8417180E-002  0.2336049E+03  0.7818608E-02  0.1124273E+00
         21   -1    0    0  501  502  0.00000000000E+00  0.00000000000E+00  0.45123512699E+03  0.45123512699E+03  0.00000000000E+00 0. -1.
         21   -1    0    0  502  503 -0.00000000000E+00 -0.00000000000E+00 -0.26922060583E+03  0.26922060583E+03  0.00000000000E+00 0. -1.
         -6    2    1    2    0  503 -0.12837205785E+03 -0.93376696444E+02 -0.17665331654E+03  0.29287819228E+03  0.17138450512E+03 0.  0.
        -24    2    3    3    0    0 -0.15649934258E+02 -0.63874798127E+02 -0.12737023711E+03  0.16627822756E+03  0.84263642102E+02 0.  0.
          6    2    1    2  501    0  0.12837205785E+03  0.93376696444E+02  0.35866783770E+03  0.42757754054E+03  0.17023907512E+03 0.  0.
         24    2    5    5    0    0  0.63639840949E+02  0.10881081108E+03  0.31480025598E+03  0.34773440354E+03  0.77007741690E+02 0.  0.
          5    1    5    5  501    0  0.64732216898E+02 -0.15434114636E+02  0.43867581721E+02  0.79843136995E+02  0.47000000000E+01 0. -1.
        -13    1    6    6    0    0  0.24951736450E+02  0.49373784297E+02  0.53416347176E+02  0.76900363284E+02  0.00000000000E+00 0.  1.
         14    1    6    6    0    0  0.38688104499E+02  0.59437026782E+02  0.26138390880E+03  0.27083404026E+03  0.00000000000E+00 0. -1.
         -5    1    3    3    0  503 -0.11272212359E+03 -0.29501898317E+02 -0.49283079432E+02  0.12659996473E+03  0.47000000000E+01 0.  1.
         11    1    4    4    0    0 -0.42026910294E+02 -0.57022431535E+02 -0.11767839282E+03  0.13735364219E+03  0.00000000000E+00 0. -1.
        -12    1    4    4    0    0  0.26376976036E+02 -0.68523665913E+01 -0.96918442879E+01  0.28924585363E+02  0.00000000000E+00 0.  1.
</event>
<event>
12    1  0.8417180E-002  0.1798606E+03  0.7818608E-02  0.1169532E+00
         21   -1    0    0  503  502  0.00000000000E+00  0.00000000000E+00  0.12955421564E+03  0.12955421564E+03  0.00000000000E+00 0. -1.
         21   -1    0    0  501  503 -0.00000000000E+00 -0.00000000000E+00 -0.38469644536E+03  0.38469644536E+03  0.00000000000E+00 0. -1.
          6    2    1    2  501    0 -0.32032067157E+01  0.22361612697E+02 -0.28334153316E+03  0.33219285016E+03  0.17192836597E+03 0.  0.
         24    2    3    3    0    0  0.37351708355E+02  0.28245712795E+02 -0.68803093398E+02  0.11372510447E+03  0.77502021370E+02 0.  0.
         -6    2    1    2    0  502  0.32032067157E+01 -0.22361612697E+02  0.28199303441E+02  0.18205781084E+03  0.17843638507E+03 0.  0.
        -24    2    5    5    0    0  0.71239487953E+02 -0.18140722676E+02  0.33461747693E+02  0.11352654209E+03  0.79777419971E+02 0.  0.
          5    1    3    3  501    0 -0.40554915071E+02 -0.58841000979E+01 -0.21453843976E+03  0.21846774569E+03  0.47000000000E+01 0. -1.
        -13    1    4    4    0    0 -0.18013714593E+02  0.30032733296E+02 -0.29710567781E+02  0.45925775122E+02  0.00000000000E+00 0.  1.
         14    1    4    4    0    0  0.55365422948E+02 -0.17870205007E+01 -0.39092525617E+02  0.67799329345E+02  0.00000000000E+00 0. -1.
         -5    1    5    5    0  502 -0.68036281238E+02 -0.42208900213E+01 -0.52624442520E+01  0.68531268752E+02  0.47000000000E+01 0.  1.
         13    1    6    6    0    0  0.22447661895E+01  0.10066624119E+02  0.37486894389E+02  0.38879855289E+02  0.00000000000E+00 0. -1.
        -14    1    6    6    0    0  0.68994721764E+02 -0.28207346795E+02 -0.40251466960E+01  0.74646686801E+02  0.00000000000E+00 0.  1.
</event>
<event>
12    1  0.8417180E-002  0.3168819E+03  0.7818608E-02  0.1077129E+00
         21   -1    0    0  501  502  0.00000000000E+00  0.00000000000E+00  0.50869332018E+03  0.50869332018E+03  0.00000000000E+00 0.  1.
         21   -1    0    0  502  503 -0.00000000000E+00 -0.00000000000E+00 -0.86172794992E+03  0.86172794992E+03  0.00000000000E+00 0. -1.
         -6    2    1    2    0  503 -0.11484266087E+03  0.24002758802E+03 -0.77821623183E+03  0.84014441958E+03  0.17152277545E+03 0.  0.
        -24    2    3    3    0    0 -0.30751145097E+02  0.58825208714E+02 -0.38250176867E+03  0.39684123704E+03  0.82275915543E+02 0.  0.
          6    2    1    2  501    0  0.11484266087E+03 -0.24002758802E+03  0.42518160208E+03  0.53027685052E+03  0.17208156112E+03 0.  0.
         24    2    5    5    0    0  0.29445219009E+02 -0.14692319528E+03  0.33334913939E+03  0.37401923557E+03  0.79468821631E+02 0.  0.
          5    1    5    5  501    0  0.85397441865E+02 -0.93104392739E+02  0.91832462693E+02  0.15625761495E+03  0.47000000000E+01 0. -1.
        -11    1    6    6    0    0  0.96051857995E+01 -0.12924486025E+03  0.20194254841E+03  0.23995267524E+03  0.00000000000E+00 0.  1.
         12    1    6    6    0    0  0.19840033210E+02 -0.17678335033E+02  0.13140659098E+03  0.13406656034E+03  0.00000000000E+00 0. -1.
         -5    1    3    3    0  503 -0.84091515777E+02  0.18120237930E+03 -0.39571446317E+03  0.44330318254E+03  0.47000000000E+01 0.  1.
         11    1    4    4    0    0 -0.58142837073E+02  0.50649465441E+02 -0.28225506506E+03  0.29259849556E+03  0.00000000000E+00 0. -1.
        -12    1    4    4    0    0  0.27391691976E+02  0.81757432722E+01 -0.10024670361E+03  0.10424274148E+03  0.00000000000E+00 0.  1.
</event>
<event>
12    1  0.8417180E-002  0.1874743E+03  0.7818608E-02  0.1160760E+00
         21   -1    0    0  501  502  0.00000000000E+00  0.00000000000E+00  0.48697203498E+02  0.48697203498E+02  0.00000000000E+00 0.  1.
         21   -1    0    0  502  503 -0.00000000000E+00 -0.00000000000E+00 -0.88345669052E+03  0.88345669052E+03  0.00000000000E+00 0.  1.
         -6    2    1    2    0  503  0.34245786756E+02  0.65229767686E+02 -0.61679252294E+03  0.64465396251E+03  0.17238914852E+03 0.  0.
        -24    2    3    3    0    0  0.13916780297E+02 -0.22640293389E+02 -0.17452052628E+03  0.19325499800E+03  0.78637271694E+02 0.  0.
          6    2    1    2  501    0 -0.34245786756E+02 -0.65229767686E+02 -0.21796696408E+03  0.28749993150E+03  0.17239175352E+03 0.  0.
         24    2    5    5    0    0 -0.89277466677E+02 -0.31794716663E+02 -0.14937502336E+03  0.19330156228E+03  0.77918074365E+02 0.  0.
          5    1    5    5  501    0  0.55031679921E+02 -0.33435051024E+02 -0.68591940718E+02  0.94198369218E+02  0.47000000000E+01 0. -1.
        -13    1    6    6    0    0 -0.65552687660E+02 -0.52118885585E+02 -0.74181925726E+02  0.11187712545E+03  0.00000000000E+00 0.  1.
         14    1    6    6    0    0 -0.23724779017E+02  0.20324168923E+02 -0.75193097635E+02  0.81424436834E+02  0.00000000000E+00 0. -1.
         -5    1    3    3    0  503  0.20329006459E+02  0.87870061076E+02 -0.44227199666E+03  0.45139896451E+03  0.47000000000E+01 0.  1.
         13    1    4    4    0    0 -0.84637535363E+01  0.18480042648E+01  0.54615469633E+01  0.10241032122E+02  0.00000000000E+00 0. -1.
        -14    1    4    4    0    0  0.22380533833E+02 -0.24488297654E+02 -0.17998207325E+03  0.18301396588E+03  0.00000000000E+00 0.  1.
</event>
<event>
12    1  0.8417180E-002  0.2125840E+03  0.7818608E-02  0.1139765E+00
         21   -1    0    0  503  502  0.00000000000E+00  0.00000000000E+00  0.21058009027E+03  0.21058009027E+03  0.00000000000E+00 0. -1.
         21   -1    0    0  501  503 -0.00000000000E+00 -0.00000000000E+00 -0.23480027442E+03  0.23480027442E+03  0.00000000000E+00 0. -1.
          6    2    1    2  501    0 -0.19378630548E+02  0.12334966917E+03  0.55047688436E+02  0.21959558374E+03  0.17205028390E+03 0.  0.
         24    2    3    3    0    0 -0.30024827355E+02  0.16248312464E+01  0.48689065278E+02  0.97150494976E+02  0.78507727404E+02 0.  0.
         -6    2    1    2    0  502  0.19378630548E+02 -0.12334966917E+03 -0.79267872579E+02  0.22578478095E+03  0.17060099496E+03 0.  0.
        -24    2    5    5    0    0  0.24904189791E+02 -0.15665625760E+03 -0.78545807684E+02  0.19168973710E+03  0.73580633931E+02 0.  0.
          5    1    3    3  501    0  0.10646196807E+02  0.12172483792E+03  0.63586231584E+01  0.12244508876E+03  0.47000000000E+01 0. -1.
        -13    1    4    4    0    0 -0.54597848616E+02  0.97221966235E+01  0.21119623163E+02  0.59342098574E+02  0.00000000000E+00 0.  1.
         14    1    4    4    0    0  0.24573021260E+02 -0.80973653770E+01  0.27569442115E+02  0.37808396402E+02  0.00000000000E+00 0. -1.
         -5    1    5    5    0  502 -0.55255592427E+01  0.33306588429E+02 -0.72206489484E+00  0.34095043855E+02  0.47000000000E+01 0.  1.
         13    1    6    6    0    0  0.48154359047E+02 -0.13375465070E+03 -0.61833550931E+02  0.15502431068E+03  0.00000000000E+00 0. -1.
        -14    1    6    6    0    0 -0.23250169256E+02 -0.22901606894E+02 -0.16712256753E+02  0.36665426419E+02  0.00000000000E+00 0.  1.
</event>
<event>
12    1  0.8417180E-002  0.1819682E+03  0.7818608E-02  0.1166428E+00
         21   -1    0    0  501  502  0.00000000000E+00  0.00000000000E+00  0.26654514455E+02  0.26654514455E+02  0.00000000000E+00 0.  1.
         21   -1    0    0  502  503 -0.00000000000E+00 -0.00000000000E+00 -0.19544708877E+04  0.19544708877E+04  0.00000000000E+00 0.  1.
         -6    2    1    2    0  503 -0.48534272946E+02 -0.28516029018E+02 -0.15715596098E+04  0.15820594227E+04  0.17304239413E+03 0.  0.
        -24    2    3    3    0    0 -0.39450576292E+02 -0.38318375848E+02 -0.45100141416E+03  0.46141168169E+03  0.80460043094E+02 0.  0.
          6    2    1    2  501    0  0.48534272946E+02  0.28516029018E+02 -0.35625676343E+03  0.39906597946E+03  0.17078066317E+03 0.  0.
         24    2    5    5    0    0  0.60295198305E+02  0.60664534691E+02 -0.34317993532E+03  0.36212089568E+03  0.77739168859E+02 0.  0.
          5    1    5    5  501    0 -0.11760925359E+02 -0.32148505673E+02 -0.13076828115E+02  0.36945083785E+02  0.47000000000E+01 0. -1.
        -13    1    6    6    0    0  0.16824154829E+02  0.39789233348E+02 -0.55016874256E+02  0.69950637802E+02  0.00000000000E+00 0.  1.
         14    1    6    6    0    0  0.43471043477E+02  0.20875301343E+02 -0.28816306106E+03  0.29217025788E+03  0.00000000000E+00 0. -1.
         -5    1    3    3    0  503 -0.90836966536E+01  0.98023468308E+01 -0.11205581957E+04  0.11206477410E+04  0.47000000000E+01 0.  1.
         13    1    4    4    0    0  0.21249745727E+02  0.57322842738E+01 -0.84857861864E+02  0.87665657452E+02  0.00000000000E+00 0. -1.
        -14    1    4    4    0    0 -0.60700322020E+02 -0.44050660122E+02 -0.36614355229E+03  0.37374602424E+03  0.00000000000E+00 0.  1.
</event>
<event>
12    1  0.8417180E-002  0.1809759E+03  0.7818608E-02  0.1169324E+00
         21   -1    0    0  503  502  0.00000000000E+00  0.00000000000E+00  0.18650342688E+03  0.18650342688E+03  0.00000000000E+00 0.  1.
         21   -1    0    0  501  503 -0.00000000000E+00 -0.00000000000E+00 -0.48546116245E+03  0.48546116245E+03  0.00000000000E+00 0.  1.
          6    2    1    2  501    0 -0.14888187203E+02  0.51853276520E+02 -0.42050749622E+03  0.45395861063E+03  0.16230047870E+03 0.  0.
         24    2    3    3    0    0 -0.45539750441E+02 -0.64693121485E+01 -0.16978620920E+03  0.19468212415E+03  0.83414937265E+02 0.  0.
         -6    2    1    2    0  502  0.14888187203E+02 -0.51853276520E+02  0.12154976064E+03  0.21800597870E+03  0.17274791470E+03 0.  0.
        -24    2    5    5    0    0  0.38440602368E+02 -0.34943941594E+02  0.32988333080E+01  0.96161759782E+02  0.80854454290E+02 0.  0.
          5    1    3    3  501    0  0.30651563238E+02  0.58322588669E+02 -0.25072128702E+03  0.25927648648E+03  0.47000000000E+01 0. -1.
        -11    1    4    4    0    0  0.14004935609E+02 -0.81283731368E+01 -0.10668182138E+03  0.10790375194E+03  0.00000000000E+00 0.  1.
         12    1    4    4    0    0 -0.59544686050E+02  0.16590609883E+01 -0.63104387824E+02  0.86778372207E+02  0.00000000000E+00 0. -1.
         -5    1    5    5    0  502 -0.23552415165E+02 -0.16909334926E+02  0.11825092733E+03  0.12184421892E+03  0.47000000000E+01 0.  1.
         13    1    6    6    0    0 -0.55904611113E+01 -0.44704451589E+02 -0.15009850468E+02  0.47487228371E+02  0.00000000000E+00 0. -1.
        -14    1    6    6    0    0  0.44031063480E+02  0.97605099947E+01  0.18308683776E+02  0.48674531411E+02  0.00000000000E+00 0.  1.
</event>
<event>
12    1  0.8417180E-002  0.1894006E+03  0.7818608E-02  0.1159225E+00
         21   -1    0    0  503  502  0.00000000000E+00  0.00000000000E+00  0.13534126004E+03  0.13534126004E+03  0.00000000000E+00 0. -1.
         21   -1    0    0  501  503 -0.00000000000E+00 -0.00000000000E+00 -0.31692018645E+03  0.31692018645E+03  0.00000000000E+00 0. -1.
          6    2    1    2  501    0 -0.51881200042E+02  0.55507294405E+02  0.20845157123E+01  0.18843417230E+03  0.17242497915E+03 0.  0.
         24    2    3    3    0    0 -0.84134312813E+01 -0.28406763849E+01 -0.53945146331E+02  0.96481218865E+02  0.79496487424E+02 0.  0.
         -6    2    1    2    0  502  0.51881200042E+02 -0.55507294405E+02 -0.18366344212E+03  0.26382727420E+03  0.17349308917E+03 0.  0.
        -24    2    5    5    0    0  0.11516782944E+02 -0.18654226706E+02 -0.19183989245E+03  0.20836215808E+03  0.78304713277E+02 0.  0.
          5    1    3    3  501    0 -0.43467768761E+02  0.58347970790E+02  0.56029662044E+02  0.91952953433E+02  0.47000000000E+01 0. -1.
        -11    1    4    4    0    0 -0.23274505237E+02  0.31299375400E+02 -0.12943837659E+02  0.41096185076E+02  0.00000000000E+00 0.  1.
         12    1    4    4    0    0  0.14861073955E+02 -0.34140051785E+02 -0.41001308672E+02  0.55385033789E+02  0.00000000000E+00 0. -1.
         -5    1    5    5    0  502  0.40364417098E+02 -0.36853067698E+02  0.81764503238E+01  0.55465116121E+02  0.47000000000E+01 0.  1.
         11    1    6    6    0    0 -0.33781765005E+02 -0.77376102331E+01 -0.77768571806E+02  0.85141229846E+02  0.00000000000E+00 0. -1.
        -12    1    6    6    0    0  0.45298547949E+02 -0.10916616473E+02 -0.11407132064E+03  0.12322092823E+03  0.00000000000E+00 0.  1.
</event>
<event>
12    1  0.8417180E-002  0.1925632E+03  0.7818608E-02  0.1156433E+00
         21   -1    0    0  503  502  0.00000000000E+00  0.00000000000E+00  0.24647099897E+03  0.24647099897E+03  0.00000000000E+00 0.  1.
         21   -1    0    0  501  503 -0.00000000000E+00 -0.00000000000E+00 -0.14952294163E+03  0.14952294163E+03  0.00000000000E+00 0.  1.
          6    2    1    2  501    0 -0.20295048796E+02  0.83906971129E+02  0.47905591984E+02  0.19728375726E+03  0.17080300444E+03 0.  0.
         24    2    3    3    0    0 -0.66033229846E+02  0.75858682804E+02  0.69180332236E+02  0.14598599197E+03  0.80069121912E+02 0.  0.
         -6    2    1    2    0  502  0.20295048796E+02 -0.83906971129E+02  0.49042465349E+02  0.19871018334E+03  0.17212874468E+03 0.  0.
        -24    2    5    5    0    0  0.45764409611E+01 -0.72095780398E+02 -0.33803717721E+02  0.11343322920E+03  0.80657676580E+02 0.  0.
          5    1    3    3  501    0  0.45738181050E+02  0.80482883246E+01 -0.21274740252E+02  0.51297765288E+02  0.47000000000E+01 0. -1.
        -11    1    4    4    0    0  0.99941797227E+00  0.59525135062E+02  0.30580715640E+02  0.66928474579E+02  0.00000000000E+00 0.  1.
         12    1    4    4    0    0 -0.67032647818E+02  0.16333547742E+02  0.38599616596E+02  0.79057517396E+02  0.00000000000E+00 0. -1.
         -5    1    5    5    0  502  0.15718607835E+02 -0.11811190731E+02  0.82846183070E+02  0.85276954143E+02  0.47000000000E+01 0.  1.
         11    1    6    6    0    0 -0.58744480664E+01 -0.82844586580E+01 -0.46449505916E+02  0.47546797948E+02  0.00000000000E+00 0. -1.
        -12    1    6    6    0    0  0.10450889027E+02 -0.63811321740E+02  0.12645788194E+02  0.65886431249E+02  0.00000000000E+00 0.  1.
</event>
<event>
12    1  0.8417180E-002  0.2276310E+03  0.7818608E-02  0.1128380E+00
         21   -1    0    0  503  502  0.00000000000E+00  0.00000000000E+00  0.17013555507E+03  0.17013555507E+03  0.00000000000E+00 0.  1.
         21   -1    0    0  501  503 -0.00000000000E+00 -0.00000000000E+00 -0.30416335356E+03  0.30416335356E+03  0.00000000000E+00 0.  1.
          6    2    1    2  501    0  0.12608139544E+03  0.79582206657E+02 -0.70434043044E+02  0.23795166170E+03  0.17155230396E+03 0.  0.
         24    2    3    3    0    0  0.14848203476E+03  0.50167406362E+02 -0.89167737313E+02  0.19623763026E+03  0.77425053069E+02 0.  0.
         -6    2    1    2    0  502 -0.12608139544E+03 -0.79582206657E+02 -0.63593755442E+02  0.23634724693E+03  0.17200584149E+03 0.  0.
        -24    2    5    5    0    0 -0.54462675193E+02  0.22446221507E+02  0.62888219492E+01  0.93362262168E+02  0.72159177285E+02 0.  0.
          5    1    3    3  501    0 -0.22400639322E+02  0.29414800296E+02  0.18733694270E+02  0.41714031446E+02  0.47000000000E+01 0. -1.
        -13    1    4    4    0    0  0.69904935984E+02  0.63230390470E+02 -0.58169350179E+02  0.11076306087E+03  0.00000000000E+00 0.  1.
         14    1    4    4    0    0  0.78577098777E+02 -0.13062984108E+02 -0.30998387135E+02  0.85474569382E+02  0.00000000000E+00 0. -1.
         -5    1    5    5    0  502 -0.71618720247E+02 -0.10202842816E+03 -0.69882577391E+02  0.14298498476E+03  0.47000000000E+01 0.  1.
         11    1    6    6    0    0  0.15074444449E+01  0.59134938265E+01 -0.25971318765E+02  0.26678665566E+02  0.00000000000E+00 0. -1.
        -12    1    6    6    0    0 -0.55970119638E+02  0.16532727680E+02  0.32260140715E+02  0.66683596602E+02  0.00000000000E+00 0.  1.
</event>
<event>
12    1  0.8417180E-002  0.2941813E+03  0.7818608E-02  0.1089062E+00
         21   -1    0    0  501  502  0.00000000000E+00  0.00000000000E+00  0.49812477555E+03  0.49812477555E+03  0.00000000000E+00 0. -1.
         21   -1    0    0  502  503 -0.00000000000E+00 -0.00000000000E+00 -0.22900886921E+03  0.22900886921E+03  0.00000000000E+00 0.  1.
         -6    2    1    2    0  503  0.18582889145E+03  0.13801377376E+03  0.32061282864E+03  0.43512665828E+03  0.18155562290E+03 0.  0.
        -24    2    3    3    0    0  0.57871608210E+02  0.10770486721E+03  0.12267585966E+03  0.19744445482E+03  0.94791796787E+02 0.  0.
          6    2    1    2  501    0 -0.18582889145E+03 -0.13801377376E+03 -0.51496922306E+02  0.29200698648E+03  0.17039943809E+03 0.  0.
         24    2    5    5    0    0 -0.16997853298E+03 -0.16446827498E+03 -0.23412999438E+02  0.25003233673E+03  0.77624002211E+02 0.  0.
          5    1    5    5  501    0 -0.15850358470E+02  0.26454501213E+02 -0.28083922868E+02  0.41974649751E+02  0.47000000000E+01 0. -1.
        -11    1    6    6    0    0 -0.89515836946E+02 -0.75024772525E+02  0.26521933318E+02  0.11977150956E+03  0.00000000000E+00 0.  1.
         12    1    6    6    0    0 -0.80462696031E+02 -0.89443502453E+02 -0.49934932755E+02  0.13026082716E+03  0.00000000000E+00 0. -1.
         -5    1    3    3    0  503  0.12795728324E+03  0.30308906555E+02  0.19793696898E+03  0.23768220346E+03  0.47000000000E+01 0.  1.
         13    1    4    4    0    0  0.19759739489E+02 -0.12042624104E+02  0.42467321647E+02  0.48362645790E+02  0.00000000000E+00 0. -1.
        -14    1    4    4    0    0  0.38111868721E+02  0.11974749131E+03  0.80208538014E+02  0.14908180903E+03  0.00000000000E+00 0.  1.
</event>
<event>
12    1  0.8417180E-002  0.1880969E+03  0.7818608E-02  0.1160332E+00
         21   -1    0    0  503  502  0.00000000000E+00  0.00000000000E+00  0.33820655329E+04  0.33820655329E+04  0.00000000000E+00 0.  1.
         21   -1    0    0  501  503 -0.00000000000E+00 -0.00000000000E+00 -0.17919296070E+02  0.17919296070E+02  0.00000000000E+00 0. -1.
          6    2    1    2  501    0 -0.63657153637E+02 -0.39080957022E+02  0.58117224725E+03  0.61066149553E+03  0.17194977970E+03 0.  0.
         24    2    3    3    0    0  0.28703054560E+02 -0.15943406793E+02  0.21037468938E+03  0.22780555238E+03  0.80992605830E+02 0.  0.
         -6    2    1    2    0  502  0.63657153637E+02  0.39080957022E+02  0.27829739895E+04  0.27893233334E+04  0.17262930626E+03 0.  0.
        -24    2    5    5    0    0  0.30693122194E+02  0.20145002730E+02  0.63554623420E+03  0.64155396679E+03  0.79527275923E+02 0.  0.
          5    1    3    3  501    0 -0.92360208197E+02 -0.23137550230E+02  0.37079755787E+03  0.38285594316E+03  0.47000000000E+01 0. -1.
        -13    1    4    4    0    0  0.24695791688E+02 -0.28727662651E+02  0.21101890223E+03  0.21439248547E+03  0.00000000000E+00 0.  1.
         14    1    4    4    0    0  0.40072628715E+01  0.12784255858E+02 -0.64421284729E+00  0.13413066904E+02  0.00000000000E+00 0. -1.
         -5    1    5    5    0  502  0.32964031442E+02  0.18935954293E+02  0.21474277553E+04  0.21477693666E+04  0.47000000000E+01 0.  1.
         13    1    6    6    0    0  0.49164626142E+02 -0.66274582088E+01  0.48519941687E+03  0.48772897986E+03  0.00000000000E+00 0. -1.
        -14    1    6    6    0    0 -0.18471503948E+02  0.26772460938E+02  0.15034681733E+03  0.15382498693E+03  0.00000000000E+00 0.  1.
</event>
<event>
12    1  0.8417180E-002  0.1848017E+03  0.7818608E-02  0.1163962E+00
         21   -1    0    0  501  502  0.00000000000E+00  0.00000000000E+00  0.22125912405E+03  0.22125912405E+03  0.00000000000E+00 0.  1.
         21   -1    0    0  502  503 -0.00000000000E+00 -0.00000000000E+00 -0.18513105259E+03  0.18513105259E+03  0.00000000000E+00 0.  1.
         -6    2    1    2    0  503  0.73013396336E+01  0.59345244457E+02 -0.68289516579E+02  0.19412922094E+03  0.17160282267E+03 0.  0.
        -24    2    3    3    0    0  0.22243791875E+02  0.44294657171E+02 -0.11134035102E+03  0.14590825659E+03  0.80223080512E+02 0.  0.
          6    2    1    2  501    0 -0.73013396336E+01 -0.59345244457E+02  0.10441758804E+03  0.21226095570E+03  0.17486141090E+03 0.  0.
         24    2    5    5    0    0 -0.58327928597E+02  0.68219680544E+01  0.34241923856E+02  0.10304316119E+03  0.77438344616E+02 0.  0.
          5    1    5    5  501    0  0.51026588963E+02 -0.66167212512E+02  0.70175664189E+02  0.10921779451E+03  0.47000000000E+01 0. -1.
        -11    1    6    6    0    0  0.25135298423E+01  0.22885019729E+02  0.32833921368E+02  0.40101226324E+02  0.00000000000E+00 0.  1.
         12    1    6    6    0    0 -0.60841458439E+02 -0.16063051675E+02  0.14080024878E+01  0.62941934870E+02  0.00000000000E+00 0. -1.
         -5    1    3    3    0  503 -0.14942452241E+02  0.15050587286E+02  0.43050834438E+02  0.48220964346E+02  0.47000000000E+01 0.  1.
         11    1    4    4    0    0  0.32427914867E+02  0.91542237644E+01 -0.57800166185E+01  0.34187396324E+02  0.00000000000E+00 0. -1.
        -12    1    4    4    0    0 -0.10184122992E+02  0.35140433407E+02 -0.10556033440E+03  0.11172086027E+03  0.00000000000E+00 0.  1.
</event>
<event>
12    1  0.8417180E-002  0.2281163E+03  0.7818608E-02  0.1128409E+00
         21   -1    0    0  501  502  0.00000000000E+00  0.00000000000E+00  0.76908186137E+02  0.76908186137E+02  0.00000000000E+00 0.  1.
         21   -1    0    0  502  503 -0.00000000000E+00 -0.00000000000E+00 -0.81960685170E+03  0.81960685170E+03  0.00000000000E+00 0.  1.
         -6    2    1    2    0  503 -0.14726095493E+03 -0.27726624570E+02 -0.56161906595E+03  0.60526449210E+03  0.16874411277E+03 0.  0.
        -24    2    3    3    0    0 -0.35474196788E+02  0.15956788944E+02 -0.12957693666E+03  0.15683722776E+03  0.79339118645E+02 0.  0.
          6    2    1    2  501    0  0.14726095493E+03  0.27726624570E+02 -0.18107959961E+03  0.29125054574E+03  0.17199565239E+03 0.  0.
         24    2    5    5    0    0  0.47291778042E+02  0.53792774921E+02 -0.35250258062E+02  0.11247256225E+03  0.79229550438E+02 0.  0.
          5    1    5    5  501    0  0.99969176893E+02 -0.26066150351E+02 -0.14582934155E+03  0.17877798348E+03  0.47000000000E+01 0. -1.
        -13    1    6    6    0    0  0.16203609065E+02  0.42779448395E+01 -0.49530193154E+02  0.52288600982E+02  0.00000000000E+00 0.  1.
         14    1    6    6    0    0  0.31088168977E+02  0.49514830081E+02  0.14279935091E+02  0.60183961273E+02  0.00000000000E+00 0. -1.
         -5    1    3    3    0  503 -0.11178675815E+03 -0.43683413514E+02 -0.43204212929E+03  0.44842726433E+03  0.47000000000E+01 0.  1.
         13    1    4    4    0    0  0.12913709000E+02  0.33512331079E+01  0.42272746100E+01  0.13995159668E+02  0.00000000000E+00 0. -1.
        -14    1    4    4    0    0 -0.48387905788E+02  0.12605555837E+02 -0.13380421127E+03  0.14284206810E+03  0.00000000000E+00 0.  1.
</event>
<event>
12    1  0.8417180E-002  0.1837257E+03  0.7818608E-02  0.1164688E+00
         21   -1    0    0  503  502  0.00000000000E+00  0.00000000000E+00  0.25714626442E+03  0.25714626442E+03  0.00000000000E+00 0.  1.
         21   -1    0    0  501  503 -0.00000000000E+00 -0.00000000000E+00 -0.13025543944E+03  0.13025543944E+03  0.00000000000E+00 0.  1.
          6    2    1    2  501    0  0.54640808672E+01 -0.66547339392E+02  0.54160705615E+02  0.19154245033E+03  0.17116285721E+03 0.  0.
         24    2    3    3    0    0  0.20954906441E+02  0.18903555398E+02 -0.64994826027E+01  0.85506751005E+02  0.80453145885E+02 0.  0.
         -6    2    1    2    0  502 -0.54640808672E+01  0.66547339392E+02  0.72730119358E+02  0.19585925353E+03  0.16915310335E+03 0.  0.
        -24    2    5    5    0    0  0.19060514812E+02 -0.59156152963E+01 -0.10929739673E+02  0.82398257550E+02  0.79194165876E+02 0.  0.
          5    1    3    3  501    0 -0.15490825573E+02 -0.85450894790E+02  0.60660188218E+02  0.10603569933E+03  0.47000000000E+01 0. -1.
        -13    1    4    4    0    0  0.34497152538E+01 -0.16650529016E+02 -0.33489427881E+02  0.37559052592E+02  0.00000000000E+00 0.  1.
         14    1    4    4    0    0  0.17505191187E+02  0.35554084414E+02  0.26989945278E+02  0.47947698413E+02  0.00000000000E+00 0. -1.
         -5    1    5    5    0  502 -0.24524595680E+02  0.72462954689E+02  0.83659859032E+02  0.11346099598E+03  0.47000000000E+01 0.  1.
         13    1    6    6    0    0 -0.22941597789E+02 -0.17450913674E+01 -0.28543506539E+02  0.36661887821E+02  0.00000000000E+00 0. -1.
        -14    1    6    6    0    0  0.42002112601E+02 -0.41705239290E+01  0.17613766866E+02  0.45736369730E+02  0.00000000000E+00 0.  1.
</event>
<event>
12    1  0.8417180E-002  0.2677120E+03  0.7818608E-02  0.1102903E+00
         21   -1    0    0  501  502  0.00000000000E+00  0.00000000000E+00  0.27231433992E+04  0.27231433992E+04  0.00000000000E+00 0. -1.
         21   -1    0    0  502  503 -0.00000000000E+00 -0.00000000000E+00 -0.55222001339E+02  0.55222001339E+02  0.00000000000E+00 0. -1.
         -6    2    1    2    0  503 -0.80672618950E+02  0.18510201427E+03  0.32784010662E+03  0.42325979922E+03  0.17578081520E+03 0.  0.
        -24    2    3    3    0    0 -0.78343031155E+02  0.18456038785E+03  0.19503162880E+03  0.29034666172E+03  0.77869637510E+02 0.  0.
          6    2    1    2  501    0  0.80672618950E+02 -0.18510201427E+03  0.23400812913E+04  0.23551056013E+04  0.17254308628E+03 0.  0.
         24    2    5    5    0    0  0.21252466675E+02 -0.18514894309E+03  0.16634590551E+04  0.16758630105E+04  0.81786329022E+02 0.  0.
          5    1    5    5  501    0  0.59420152275E+02  0.46928823655E-01  0.67662223615E+03  0.67924259079E+03  0.47000000000E+01 0. -1.
        -13    1    6    6    0    0 -0.27087482846E+02 -0.61034122630E+02  0.41773343467E+03  0.42303678126E+03  0.00000000000E+00 0.  1.
         14    1    6    6    0    0  0.48339949522E+02 -0.12411482046E+03  0.12457256204E+04  0.12528262293E+04  0.00000000000E+00 0. -1.
         -5    1    3    3    0  503 -0.23295877957E+01  0.54162641930E+00  0.13280847782E+03  0.13291313750E+03  0.47000000000E+01 0.  1.
         13    1    4    4    0    0 -0.53689475192E+02  0.37849820086E+02  0.49697338332E+02  0.82371075411E+02  0.00000000000E+00 0. -1.
        -14    1    4    4    0    0 -0.24653555962E+02  0.14671056776E+03  0.14533429047E+03  0.20797558631E+03  0.00000000000E+00 0.  1.
</event>
<event>
12    1  0.8417180E-002  0.2520930E+03  0.7818608E-02  0.1113554E+00
         21   -1    0    0  503  502  0.00000000000E+00  0.00000000000E+00  0.26636088543E+03  0.26636088543E+03  0.00000000000E+00 0.  1.
         21   -1    0    0  501  503 -0.00000000000E+00 -0.00000000000E+00 -0.23283686312E+03  0.23283686312E+03  0.00000000000E+00 0. -1.
          6    2    1    2  501    0  0.61244210476E+02 -0.15881940652E+03  0.47401981688E+02  0.25651091007E+03  0.18594741706E+03 0.  0.
         24    2    3    3    0    0  0.11592625950E+03 -0.10663699036E+03  0.28084901980E+02  0.17835484434E+03  0.78812076645E+02 0.  0.
         -6    2    1    2    0  502 -0.61244210476E+02  0.15881940652E+03 -0.13877959377E+02  0.24268683848E+03  0.17242345145E+03 0.  0.
        -24    2    5    5    0    0 -0.34702472400E+02  0.12349311739E+03  0.53318703118E+02  0.16212697245E+03  0.83591025000E+02 0.  0.
          5    1    3    3  501    0 -0.54682049025E+02 -0.52182416154E+02  0.19317079708E+02  0.78156065726E+02  0.47000000000E+01 0. -1.
        -11    1    4    4    0    0  0.91300375933E+02 -0.11270990964E+03  0.67414366824E+01  0.14520581719E+03  0.00000000000E+00 0.  1.
         12    1    4    4    0    0  0.24625883567E+02  0.60729192813E+01  0.21343465297E+02  0.33149027149E+02  0.00000000000E+00 0. -1.
         -5    1    5    5    0  502 -0.26541738076E+02  0.35326289126E+02 -0.67196662495E+02  0.80559866025E+02  0.47000000000E+01 0.  1.
         13    1    6    6    0    0 -0.84518347513E+01  0.95891050171E+01 -0.20297775951E+02  0.23987166449E+02  0.00000000000E+00 0. -1.
        -14    1    6    6    0    0 -0.26250637648E+02  0.11390401237E+03  0.73616479069E+02  0.13813980600E+03  0.00000000000E+00 0.  1.
</event>
<event>
12    1  0.8417180E-002  0.2108989E+03  0.7818608E-02  0.1141896E+00
         21   -1    0    0  501  502  0.00000000000E+00  0.00000000000E+00  0.10925598360E+04  0.10925598360E+04  0.00000000000E+00 0. -1.
         21   -1    0    0  502  503 -0.00000000000E+00 -0.00000000000E+00 -0.96402000559E+02  0.96402000559E+02  0.00000000000E+00 0. -1.
         -6    2    1    2    0  503 -0.59360063350E+02 -0.10716377199E+03  0.39641539550E+02  0.20947126785E+03  0.16522429982E+03 0.  0.
        -24    2    3    3    0    0  0.15920838422E+02 -0.16690062250E+02 -0.40399212357E+01  0.83841389474E+02  0.80504821914E+02 0.  0.
          6    2    1    2  501    0  0.59360063350E+02  0.10716377199E+03  0.95651629586E+03  0.97949056868E+03  0.17167020339E+03 0.  0.
         24    2    5    5    0    0  0.75732725377E+02  0.13596848779E+03  0.68833782147E+03  0.70923224810E+03  0.70558840096E+02 0.  0.
          5    1    5    5  501    0 -0.16372662027E+02 -0.28804715800E+02  0.26817847440E+03  0.27025832058E+03  0.47000000000E+01 0. -1.
        -13    1    6    6    0    0  0.44410445584E+02  0.13115199960E+03  0.53280088040E+03  0.55049969376E+03  0.00000000000E+00 0.  1.
         14    1    6    6    0    0  0.31322279793E+02  0.48164881890E+01  0.15553694107E+03  0.15873255434E+03  0.00000000000E+00 0. -1.
         -5    1    3    3    0  503 -0.75280901772E+02 -0.90473709736E+02  0.43681460786E+02  0.12562987838E+03  0.47000000000E+01 0.  1.
         11    1    4    4    0    0 -0.31353942997E+02  0.35390362668E+01  0.39643830023E+01  0.31801114001E+02  0.00000000000E+00 0. -1.
        -12    1    4    4    0    0  0.47274781418E+02 -0.20229098517E+02 -0.80043042380E+01  0.52040275473E+02  0.00000000000E+00 0.  1.
</event>
<event>
12    1  0.8417180E-002  0.1951285E+03  0.7818608E-02  0.1154177E+00
         21   -1    0    0  501  502  0.00000000000E+00  0.00000000000E+00  0.35003868533E+03  0.35003868533E+03  0.00000000000E+00 0.  1.
         21   -1    0    0  502  503 -0.00000000000E+00 -0.00000000000E+00 -0.20402304490E+03  0.20402304490E+03  0.00000000000E+00 0.  1.
         -6    2    1    2    0  503 -0.82201780952E+02  0.36699795391E+02 -0.11681896486E+03  0.22742424976E+03  0.17312166547E+03 0.  0.
        -24    2    3    3    0    0  0.17319363000E+02  0.30589873674E+02 -0.20884435106E+02  0.88978183597E+02  0.79026937308E+02 0.  0.
          6    2    1    2  501    0  0.82201780952E+02 -0.36699795391E+02  0.26283460529E+03  0.32663748048E+03  0.17177312404E+03 0.  0.
         24    2    5    5    0    0  0.11042122374E+03 -0.43010427961E+02  0.26111375992E+03  0.29729106088E+03  0.78478249786E+02 0.  0.
          5    1    5    5  501    0 -0.28219442787E+02  0.63106325695E+01  0.17208453608E+01  0.29346419601E+02  0.47000000000E+01 0. -1.
        -11    1    6    6    0    0  0.49043825067E+02 -0.31699579732E+02  0.49141729107E+02  0.76322144047E+02  0.00000000000E+00 0.  1.
         12    1    6    6    0    0  0.61377398672E+02 -0.11310848229E+02  0.21197203082E+03  0.22096891683E+03  0.00000000000E+00 0. -1.
         -5    1    3    3    0  503 -0.99521143952E+02  0.61099217174E+01 -0.95934529750E+02  0.13844606616E+03  0.47000000000E+01 0.  1.
         11    1    4    4    0    0  0.78606462990E+01  0.28876764815E+02  0.26897788073E+02  0.40238641995E+02  0.00000000000E+00 0. -1.
        -12    1    4    4    0    0  0.94587167011E+01  0.17131088588E+01 -0.47782223179E+02  0.48739541601E+02  0.00000000000E+00 0.  1.
</event>
<event>
12    1  0.8417180E-002  0.1916295E+03  0.7818608E-02  0.1157083E+00
         21   -1    0    0  501  502  0.00000000000E+00  0.00000000000E+00  0.79263868084E+03  0.79263868084E+03  0.00000000000E+00 0. -1.
         21   -1    0    0  502  503 -0.00000000000E+00 -0.00000000000E+00 -0.82101959703E+02  0.82101959703E+02  0.00000000000E+00 0. -1.
         -6    2    1    2    0  503 -0.47383837287E+02 -0.70681774030E+02  0.66004138418E+02  0.20232402471E+03  0.17128141601E+03 0.  0.
        -24    2    3    3    0    0 -0.28009522638E+02 -0.52303271916E+02  0.11103218599E+03  0.14976217089E+03  0.81119639367E+02 0.  0.
          6    2    1    2  501    0  0.47383837287E+02  0.70681774030E+02  0.64453258272E+03  0.67241661583E+03  0.17169948704E+03 0.  0.
         24    2    5    5    0    0  0.67567087745E+02  0.10693237679E+03  0.52014845139E+03  0.54121077783E+03  0.79717313086E+02 0.  0.
          5    1    5    5  501    0 -0.20183250458E+02 -0.36250602763E+02  0.12438413133E+03  0.13120583800E+03  0.47000000000E+01 0. -1.
        -13    1    6    6    0    0  0.64070991863E+02  0.61981837471E+02  0.44277306773E+03  0.45165786795E+03  0.00000000000E+00 0.  1.
         14    1    6    6    0    0  0.34960958822E+01  0.44950539322E+02  0.77375383657E+02  0.89552909879E+02  0.00000000000E+00 0. -1.
         -5    1    3    3    0  503 -0.19374314649E+02 -0.18378502114E+02 -0.45028047577E+02  0.52561853817E+02  0.47000000000E+01 0.  1.
         13    1    4    4    0    0  0.23717708059E+02 -0.40969869175E+02  0.47619689175E+02  0.67146814168E+02  0.00000000000E+00 0. -1.
        -14    1    4    4    0    0 -0.51727230697E+02 -0.11333402741E+02  0.63412496820E+02  0.82615356721E+02  0.00000000000E+00 0.  1.
</event>
<event>
12    1  0.8417180E-002  0.2564658E+03  0.7818608E-02  0.1109318E+00
         21   -1    0    0  501  502  0.00000000000E+00  0.00000000000E+00  0.93492101719E+02  0.93492101719E+02  0.00000000000E+00 0.  1.
         21   -1    0    0  502  503 -0.00000000000E+00 -0.00000000000E+00 -0.10467834817E+04  0.10467834817E+04  0.00000000000E+00 0.  1.
         -6    2    1    2    0  503 -0.97459113979E+02  0.16365989073E+03 -0.80327121897E+03  0.84315478455E+03  0.17141324555E+03 0.  0.
        -24    2    3    3    0    0 -0.99540975632E+02  0.13518042105E+03 -0.78947809254E+03  0.81109617138E+03  0.80119838821E+02 0.  0.
          6    2    1    2  501    0  0.97459113979E+02 -0.16365989073E+03 -0.15002016100E+03  0.29712079886E+03  0.17173200539E+03 0.  0.
         24    2    5    5    0    0  0.68549760028E+02 -0.17272619720E+02 -0.87380816863E+02  0.13522341996E+03  0.75183463325E+02 0.  0.
          5    1    5    5  501    0  0.28909353951E+02 -0.14638727101E+03 -0.62639344139E+02  0.16189737890E+03  0.47000000000E+01 0. -1.
        -13    1    6    6    0    0  0.12775560577E+02 -0.25303867313E+02 -0.71141280675E+02  0.76580561928E+02  0.00000000000E+00 0.  1.
         14    1    6    6    0    0  0.55774199452E+02  0.80312475932E+01 -0.16239536188E+02  0.58642858030E+02  0.00000000000E+00 0. -1.
         -5    1    3    3    0  503  0.20818616530E+01  0.28479469683E+02 -0.13793126435E+02  0.32058613168E+02  0.47000000000E+01 0.  1.
         13    1    4    4    0    0 -0.12393796109E+02  0.84023216394E+02 -0.35339152254E+03  0.36345436478E+03  0.00000000000E+00 0. -1.
        -14    1    4    4    0    0 -0.87147179523E+02  0.51157204658E+02 -0.43608657000E+03  0.44764180661E+03  0.00000000000E+00 0.  1.
</event>
<event>
12    1  0.8417180E-002  0.2611906E+03  0.7818608E-02  0.1106435E+00
         21   -1    0    0  501  502  0.00000000000E+00  0.00000000000E+00  0.11564147391E+04  0.11564147391E+04  0.00000000000E+00 0. -1.
         21   -1    0    0  502  503 -0.00000000000E+00 -0.00000000000E+00 -0.10118222598E+03  0.10118222598E+03  0.00000000000E+00 0. -1.
         -6    2    1    2    0  503 -0.17800874173E+03  0.84713255238E+02  0.12153030677E+03  0.28805051444E+03  0.17128933317E+03 0.  0.
        -24    2    3    3    0    0 -0.14121609568E+03  0.34697876584E+02  0.20811872215E+02  0.16963797302E+03  0.84840907275E+02 0.  0.
          6    2    1    2  501    0  0.17800874173E+03 -0.84713255238E+02  0.93370220637E+03  0.96954645066E+03  0.17133902665E+03 0.  0.
         24    2    5    5    0    0  0.79276898735E+02  0.21760660989E+02  0.42859517478E+03  0.44396118163E+03  0.81543570613E+02 0.  0.
          5    1    5    5  501    0  0.98731842994E+02 -0.10647391623E+03  0.50510703159E+03  0.52558526903E+03  0.47000000000E+01 0. -1.
        -13    1    6    6    0    0  0.58579172603E+02  0.20818355619E+02  0.12447884509E+03  0.13913988023E+03  0.00000000000E+00 0.  1.
         14    1    6    6    0    0  0.20697726133E+02  0.94230536956E+00  0.30411632969E+03  0.30482130140E+03  0.00000000000E+00 0. -1.
         -5    1    3    3    0  503 -0.36792646046E+02  0.50015378655E+02  0.10071843455E+03  0.11841254141E+03  0.47000000000E+01 0.  1.
         13    1    4    4    0    0 -0.11095608858E+03  0.53912725040E+02  0.39084389511E+02  0.12940411515E+03  0.00000000000E+00 0. -1.
        -14    1    4    4    0    0 -0.30260007105E+02 -0.19214848457E+02 -0.18272517297E+02  0.40233857876E+02  0.00000000000E+00 0.  1.
</event>
<event>
12    1  0.8417180E-002  0.2893045E+03  0.7818608E-02  0.1090771E+00
         21   -1    0    0  503  502  0.00000000000E+00  0.00000000000E+00  0.23603522108E+03  0.23603522108E+03  0.00000000000E+00 0.  1.
         21   -1    0    0  501  503 -0.00000000000E+00 -0.00000000000E+00 -0.80189258292E+03  0.80189258292E+03  0.00000000000E+00 0. -1.
          6    2    1    2  501    0  0.20402852884E+03 -0.11119220674E+03  0.10480384797E+03  0.30770266031E+03  0.17235351226E+03 0.  0.
         24    2    3    3    0    0  0.12778344692E+03 -0.36019817436E+02 -0.36426106533E+01  0.15523323708E+03  0.80362010469E+02 0.  0.
         -6    2    1    2    0  502 -0.20402852884E+03  0.11119220674E+03 -0.67066120982E+03  0.73022514368E+03  0.17161280458E+03 0.  0.
        -24    2    5    5    0    0 -0.14469515511E+03  0.11873677593E+03 -0.35809175459E+03  0.41194991043E+03  0.80236613389E+02 0.  0.
          5    1    3    3  501    0  0.76245081924E+02 -0.75172389306E+02  0.10844645863E+03  0.15246942323E+03  0.47000000000E+01 0. -1.
        -11    1    4    4    0    0  0.76018140961E+02 -0.22323129513E+01  0.33515531131E+02  0.83108554333E+02  0.00000000000E+00 0.  1.
         12    1    4    4    0    0  0.51765305960E+02 -0.33787504484E+02 -0.37158141785E+02  0.72124682747E+02  0.00000000000E+00 0. -1.
         -5    1    5    5    0  502 -0.59333373732E+02 -0.75445691837E+01 -0.31256945523E+03  0.31827523325E+03  0.47000000000E+01 0.  1.
         11    1    6    6    0    0 -0.58468877235E+02  0.17286084639E+02 -0.17680860049E+03  0.18702593278E+03  0.00000000000E+00 0. -1.
        -12    1    6    6    0    0 -0.86226277878E+02  0.10145069129E+03 -0.18128315410E+03  0.22492397765E+03  0.00000000000E+00 0.  1.
</event>
<event>
12    1  0.8417180E-002  0.2178067E+03  0.7818608E-02  0.1135535E+00
         21   -1    0    0  503  502  0.00000000000E+00  0.00000000000E+00  0.19582993528E+03  0.19582993528E+03  0.00000000000E+00 0.  1.
         21   -1    0    0  501  503 -0.00000000000E+00 -0.00000000000E+00 -0.91371918511E+03  0.91371918511E+03  0.00000000000E+00 0.  1.
          6    2    1    2  501    0 -0.65264025718E+02  0.11643229155E+03 -0.83454573831E+03  0.86250006898E+03  0.17211597280E+03 0.  0.
         24    2    3    3    0    0  0.11449633301E+01  0.22222783319E+02 -0.17699165364E+03  0.19490359690E+03  0.78525178048E+02 0.  0.
         -6    2    1    2    0  502  0.65264025718E+02 -0.11643229155E+03  0.11665648848E+03  0.24704905142E+03  0.17207157212E+03 0.  0.
        -24    2    5    5    0    0 -0.74724263777E+01 -0.11558508088E+03  0.91840876751E+02  0.17004766302E+03  0.84057795463E+02 0.  0.
          5    1    3    3  501    0 -0.66408989048E+02  0.94209508229E+02 -0.65755408467E+03  0.66759647208E+03  0.47000000000E+01 0. -1.
        -13    1    4    4    0    0  0.38198940175E+01  0.36475015025E+02 -0.17663077118E+03  0.18039802559E+03  0.00000000000E+00 0.  1.
         14    1    4    4    0    0 -0.26749306874E+01 -0.14252231706E+02 -0.36088246058E+00  0.14505571306E+02  0.00000000000E+00 0. -1.
         -5    1    5    5    0  502  0.72736452096E+02 -0.84721066673E+00  0.24815611725E+02  0.77001388395E+02  0.47000000000E+01 0.  1.
         13    1    6    6    0    0  0.79394639431E+01 -0.21553210647E+01  0.46013606516E+02  0.46743261345E+02  0.00000000000E+00 0. -1.
        -14    1    6    6    0    0 -0.15411890321E+02 -0.11342975982E+03  0.45827270236E+02  0.12330440168E+03  0.00000000000E+00 0.  1.
</event>
<event>
12    1  0.8417180E-002  0.3189893E+03  0.7818608E-02  0.1076419E+00
         21   -1    0    0  503  502  0.00000000000E+00  0.00000000000E+00  0.10120349511E+03  0.10120349511E+03  0.00000000000E+00 0. -1.
         21   -1    0    0  501  503 -0.00000000000E+00 -0.00000000000E+00 -0.10551835196E+04  0.10551835196E+04  0.00000000000E+00 0. -1.
          6    2    1    2  501    0 -0.17592585107E+03  0.20232163526E+03 -0.61436701152E+03  0.69224346466E+03  0.17283009101E+03 0.  0.
         24    2    3    3    0    0 -0.11081934444E+03  0.21253325066E+03 -0.49503731317E+03  0.55584404677E+03  0.80307864864E+02 0.  0.
         -6    2    1    2    0  502  0.17592585107E+03 -0.20232163526E+03 -0.33961301300E+03  0.46414355008E+03  0.16795322955E+03 0.  0.
        -24    2    5    5    0    0  0.24379399526E+02 -0.11442416649E+03 -0.14832467507E+03  0.20471030199E+03  0.78859707747E+02 0.  0.
          5    1    3    3  501    0 -0.65106506625E+02 -0.10211615398E+02 -0.11932969835E+03  0.13639941790E+03  0.47000000000E+01 0. -1.
        -13    1    4    4    0    0  0.64744790999E+01  0.31524991272E+02 -0.33824439573E+02  0.46688720980E+02  0.00000000000E+00 0.  1.
         14    1    4    4    0    0 -0.11729382354E+03  0.18100825939E+03 -0.46121287359E+03  0.50915532579E+03  0.00000000000E+00 0. -1.
         -5    1    5    5    0  502  0.15154645154E+03 -0.87897468768E+02 -0.19128833792E+03  0.25943324809E+03  0.47000000000E+01 0.  1.
         13    1    6    6    0    0  0.34882040078E+02 -0.11408935303E+03 -0.15230983088E+03  0.19347201807E+03  0.00000000000E+00 0. -1.
        -14    1    6    6    0    0 -0.10502640552E+02 -0.33481346406E+00  0.39851558045E+01  0.11238283918E+02  0.00000000000E+00 0.  1.
</event>
<event>
12    1  0.8417180E-002  0.1821316E+03  0.7818608E-02  0.1165896E+00
         21   -1    0    0  501  502  0.00000000000E+00  0.00000000000E+00  0.68021736850E+02  0.68021736850E+02  0.00000000000E+00 0.  1.
         21   -1    0    0  502  503 -0.00000000000E+00 -0.00000000000E+00 -0.18869460687E+04  0.18869460687E+04  0.00000000000E+00 0. -1.
         -6    2    1    2    0  503  0.56208533104E+02 -0.10273737734E+02 -0.17513040502E+04  0.17606885648E+04  0.17231772185E+03 0.  0.
        -24    2    3    3    0    0  0.98514450448E+02  0.39304841198E+01 -0.10501236299E+04  0.10580737184E+04  0.83903575365E+02 0.  0.
          6    2    1    2  501    0 -0.56208533104E+02  0.10273737734E+02 -0.67620281671E+02  0.19427924072E+03  0.17293632355E+03 0.  0.
         24    2    5    5    0    0  0.52455504475E+01  0.14535749247E+02  0.16329384175E+02  0.90046781656E+02  0.87195013007E+02 0.  0.
          5    1    5    5  501    0 -0.61454083551E+02 -0.42620115131E+01 -0.83949665847E+02  0.10423245907E+03  0.47000000000E+01 0. -1.
        -13    1    6    6    0    0 -0.14611272657E+02  0.44526772021E+02  0.24905316173E+02  0.53069741746E+02  0.00000000000E+00 0.  1.
         14    1    6    6    0    0  0.19856823105E+02 -0.29991022774E+02 -0.85759319979E+01  0.36977039910E+02  0.00000000000E+00 0. -1.
         -5    1    3    3    0  503 -0.42305917344E+02 -0.14204221853E+02 -0.70118042033E+03  0.70261484643E+03  0.47000000000E+01 0.  1.
         11    1    4    4    0    0  0.80437932966E+02 -0.33682145677E+02 -0.75333509633E+03  0.75836568709E+03  0.00000000000E+00 0. -1.
        -12    1    4    4    0    0  0.18076517483E+02  0.37612629797E+02 -0.29678853353E+03  0.29970803132E+03  0.00000000000E+00 0.  1.
</event>
<event>
12    1  0.8417180E-002  0.2076008E+03  0.7818608E-02  0.1143854E+00
         21   -1    0    0  503  502  0.00000000000E+00  0.00000000000E+00  0.14328054318E+04  0.14328054318E+04  0.00000000000E+00 0. -1.
         21   -1    0    0  501  503 -0.00000000000E+00 -0.00000000000E+00 -0.83814699948E+02  0.83814699948E+02  0.00000000000E+00 0.  1.
          6    2    1    2  501    0  0.93642735829E+02 -0.69100843091E+02  0.64733474049E+02  0.21569169927E+03  0.16967203064E+03 0.  0.
         24    2    3    3    0    0  0.86318561579E+02 -0.62374763831E+02 -0.16347461672E+02  0.13386815860E+03  0.79447713291E+02 0.  0.
         -6    2    1    2    0  502 -0.93642735829E+02  0.69100843091E+02  0.12842572578E+04  0.13009284325E+04  0.17191333200E+03 0.  0.
        -24    2    5    5    0    0 -0.61705945446E+00  0.11766685976E+02  0.82280232471E+03  0.82668827463E+03  0.79189659718E+02 0.  0.
          5    1    3    3  501    0  0.73241742496E+01 -0.67260792600E+01  0.81080935721E+02  0.81823540672E+02  0.47000000000E+01 0. -1.
        -13    1    4    4    0    0  0.38886944236E+02  0.14435317175E+02 -0.13233533278E+02  0.43539628122E+02  0.00000000000E+00 0.  1.
         14    1    4    4    0    0  0.47431617344E+02 -0.76810081006E+02 -0.31139283937E+01  0.90328530476E+02  0.00000000000E+00 0. -1.
         -5    1    5    5    0  502 -0.93025676374E+02  0.57334157115E+02  0.46145493309E+03  0.47424015785E+03  0.47000000000E+01 0.  1.
         11    1    6    6    0    0 -0.37538738128E+02 -0.70372518247E+01  0.43780570502E+03  0.43946844610E+03  0.00000000000E+00 0. -1.
        -12    1    6    6    0    0  0.36921678674E+02  0.18803937800E+02  0.38499661969E+03  0.38721982853E+03  0.00000000000E+00 0.  1.
</event>
<event>
12    1  0.8417180E-002  0.1843637E+03  0.7818608E-02  0.1164548E+00
         21   -1    0    0  503  502  0.00000000000E+00  0.00000000000E+00  0.28506957855E+03  0.28506957855E+03  0.00000000000E+00 0. -1.
         21   -1    0    0  501  503 -0.00000000000E+00 -0.00000000000E+00 -0.15359307814E+03  0.15359307814E+03  0.00000000000E+00 0. -1.
          6    2    1    2  501    0 -0.61110861899E+02  0.27537866940E+02 -0.41105598873E+02  0.18889053450E+03  0.17174717526E+03 0.  0.
         24    2    3    3    0    0  0.15083470570E+02  0.60352852846E+02 -0.25974715684E+02  0.10443088007E+03  0.79756786086E+02 0.  0.
         -6    2    1    2    0  502  0.61110861899E+02 -0.27537866940E+02  0.17258209928E+03  0.24977212218E+03  0.16765637616E+03 0.  0.
        -24    2    5    5    0    0  0.98039483707E+02 -0.60944820128E+02  0.10547390547E+03  0.16607416936E+03  0.55945272602E+02 0.  0.
          5    1    3    3  501    0 -0.76194332469E+02 -0.32814985906E+02 -0.15130883190E+02  0.84459654431E+02  0.47000000000E+01 0. -1.
        -11    1    4    4    0    0 -0.12530597791E+02  0.64125256424E+02 -0.36257448328E+02  0.74723938277E+02  0.00000000000E+00 0.  1.
         12    1    4    4    0    0  0.27614068361E+02 -0.37724035777E+01  0.10282732644E+02  0.29706941795E+02  0.00000000000E+00 0. -1.
         -5    1    5    5    0  502 -0.36928621808E+02  0.33406953188E+02  0.67108193814E+02  0.83697952824E+02  0.47000000000E+01 0.  1.
         13    1    6    6    0    0  0.83307791869E+02 -0.70361641770E+02  0.99440112830E+02  0.14757806361E+03  0.00000000000E+00 0. -1.
        -14    1    6    6    0    0  0.14731691838E+02  0.94168216423E+01  0.60337926409E+01  0.18496105749E+02  0.00000000000E+00 0.  1.
</event>
<event>
12    1  0.8417180E-002  0.2498830E+03  0.7818608E-02  0.1113663E+00
         21   -1    0    0  501  502  0.00000000000E+00  0.00000000000E+00  0.57376643162E+03  0.57376643162E+03  0.00000000000E+00 0. -1.
         21   -1    0    0  502  503 -0.00000000000E+00 -0.00000000000E+00 -0.13457970940E+03  0.13457970940E+03  0.00000000000E+00 0.  1.
         -6    2    1    2    0  503  0.17099965809E+03  0.49106691459E+02  0.62977112808E+02  0.25769682777E+03  0.17546848177E+03 0.  0.
        -24    2    3    3    0    0  0.11775415985E+03  0.17401914390E+02  0.10974118838E+03  0.17991993702E+03  0.78480484979E+02 0.  0.
          6    2    1    2  501    0 -0.17099965809E+03 -0.49106691459E+02  0.37620960941E+03  0.45064931324E+03  0.17291264587E+03 0.  0.
         24    2    5    5    0    0 -0.14366343393E+03  0.49372732485E+01  0.34342509101E+03  0.38162081246E+03  0.83845646631E+02 0.  0.
          5    1    5    5  501    0 -0.27336224163E+02 -0.54043964708E+02  0.32784518403E+02  0.69028500779E+02  0.47000000000E+01 0. -1.
        -11    1    6    6    0    0 -0.18740060011E+02  0.31042327658E+02  0.10659071207E+03  0.11258950153E+03  0.00000000000E+00 0.  1.
         12    1    6    6    0    0 -0.12492337392E+03 -0.26105054409E+02  0.23683437894E+03  0.26903131093E+03  0.00000000000E+00 0. -1.
         -5    1    3    3    0  503  0.53245498235E+02  0.31704777069E+02 -0.46764075571E+02  0.77776890754E+02  0.47000000000E+01 0.  1.
         13    1    4    4    0    0  0.33312054269E+02  0.27582117205E+02  0.77902381415E+02  0.89102453273E+02  0.00000000000E+00 0. -1.
        -14    1    4    4    0    0  0.84442105586E+02 -0.10180202815E+02  0.31838806964E+02  0.90817483746E+02  0.00000000000E+00 0.  1.
</event>
<event>
12    1  0.8417180E-002  0.1919181E+03  0.7818608E-02  0.1158709E+00
         21   -1    0    0  503  502  0.00000000000E+00  0.00000000000E+00  0.13681736727E+03  0.13681736727E+03  0.00000000000E+00 0.  1.
         21   -1    0    0  501  503 -0.00000000000E+00 -0.00000000000E+00 -0.35185215283E+03  0.35185215283E+03  0.00000000000E+00 0.  1.
          6    2    1    2  501    0 -0.82432255818E+01 -0.87930861102E+02 -0.23237895985E+03  0.29596925783E+03  0.16061766246E+03 0.  0.
         24    2    3    3    0    0  0.29669108514E+01 -0.61604871688E+02 -0.51694045793E+02  0.11297239161E+03  0.79287603817E+02 0.  0.
         -6    2    1    2    0  502  0.82432255818E+01  0.87930861102E+02  0.17344174297E+02  0.19270026228E+03  0.17039009243E+03 0.  0.
        -24    2    5    5    0    0  0.53250368166E+01 -0.14288407932E+02 -0.23921702739E+02  0.82326998326E+02  0.77285006133E+02 0.  0.
          5    1    3    3  501    0 -0.11210136433E+02 -0.26325989414E+02 -0.18068491406E+03  0.18299686622E+03  0.47000000000E+01 0. -1.
        -13    1    4    4    0    0 -0.15819338212E+02 -0.77540126044E+01 -0.53074450808E+02  0.55922030556E+02  0.00000000000E+00 0.  1.
         14    1    4    4    0    0  0.18786249063E+02 -0.53850859084E+02  0.13804050150E+01  0.57050361050E+02  0.00000000000E+00 0. -1.
         -5    1    5    5    0  502  0.29181887652E+01  0.10221926903E+03  0.41265877036E+02  0.11037326395E+03  0.47000000000E+01 0.  1.
         13    1    6    6    0    0  0.23755408627E+02  0.22553966239E+02 -0.24858661275E+02  0.41121209522E+02  0.00000000000E+00 0. -1.
        -14    1    6    6    0    0 -0.18430371811E+02 -0.36842374171E+02  0.93695853570E+00  0.41205788804E+02  0.00000000000E+00 0.  1.
</event>
<event>
12    1  0.8417180E-002  0.2514968E+03  0.7818608E-02  0.1112461E+00
         21   -1    0    0  501  502  0.00000000000E+00  0.00000000000E+00  0.34447888028E+03  0.34447888028E+03  0.00000000000E+00 0.  1.
         21   -1    0    0  502  503 -0.00000000000E+00 -0.00000000000E+00 -0.59623637267E+03  0.59623637267E+03  0.00000000000E+00 0. -1.
         -6    2    1    2    0  503 -0.14992836876E+03 -0.10676046346E+03 -0.51733516400E+03  0.57495286176E+03  0.17046644543E+03 0.  0.
        -24    2    3    3    0    0 -0.15060008748E+03 -0.28677276915E+02 -0.34896831237E+03  0.38930017001E+03  0.79202062914E+02 0.  0.
          6    2    1    2  501    0  0.14992836876E+03  0.10676046346E+03  0.26557767161E+03  0.36576239119E+03  0.17138936618E+03 0.  0.
         24    2    5    5    0    0  0.10499099949E+03  0.92992426158E+02  0.27394506105E+03  0.31779334686E+03  0.79221294727E+02 0.  0.
          5    1    5    5  501    0  0.44937369269E+02  0.13768037301E+02 -0.83673894446E+01  0.47969044331E+02  0.47000000000E+01 0. -1.
        -11    1    6    6    0    0  0.88198648773E+02  0.66866099399E+02  0.13092176698E+03  0.17143682791E+03  0.00000000000E+00 0.  1.
         12    1    6    6    0    0  0.16792350714E+02  0.26126326760E+02  0.14302329407E+03  0.14635651895E+03  0.00000000000E+00 0. -1.
         -5    1    3    3    0  503  0.67171872338E+00 -0.78083186544E+02 -0.16836685163E+03  0.18565269175E+03  0.47000000000E+01 0.  1.
         13    1    4    4    0    0 -0.10523868010E+03 -0.55437135224E+02 -0.25990054947E+03  0.28582643574E+03  0.00000000000E+00 0. -1.
        -14    1    4    4    0    0 -0.45361407376E+02  0.26759858308E+02 -0.89067762899E+02  0.10347373427E+03  0.00000000000E+00 0.  1.
</event>
<event>
12    1  0.8417180E-002  0.1810629E+03  0.7818608E-02  0.1166833E+00
         21   -1    0    0  501  502  0.00000000000E+00  0.00000000000E+00  0.77265133861E+02  0.77265133861E+02  0.00000000000E+00 0.  1.
         21   -1    0    0  502  503 -0.00000000000E+00 -0.00000000000E+00 -0.42772661870E+03  0.42772661870E+03  0.00000000000E+00 0.  1.
         -6    2    1    2    0  503 -0.50151225335E+02  0.17932726330E+02 -0.19961902182E+03  0.26950234394E+03  0.17305210613E+03 0.  0.
        -24    2    3    3    0    0  0.35799387742E+02  0.31558511927E+02 -0.11888075401E+03  0.15070029088E+03  0.79375110450E+02 0.  0.
          6    2    1    2  501    0  0.50151225335E+02 -0.17932726330E+02 -0.15084246302E+03  0.23548940863E+03  0.17281517540E+03 0.  0.
         24    2    5    5    0    0 -0.67477716606E+01  0.14944626633E+02 -0.11693548679E+02  0.81531860716E+02  0.79005258961E+02 0.  0.
          5    1    5    5  501    0  0.56898996996E+02 -0.32877352963E+02 -0.13914891434E+03  0.15395754791E+03  0.47000000000E+01 0. -1.
        -11    1    6    6    0    0  0.13827794813E+02 -0.13138321519E+01 -0.40358120926E+02  0.42681518119E+02  0.00000000000E+00 0.  1.
         12    1    6    6    0    0 -0.20575566474E+02  0.16258458785E+02  0.28664572247E+02  0.38850342596E+02  0.00000000000E+00 0. -1.
         -5    1    3    3    0  503 -0.85950613077E+02 -0.13625785597E+02 -0.80738267809E+02  0.11880205306E+03  0.47000000000E+01 0.  1.
         13    1    4    4    0    0 -0.20168960347E+02  0.19808420344E+02 -0.69911725350E+02  0.75410939653E+02  0.00000000000E+00 0. -1.
        -14    1    4    4    0    0  0.55968348089E+02  0.11750091584E+02 -0.48969028664E+02  0.75289351227E+02  0.00000000000E+00 0.  1.
</event>
<event>
12    1  0.8417180E-002  0.2837479E+03  0.7818608E-02  0.1093964E+00
         21   -1    0    0  503  502  0.00000000000E+00  0.00000000000E+00  0.10032787996E+04  0.10032787996E+04  0.00000000000E+00 0. -1.
         21   -1    0    0  501  503 -0.00000000000E+00 -0.00000000000E+00 -0.13132766501E+03  0.13132766501E+03  0.00000000000E+00 0. -1.
          6    2    1    2  501    0 -0.20853239958E+03 -0.86050695605E+02  0.81035577138E+02  0.29509259334E+03  0.17211156264E+03 0.  0.
         24    2    3    3    0    0 -0.61717951469E+02 -0.12490708173E+02  0.82040060027E+02  0.13081035781E+03  0.80097783600E+02 0.  0.
         -6    2    1    2    0  502  0.20853239958E+03  0.86050695605E+02  0.79091555747E+03  0.83951387130E+03  0.16836162617E+03 0.  0.
        -24    2    5    5    0    0  0.15205707276E+03  0.61221834220E+02  0.72771463276E+03  0.75106964152E+03  0.87564566591E+02 0.  0.
          5    1    3    3  501    0 -0.14681444811E+03 -0.73559987431E+02 -0.10044828884E+01  0.16428223553E+03  0.47000000000E+01 0. -1.
        -11    1    4    4    0    0 -0.26088992714E+02  0.30653975671E+02  0.13777272582E+02  0.42545446349E+02  0.00000000000E+00 0.  1.
         12    1    4    4    0    0 -0.35628958755E+02 -0.43144683844E+02  0.68262787444E+02  0.88264911463E+02  0.00000000000E+00 0. -1.
         -5    1    5    5    0  502  0.56475326814E+02  0.24828861385E+02  0.63200924717E+02  0.88444229781E+02  0.47000000000E+01 0.  1.
         11    1    6    6    0    0  0.14928247909E+03  0.31213692811E+02  0.54715899806E+03  0.56801630465E+03  0.00000000000E+00 0. -1.
        -12    1    6    6    0    0  0.27745936700E+01  0.30008141409E+02  0.18055563469E+03  0.18305333687E+03  0.00000000000E+00 0.  1.
</event>
<event>
12    1  0.8417180E-002  0.1863598E+03  0.7818608E-02  0.1162180E+00
         21   -1    0    0  501  502  0.00000000000E+00  0.00000000000E+00  0.27786605077E+03  0.27786605077E+03  0.00000000000E+00 0.  1.
         21   -1    0    0  502  503 -0.00000000000E+00 -0.00000000000E+00 -0.20016249681E+03  0.20016249681E+03  0.00000000000E+00 0.  1.
         -6    2    1    2    0  503 -0.60382006678E+02 -0.25788719319E+02 -0.10861536008E+03  0.21570183816E+03  0.17441026852E+03 0.  0.
        -24    2    3    3    0    0 -0.42269101790E+02 -0.28676681746E+02  0.94853672330E+01  0.96092936141E+02  0.80838426151E+02 0.  0.
          6    2    1    2  501    0  0.60382006678E+02  0.25788719319E+02  0.18631891404E+03  0.26232670942E+03  0.17259640776E+03 0.  0.
         24    2    5    5    0    0 -0.79890605179E+01 -0.11539858654E+02  0.15941028857E+03  0.17977860413E+03  0.81925044857E+02 0.  0.
          5    1    5    5  501    0  0.68371067196E+02  0.37328577973E+02  0.26908625469E+02  0.82548105294E+02  0.47000000000E+01 0. -1.
        -13    1    6    6    0    0 -0.36869345996E+02 -0.29428607677E+02  0.72843655797E+02  0.86784732607E+02  0.00000000000E+00 0.  1.
         14    1    6    6    0    0  0.28880285478E+02  0.17888749023E+02  0.86566632770E+02  0.92993871519E+02  0.00000000000E+00 0. -1.
         -5    1    3    3    0  503 -0.18112904889E+02  0.28879624279E+01 -0.11810072731E+03  0.11960890202E+03  0.47000000000E+01 0.  1.
         11    1    4    4    0    0 -0.34781398907E+02 -0.56740404229E+02  0.76291831109E+01  0.66988234914E+02  0.00000000000E+00 0. -1.
        -12    1    4    4    0    0 -0.74877028825E+01  0.28063722482E+02  0.18561841221E+01  0.29104701227E+02  0.00000000000E+00 0.  1.
</event>
<event>
12    1  0.8417180E-002  0.2312170E+03  0.7818608E-02  0.1125893E+00
         21   -1    0    0  501  502  0.00000000000E+00  0.00000000000E+00  0.70946580514E+02  0.70946580514E+02  0.00000000000E+00 0. -1.
         21   -1    0    0  502  503 -0.00000000000E+00 -0.00000000000E+00 -0.78130151146E+03  0.78130151146E+03  0.00000000000E+00 0.  1.
         -6    2    1    2    0  503  0.63400686011E+02  0.14065882690E+03 -0.43788361002E+03  0.49489404223E+03  0.17138700225E+03 0.  0.
        -24    2    3    3    0    0 -0.22221334279E+02  0.26003017446E+02 -0.18223923819E+03  0.20188684121E+03  0.79857448650E+02 0.  0.
          6    2    1    2  501    0 -0.63400686011E+02 -0.14065882690E+03 -0.27247132092E+03  0.35735404974E+03  0.17221133403E+03 0.  0.
         24    2    5    5    0    0 -0.83520731062E+02 -0.16252940318E+03 -0.24921672894E+03  0.31932768562E+03  0.80434280056E+02 0.  0.
          5    1    5    5  501    0  0.20120045051E+02  0.21870576279E+02 -0.23254591982E+02  0.38026364116E+02  0.47000000000E+01 0. -1.
        -13    1    6    6    0    0 -0.10377711097E+02 -0.14248006184E+02 -0.83110938970E+02  0.84959583005E+02  0.00000000000E+00 0.  1.
         14    1    6    6    0    0 -0.73143019965E+02 -0.14828139699E+03 -0.16610578997E+03  0.23436810262E+03  0.00000000000E+00 0. -1.
         -5    1    3    3    0  503  0.85622020290E+02  0.11465580945E+03 -0.25564437183E+03  0.29300720102E+03  0.47000000000E+01 0.  1.
         11    1    4    4    0    0 -0.42386661073E+02  0.23532290664E+02 -0.56203517193E+02  0.74224208218E+02  0.00000000000E+00 0. -1.
        -12    1    4    4    0    0  0.20165326794E+02  0.24707267822E+01 -0.12603572100E+03  0.12766263299E+03  0.00000000000E+00 0.  1.
</event>
<event>
12    1  0.8417180E-002  0.1829573E+03  0.7818608E-02  0.1165255E+00
         21   -1    0    0  501  502  0.00000000000E+00  0.00000000000E+00  0.15824778289E+03  0.15824778289E+03  0.00000000000E+00 0. -1.
         21   -1    0    0  502  503 -0.00000000000E+00 -0.00000000000E+00 -0.28233360628E+03  0.28233360628E+03  0.00000000000E+00 0. -1.
         -6    2    1    2    0  503 -0.32409614375E+02  0.51574112481E+02 -0.17358065567E+03  0.25219756807E+03  0.17251984564E+03 0.  0.
        -24    2    3    3    0    0 -0.21917607764E+02 -0.24358196311E+02 -0.14528449410E+03  0.17035283409E+03  0.82697041055E+02 0.  0.
          6    2    1    2  501    0  0.32409614375E+02 -0.51574112481E+02  0.49494832277E+02  0.18838382109E+03  0.17125552092E+03 0.  0.
         24    2    5    5    0    0 -0.21819433857E+02  0.26059077520E+02  0.34140861458E+02  0.92334165803E+02  0.78770784803E+02 0.  0.
          5    1    5    5  501    0  0.54229048231E+02 -0.77633190001E+02  0.15353970820E+02  0.96049655292E+02  0.47000000000E+01 0. -1.
        -13    1    6    6    0    0 -0.31904938717E+02  0.12054627985E+02  0.55335431918E+02  0.65001916864E+02  0.00000000000E+00 0.  1.
         14    1    6    6    0    0  0.10085504861E+02  0.14004449535E+02 -0.21194570461E+02  0.27332248939E+02  0.00000000000E+00 0. -1.
         -5    1    3    3    0  503 -0.10492006611E+02  0.75932308792E+02 -0.28296161565E+02  0.81844733981E+02  0.47000000000E+01 0.  1.
         11    1    4    4    0    0 -0.28834251860E+02  0.21557057976E+02 -0.32965738948E+02  0.48814554932E+02  0.00000000000E+00 0. -1.
        -12    1    4    4    0    0  0.69166440956E+01 -0.45915254287E+02 -0.11231875516E+03  0.12153827916E+03  0.00000000000E+00 0.  1.
</event>
<event>
12    1  0.8417180E-002  0.1921114E+03  0.7818608E-02  0.1157072E+00
         21   -1    0    0  503  502  0.00000000000E+00  0.00000000000E+00  0.97138203490E+02  0.97138203490E+02  0.00000000000E+00 0. -1.
         21   -1    0    0  501  503 -0.00000000000E+00 -0.00000000000E+00 -0.66782560138E+03  0.66782560138E+03  0.00000000000E+00 0.  1.
          6    2    1    2  501    0 -0.64305513570E+02 -0.59365081268E+02 -0.53932902494E+03  0.57252300213E+03  0.17101865064E+03 0.  0.
         24    2    3    3    0    0 -0.88987110376E+02 -0.52194799022E+02 -0.52836129543E+03  0.54418618404E+03  0.79560929698E+02 0.  0.
         -6    2    1    2    0  502  0.64305513570E+02  0.59365081268E+02 -0.31358372947E+02  0.19244080274E+03  0.16849540960E+03 0.  0.
        -24    2    5    5    0    0  0.11248160192E+02 -0.27839265091E+02 -0.34206496118E+02  0.90216135580E+02  0.77893009659E+02 0.  0.
          5    1    3    3  501    0  0.24681596806E+02 -0.71702822463E+01 -0.10967729511E+02  0.28336818082E+02  0.47000000000E+01 0. -1.
        -13    1    4    4    0    0 -0.25561820374E+02 -0.61089835115E+02 -0.27230088431E+03  0.28023766023E+03  0.00000000000E+00 0.  1.
         14    1    4    4    0    0 -0.63425290002E+02  0.88950360927E+01 -0.25606041112E+03  0.26394852381E+03  0.00000000000E+00 0. -1.
         -5    1    5    5    0  502  0.53057353378E+02  0.87204346359E+02  0.28481231702E+01  0.10222466716E+03  0.47000000000E+01 0.  1.
         11    1    6    6    0    0  0.25122806759E+02 -0.39610343703E+02  0.48238805402E+01  0.47152991116E+02  0.00000000000E+00 0. -1.
        -12    1    6    6    0    0 -0.13874646567E+02  0.11771078612E+02 -0.39030376658E+02  0.43063144464E+02  0.00000000000E+00 0.  1.
</event>
<event>
12    1  0.8417180E-002  0.1988209E+03  0.7818608E-02  0.1151208E+00
         21   -1    0    0  501  502  0.00000000000E+00  0.00000000000E+00  0.83101959222E+02  0.83101959222E+02  0.00000000000E+00 0. -1.
         21   -1    0    0  502  503 -0.00000000000E+00 -0.00000000000E+00 -0.61442573536E+03  0.61442573536E+03  0.00000000000E+00 0.  1.
         -6    2    1    2    0  503  0.90352072136E+02  0.39674496713E+02 -0.43336795846E+03  0.47588589832E+03  0.17006480579E+03 0.  0.
        -24    2    3    3    0    0  0.85075330524E+01  0.69623500503E+02 -0.20791080011E+03  0.23412466971E+03  0.81655680906E+02 0.  0.
          6    2    1    2  501    0 -0.90352072136E+02 -0.39674496713E+02 -0.97955817680E+02  0.22164179627E+03  0.17260411642E+03 0.  0.
         24    2    5    5    0    0 -0.36005808113E+02  0.43406997690E+02 -0.69754465271E+02  0.11832937009E+03  0.77172331399E+02 0.  0.
          5    1    5    5  501    0 -0.54346264023E+02 -0.83081494402E+02 -0.28201352409E+02  0.10331242618E+03  0.47000000000E+01 0. -1.
        -11    1    6    6    0    0  0.12850022933E+02 -0.11298939743E+02 -0.12574062884E-02  0.17111082090E+02  0.00000000000E+00 0.  1.
         12    1    6    6    0    0 -0.48855831046E+02  0.54705937433E+02 -0.69753207864E+02  0.10121828800E+03  0.00000000000E+00 0. -1.
         -5    1    3    3    0  503  0.81844539084E+02 -0.29949003791E+02 -0.22545715835E+03  0.24176122860E+03  0.47000000000E+01 0.  1.
         11    1    4    4    0    0  0.71701006226E+01  0.47850449996E+02 -0.34689376576E+02  0.59535105232E+02  0.00000000000E+00 0. -1.
        -12    1    4    4    0    0  0.13374324298E+01  0.21773050507E+02 -0.17322142354E+03  0.17458956448E+03  0.00000000000E+00 0.  1.
</event>
<event>
12    1  0.8417180E-002  0.1991381E+03  0.7818608E-02  0.1150483E+00
         21   -1    0    0  501  502  0.00000000000E+00  0.00000000000E+00  0.61653202399E+03  0.61653202399E+03  0.00000000000E+00 0.  1.
         21   -1    0    0  502  503 -0.00000000000E+00 -0.00000000000E+00 -0.15205846829E+03  0.15205846829E+03  0.00000000000E+00 0.  1.
         -6    2    1    2    0  503  0.75530660322E+02 -0.66413022775E+02  0.52420454215E+03  0.56075518633E+03  0.17187322870E+03 0.  0.
        -24    2    3    3    0    0  0.95516326560E+02 -0.21395854275E+02  0.47485504374E+03  0.49087360573E+03  0.76736125847E+02 0.  0.
          6    2    1    2  501    0 -0.75530660322E+02  0.66413022775E+02 -0.59730986441E+02  0.20783530595E+03  0.17179101669E+03 0.  0.
         24    2    5    5    0    0 -0.93522974759E+02  0.86265349919E+02 -0.88918423968E+01  0.15017642252E+03  0.79282000568E+02 0.  0.
          5    1    5    5  501    0  0.17992314436E+02 -0.19852327145E+02 -0.50839144044E+02  0.57658883435E+02  0.47000000000E+01 0. -1.
        -11    1    6    6    0    0 -0.32150259934E+02  0.77345257742E+02 -0.22400391797E+02  0.86704703803E+02  0.00000000000E+00 0.  1.
         12    1    6    6    0    0 -0.61372714825E+02  0.89200921777E+01  0.13508549400E+02  0.63471718713E+02  0.00000000000E+00 0. -1.
         -5    1    3    3    0  503 -0.19985666238E+02 -0.45017168500E+02  0.49349498406E+02  0.69881580603E+02  0.47000000000E+01 0.  1.
         11    1    4    4    0    0  0.32382148258E+02  0.23439179200E+02  0.24715773329E+03  0.25036961432E+03  0.00000000000E+00 0. -1.
        -12    1    4    4    0    0  0.63134178302E+02 -0.44835033475E+02  0.22769731045E+03  0.24050399141E+03  0.00000000000E+00 0.  1.
</event>
<event>
12    1  0.8417180E-002  0.1854443E+03  0.7818608E-02  0.1163070E+00
         21   -1    0    0  501  502  0.00000000000E+00  0.00000000000E+00  0.13309915040E+03  0.13309915040E+03  0.00000000000E+00 0.  1.
         21   -1    0    0  502  503 -0.00000000000E+00 -0.00000000000E+00 -0.40443497888E+03  0.40443497888E+03  0.00000000000E+00 0. -1.
         -6    2    1    2    0  503 -0.81486780105E+01  0.67783194293E+02 -0.29903509682E+03  0.35186871534E+03  0.17241995627E+03 0.  0.
        -24    2    3    3    0    0  0.46370400883E+02  0.79999022591E+02 -0.15666938420E+03  0.19886007979E+03  0.80311753140E+02 0.  0.
          6    2    1    2  501    0  0.81486780105E+01 -0.67783194293E+02  0.27699268338E+02  0.18566541394E+03  0.17042134281E+03 0.  0.
         24    2    5    5    0    0 -0.36033485622E+02  0.11277023076E+02  0.31852648838E+02  0.94880381452E+02  0.81006865208E+02 0.  0.
          5    1    5    5  501    0  0.44182163633E+02 -0.79060217369E+02 -0.41533805003E+01  0.90785032485E+02  0.47000000000E+01 0. -1.
        -13    1    6    6    0    0 -0.29476577565E+02  0.39383368298E+02 -0.34123504200E+01  0.49310875665E+02  0.00000000000E+00 0.  1.
         14    1    6    6    0    0 -0.65569080575E+01 -0.28106345222E+02  0.35264999258E+02  0.45569505787E+02  0.00000000000E+00 0. -1.
         -5    1    3    3    0  503 -0.54519078893E+02 -0.12215828298E+02 -0.14236571262E+03  0.15300863555E+03  0.47000000000E+01 0.  1.
         11    1    4    4    0    0 -0.16109914584E+02  0.25647843517E+02 -0.81777171654E+02  0.87205774056E+02  0.00000000000E+00 0. -1.
        -12    1    4    4    0    0  0.62480315467E+02  0.54351179074E+02 -0.74892212549E+02  0.11165430573E+03  0.00000000000E+00 0.  1.
</event>
<event>
12    1  0.8417180E-002  0.2113817E+03  0.7818608E-02  0.1140869E+00
         21   -1    0    0  501  502  0.00000000000E+00  0.00000000000E+00  0.10856862335E+03  0.10856862335E+03  0.00000000000E+00 0.  1.
         21   -1    0    0  502  503 -0.00000000000E+00 -0.00000000000E+00 -0.77324283044E+03  0.77324283044E+03  0.00000000000E+00 0. -1.
         -6    2    1    2    0  503  0.12011973272E+03  0.91087535260E+01 -0.63631706600E+03  0.67050848673E+03  0.17369658233E+03 0.  0.
        -24    2    3    3    0    0  0.58197092926E+02 -0.29874395916E+02 -0.54419559828E+03  0.55276913870E+03  0.71592530029E+02 0.  0.
          6    2    1    2  501    0 -0.12011973272E+03 -0.91087535260E+01 -0.28357141089E+02  0.21130296706E+03  0.17126907736E+03 0.  0.
         24    2    5    5    0    0 -0.12376343506E+02 -0.25929833814E+02 -0.50718016087E+02  0.99886247527E+02  0.81113593984E+02 0.  0.
          5    1    5    5  501    0 -0.10774338921E+03  0.16821080288E+02  0.22360874998E+02  0.11141671954E+03  0.47000000000E+01 0. -1.
        -11    1    6    6    0    0  0.39630127302E+01  0.25315671712E+02  0.47907248015E+00  0.25628464928E+02  0.00000000000E+00 0.  1.
         12    1    6    6    0    0 -0.16339356236E+02 -0.51245505526E+02 -0.51197088567E+02  0.74257782599E+02  0.00000000000E+00 0. -1.
         -5    1    3    3    0  503  0.61922639794E+02  0.38983149442E+02 -0.92121467722E+02  0.11773934803E+03  0.47000000000E+01 0.  1.
         13    1    4    4    0    0  0.65823451482E+02 -0.13030096087E+02 -0.28002678692E+03  0.28795400946E+03  0.00000000000E+00 0. -1.
        -14    1    4    4    0    0 -0.76263585551E+01 -0.16844299829E+02 -0.26416881136E+03  0.26481512924E+03  0.00000000000E+00 0.  1.
</event>
<event>
12    1  0.8417180E-002  0.1998111E+03  0.7818608E-02  0.1150937E+00
         21   -1    0    0  501  502  0.00000000000E+00  0.00000000000E+00  0.28140347089E+03  0.28140347089E+03  0.00000000000E+00 0. -1.
         21   -1    0    0  502  503 -0.00000000000E+00 -0.00000000000E+00 -0.69940912255E+03  0.69940912255E+03  0.00000000000E+00 0. -1.
         -6    2    1    2    0  503  0.97796785018E+02 -0.23919708869E+02 -0.64869747642E+03  0.67877308561E+03  0.17259235845E+03 0.  0.
        -24    2    3    3    0    0  0.12383765219E+03  0.15697984155E+02 -0.42428546924E+03  0.44935964369E+03  0.79521941406E+02 0.  0.
          6    2    1    2  501    0 -0.97796785018E+02  0.23919708869E+02  0.23069182477E+03  0.30203950783E+03  0.16695143798E+03 0.  0.
         24    2    5    5    0    0  0.62196452857E+01 -0.87092336621E+01  0.63254156417E+02  0.10218574018E+03  0.79538056633E+02 0.  0.
          5    1    5    5  501    0 -0.10401643030E+03  0.32628942531E+02  0.16743766835E+03  0.19985376765E+03  0.47000000000E+01 0. -1.
        -11    1    6    6    0    0  0.11539996493E+01 -0.32353853059E+02 -0.21588179217E+01  0.32446325181E+02  0.00000000000E+00 0.  1.
         12    1    6    6    0    0  0.50656456364E+01  0.23644619396E+02  0.65412974339E+02  0.69739414996E+02  0.00000000000E+00 0. -1.
         -5    1    3    3    0  503 -0.26040867172E+02 -0.39617693024E+02 -0.22441200718E+03  0.22941344191E+03  0.47000000000E+01 0.  1.
         13    1    4    4    0    0  0.65343703516E+02 -0.30616028876E+02 -0.23764395682E+03  0.24835819098E+03  0.00000000000E+00 0. -1.
        -14    1    4    4    0    0  0.58493948673E+02  0.46314013032E+02 -0.18664151242E+03  0.20100145271E+03  0.00000000000E+00 0.  1.
</event>
<event>
12    1  0.8417180E-002  0.2444661E+03  0.7818608E-02  0.1117202E+00
         21   -1    0    0  501  502  0.00000000000E+00  0.00000000000E+00  0.14300622768E+03  0.14300622768E+03  0.00000000000E+00 0.  1.
         21   -1    0    0  502  503 -0.00000000000E+00 -0.00000000000E+00 -0.41821925906E+03  0.41821925906E+03  0.00000000000E+00 0.  1.
         -6    2    1    2    0  503  0.70037325752E+02  0.15840149561E+03 -0.16429300384E+03  0.29277265361E+03  0.16949151832E+03 0.  0.
        -24    2    3    3    0    0  0.21467836146E+02  0.35990004726E+02 -0.11388818874E+02  0.90917883536E+02  0.79876203731E+02 0.  0.
          6    2    1    2  501    0 -0.70037325752E+02 -0.15840149561E+03 -0.11092002754E+03  0.26845283313E+03  0.17253234565E+03 0.  0.
         24    2    5    5    0    0 -0.82357538552E+02 -0.10237239813E+03 -0.12553621504E+02  0.15448315626E+03  0.80278142115E+02 0.  0.
          5    1    5    5  501    0  0.12320212800E+02 -0.56029097483E+02 -0.98366406034E+02  0.11396967686E+03  0.47000000000E+01 0. -1.
        -11    1    6    6    0    0 -0.26380228839E+02  0.32397066303E+01 -0.22109087673E+02  0.34572010794E+02  0.00000000000E+00 0.  1.
         12    1    6    6    0    0 -0.55977309714E+02 -0.10561210476E+03  0.95554661685E+01  0.11991114547E+03  0.00000000000E+00 0. -1.
         -5    1    3    3    0  503  0.48569489607E+02  0.12241149088E+03 -0.15290418497E+03  0.20185477007E+03  0.47000000000E+01 0.  1.
         13    1    4    4    0    0 -0.25315453339E+02  0.30157900078E+01 -0.20812818705E+02  0.32911101312E+02  0.00000000000E+00 0. -1.
        -14    1    4    4    0    0  0.46783289484E+02  0.32974214718E+02  0.94239998313E+01  0.58006782225E+02  0.00000000000E+00 0.  1.
</event>
<event>
12    1  0.8417180E-002  0.1901092E+03  0.7818608E-02  0.1162862E+00
         21   -1    0    0  501  502  0.00000000000E+00  0.00000000000E+00  0.85312678754E+02  0.85312678754E+02  0.00000000000E+00 0.  1.
         21   -1    0    0  502  503 -0.00000000000E+00 -0.00000000000E+00 -0.41193644981E+03  0.41193644981E+03  0.00000000000E+00 0.  1.
         -6    2    1    2    0  503 -0.65724155498E+01 -0.80531568837E+02 -0.23750136578E+03  0.30421769283E+03  0.17208421095E+03 0.  0.
        -24    2    3    3    0    0  0.38247586794E+02 -0.52823040648E+02 -0.58611471293E+02  0.11766936265E+03  0.78470521984E+02 0.  0.
          6    2    1    2  501    0  0.65724155498E+01  0.80531568837E+02 -0.89122405281E+02  0.19303143574E+03  0.15096291543E+03 0.  0.
         24    2    5    5    0    0  0.23264980202E+02  0.11017674121E+03 -0.64064462078E+02  0.15051710313E+03  0.76622251507E+02 0.  0.
          5    1    5    5  501    0 -0.16692564652E+02 -0.29645172371E+02 -0.25057943203E+02  0.42514332608E+02  0.47000000000E+01 0. -1.
        -11    1    6    6    0    0  0.67536995234E+01  0.54307340278E+02 -0.73358243250E+02  0.91522300660E+02  0.00000000000E+00 0.  1.
         12    1    6    6    0    0  0.16511280679E+02  0.55869400929E+02  0.92937811722E+01  0.58994802469E+02  0.00000000000E+00 0. -1.
         -5    1    3    3    0  503 -0.44820002344E+02 -0.27708528189E+02 -0.17888989449E+03  0.18654833018E+03  0.47000000000E+01 0.  1.
         11    1    4    4    0    0  0.51877499996E+02 -0.13013526765E+02 -0.52862640516E+02  0.75200303504E+02  0.00000000000E+00 0. -1.
        -12    1    4    4    0    0 -0.13629913202E+02 -0.39809513882E+02 -0.57488307773E+01  0.42469059146E+02  0.00000000000E+00 0.  1.
</event>
<event>
12    1  0.8417180E-002  0.1813339E+03  0.7818608E-02  0.1166749E+00
         21   -1    0    0  501  502  0.00000000000E+00  0.00000000000E+00  0.68199767508E+03  0.68199767508E+03  0.00000000000E+00 0. -1.
         21   -1    0    0  502  503 -0.00000000000E+00 -0.00000000000E+00 -0.72274882863E+02  0.72274882863E+02  0.00000000000E+00 0. -1.
         -6    2    1    2    0  503  0.46860368288E+02 -0.29924555096E+02  0.86649473508E+02  0.20097291641E+03  0.17259956187E+03 0.  0.
        -24    2    3    3    0    0  0.43389769900E+02  0.16751024222E+02  0.11513213258E+03  0.14598194783E+03  0.76759704243E+02 0.  0.
          6    2    1    2  501    0 -0.46860368288E+02  0.29924555096E+02  0.52307331871E+03  0.55329964153E+03  0.17159086065E+03 0.  0.
         24    2    5    5    0    0 -0.12247258496E+02 -0.16009467987E+02  0.11396404514E+03  0.14014048386E+03  0.79026914566E+02 0.  0.
          5    1    5    5  501    0 -0.34613109792E+02  0.45934023083E+02  0.40910927357E+03  0.41315915767E+03  0.47000000000E+01 0. -1.
        -11    1    6    6    0    0  0.29299477982E+02 -0.98797142186E+01  0.81160267777E+02  0.86850775637E+02  0.00000000000E+00 0.  1.
         12    1    6    6    0    0 -0.41546736478E+02 -0.61297537686E+01  0.32803777362E+02  0.53289708222E+02  0.00000000000E+00 0. -1.
         -5    1    3    3    0  503  0.34705983881E+01 -0.46675579318E+02 -0.28482659073E+02  0.54990968583E+02  0.47000000000E+01 0.  1.
         13    1    4    4    0    0  0.63908642737E+02  0.64092943848E+01  0.67948264487E+02  0.93500589932E+02  0.00000000000E+00 0. -1.
        -14    1    4    4    0    0 -0.20518872837E+02  0.10341729837E+02  0.47183868094E+02  0.52481357898E+02  0.00000000000E+00 0.  1.
</event>
<event>
12    1  0.8417180E-002  0.2070950E+03  0.7818608E-02  0.1143919E+00
         21   -1    0    0  503  502  0.00000000000E+00  0.00000000000E+00  0.46890243245E+03  0.46890243245E+03  0.00000000000E+00 0. -1.
         21   -1    0    0  501  503 -0.00000000000E+00 -0.00000000000E+00 -0.11681167684E+03  0.11681167684E+03  0.00000000000E+00 0. -1.
          6    2    1    2  501    0  0.10380337671E+03  0.48434133080E+02  0.39493949685E+02  0.21082724083E+03  0.17253216266E+03 0.  0.
         24    2    3    3    0    0  0.11403388506E+02  0.19171889688E+02 -0.33625888141E+02  0.89325646637E+02  0.79691732132E+02 0.  0.
         -6    2    1    2    0  502 -0.10380337671E+03 -0.48434133080E+02  0.31259680593E+03  0.37488686846E+03  0.17234382728E+03 0.  0.
        -24    2    5    5    0    0  0.11277487723E+02 -0.29545763057E+02  0.10249179235E+03  0.13454007191E+03  0.81217791193E+02 0.  0.
          5    1    3    3  501    0  0.92399988200E+02  0.29262243392E+02  0.73119837825E+02  0.12150159419E+03  0.47000000000E+01 0. -1.
        -11    1    4    4    0    0  0.22479621294E+01  0.25599925389E+02  0.21234475357E+02  0.33336353390E+02  0.00000000000E+00 0.  1.
         12    1    4    4    0    0  0.91554263765E+01 -0.64280357006E+01 -0.54860363498E+02  0.55989293246E+02  0.00000000000E+00 0. -1.
         -5    1    5    5    0  502 -0.11508086443E+03 -0.18888370023E+02  0.21010501358E+03  0.24034679654E+03  0.47000000000E+01 0.  1.
         13    1    6    6    0    0 -0.29445155029E+02 -0.25861076310E+02  0.76879452801E+02  0.86291730111E+02  0.00000000000E+00 0. -1.
        -14    1    6    6    0    0  0.40722642752E+02 -0.36846867469E+01  0.25612339552E+02  0.48248341801E+02  0.00000000000E+00 0.  1.
</event>
<event>
12    1  0.8417180E-002  0.2151130E+03  0.7818608E-02  0.1137595E+00
         21   -1    0    0  501  502  0.00000000000E+00  0.00000000000E+00  0.11118660816E+03  0.11118660816E+03  0.00000000000E+00 0. -1.
         21   -1    0    0  502  503 -0.00000000000E+00 -0.00000000000E+00 -0.47412900710E+03  0.47412900710E+03  0.00000000000E+00 0.  1.
         -6    2    1    2    0  503 -0.87595920631E+02 -0.94948628763E+02 -0.78993136837E+02  0.22908424295E+03  0.17190516946E+03 0.  0.
        -24    2    3    3    0    0 -0.68563316087E+02 -0.26686431095E+02  0.17910007715E+02  0.10894150663E+03  0.78322344029E+02 0.  0.
          6    2    1    2  501    0  0.87595920631E+02  0.94948628763E+02 -0.28394926211E+03  0.35623137231E+03  0.17200383643E+03 0.  0.
         24    2    5    5    0    0  0.63284880360E+02  0.11577257210E+03 -0.13514876454E+03  0.20395418632E+03  0.76966596836E+02 0.  0.
          5    1    5    5  501    0  0.24311040271E+02 -0.20823943334E+02 -0.14880049757E+03  0.15227718599E+03  0.47000000000E+01 0. -1.
        -11    1    6    6    0    0 -0.87690814363E+01  0.58531734992E+02 -0.67301277864E+02  0.89623226859E+02  0.00000000000E+00 0.  1.
         12    1    6    6    0    0  0.72053961796E+02  0.57240837105E+02 -0.67847486674E+02  0.11433095946E+03  0.00000000000E+00 0. -1.
         -5    1    3    3    0  503 -0.19032604544E+02 -0.68262197668E+02 -0.96903144553E+02  0.12014273632E+03  0.47000000000E+01 0.  1.
         13    1    4    4    0    0 -0.76289693337E+02 -0.40638472394E+02  0.27034241149E+02  0.90567394478E+02  0.00000000000E+00 0. -1.
        -14    1    4    4    0    0  0.77263772503E+01  0.13952041299E+02 -0.91242334337E+01  0.18374112157E+02  0.00000000000E+00 0.  1.
</event>
<event>
12    1  0.8417180E-002  0.2759730E+03  0.7818608E-02  0.1097998E+00
         21   -1    0    0  503  502  0.00000000000E+00  0.00000000000E+00  0.68953512488E+02  0.68953512488E+02  0.00000000000E+00 0.  1.
         21   -1    0    0  501  503 -0.00000000000E+00 -0.00000000000E+00 -0.11785714814E+04  0.11785714814E+04  0.00000000000E+00 0. -1.
          6    2    1    2  501    0 -0.99301300909E+02 -0.19129945216E+03 -0.71322789051E+03  0.76452789686E+03  0.17132615828E+03 0.  0.
         24    2    3    3    0    0 -0.98043641799E+02 -0.63770012845E+02 -0.29261883022E+03  0.32498334713E+03  0.79430635620E+02 0.  0.
         -6    2    1    2    0  502  0.99301300909E+02  0.19129945216E+03 -0.39639007845E+03  0.48299709708E+03  0.17235101605E+03 0.  0.
        -24    2    5    5    0    0  0.68888290070E+02  0.13700926863E+03 -0.37872887466E+03  0.41814045998E+03  0.88818621739E+02 0.  0.
          5    1    3    3  501    0 -0.12576591106E+01 -0.12752943932E+03 -0.42060906029E+03  0.43954454973E+03  0.47000000000E+01 0. -1.
        -13    1    4    4    0    0  0.45878543860E+00  0.14364869862E+02 -0.18676021885E+02  0.23565944998E+02  0.00000000000E+00 0.  1.
         14    1    4    4    0    0 -0.98502427237E+02 -0.78134882707E+02 -0.27394280834E+03  0.30141740213E+03  0.00000000000E+00 0. -1.
         -5    1    5    5    0  502  0.30413010839E+02  0.54290183537E+02 -0.17661203785E+02  0.64856637100E+02  0.47000000000E+01 0.  1.
         13    1    6    6    0    0  0.13076873888E+02  0.96177710526E+02 -0.14572497746E+03  0.17509119249E+03  0.00000000000E+00 0. -1.
        -14    1    6    6    0    0  0.55811416182E+02  0.40831558102E+02 -0.23300389720E+03  0.24304926748E+03  0.00000000000E+00 0.  1.
</event>
<event>
12    1  0.8417180E-002  0.2255732E+03  0.7818608E-02  0.1129924E+00
         21   -1    0    0  501  502  0.00000000000E+00  0.00000000000E+00  0.14303020315E+03  0.14303020315E+03  0.00000000000E+00 0.  1.
         21   -1    0    0  502  503 -0.00000000000E+00 -0.00000000000E+00 -0.36780172768E+03  0.36780172768E+03  0.00000000000E+00 0. -1.
         -6    2    1    2    0  503  0.67587549219E+02  0.12805728715E+03 -0.63877727718E+02  0.23375782112E+03  0.17203374447E+03 0.  0.
        -24    2    3    3    0    0  0.25802959654E+02 -0.10068493829E+02 -0.27951414250E+02  0.84971150699E+02  0.75310341903E+02 0.  0.
          6    2    1    2  501    0 -0.67587549219E+02 -0.12805728715E+03 -0.16089379682E+03  0.27707410971E+03  0.17296387719E+03 0.  0.
         24    2    5    5    0    0 -0.19977193610E+01 -0.10845639228E+03 -0.42802520952E+02  0.14049497405E+03  0.78358165020E+02 0.  0.
          5    1    5    5  501    0 -0.65589829858E+02 -0.19600894872E+02 -0.11809127587E+03  0.13657913566E+03  0.47000000000E+01 0. -1.
        -13    1    6    6    0    0 -0.66531459395E+01 -0.19527650558E+01  0.16930561096E+02  0.18295396724E+02  0.00000000000E+00 0.  1.
         14    1    6    6    0    0  0.46554265784E+01 -0.10650362722E+03 -0.59733082048E+02  0.12219957733E+03  0.00000000000E+00 0. -1.
         -5    1    3    3    0  503  0.41784589565E+02  0.13812578098E+03 -0.35926313468E+02  0.14878667042E+03  0.47000000000E+01 0.  1.
         13    1    4    4    0    0 -0.23215746691E+02  0.11215899342E+01 -0.25685138291E+02  0.34640369332E+02  0.00000000000E+00 0. -1.
        -14    1    4    4    0    0  0.49018706344E+02 -0.11190083763E+02 -0.22662759585E+01  0.50330781367E+02  0.00000000000E+00 0.  1.
</event>
<event>
12    1  0.8417180E-002  0.1908469E+03  0.7818608E-02  0.1157723E+00
         21   -1    0    0  503  502  0.00000000000E+00  0.00000000000E+00  0.10252429589E+04  0.10252429589E+04  0.00000000000E+00 0. -1.
         21   -1    0    0  501  503 -0.00000000000E+00 -0.00000000000E+00 -0.50272415380E+02  0.50272415380E+02  0.00000000000E+00 0. -1.
          6    2    1    2  501    0 -0.79886372948E+02 -0.27668817870E+01  0.77901930993E+03  0.80205587256E+03  0.17330045948E+03 0.  0.
         24    2    3    3    0    0 -0.97695672220E+02  0.30747160256E+02  0.37800299814E+03  0.39922025537E+03  0.77464272188E+02 0.  0.
         -6    2    1    2    0  502  0.79886372948E+02  0.27668817870E+01  0.19595123357E+03  0.27345950169E+03  0.17318696519E+03 0.  0.
        -24    2    5    5    0    0  0.12696700332E+02 -0.93442664544E+01  0.18719555448E+03  0.20446758960E+03  0.80723590498E+02 0.  0.
          5    1    3    3  501    0  0.17809299271E+02 -0.33514042043E+02  0.40101631179E+03  0.40283561719E+03  0.47000000000E+01 0. -1.
        -11    1    4    4    0    0 -0.41694238369E+02  0.37659811029E+01  0.49235276163E+02  0.64627428741E+02  0.00000000000E+00 0.  1.
         12    1    4    4    0    0 -0.56001433851E+02  0.26981179153E+02  0.32876772197E+03  0.33459282663E+03  0.00000000000E+00 0. -1.
         -5    1    5    5    0  502  0.67189672616E+02  0.12111148241E+02  0.87556790840E+01  0.68991912093E+02  0.47000000000E+01 0.  1.
         13    1    6    6    0    0  0.79431195129E+01  0.49953807241E+01 -0.57016075217E+01  0.10979767962E+02  0.00000000000E+00 0. -1.
        -14    1    6    6    0    0  0.47535808192E+01 -0.14339647178E+02  0.19289716200E+03  0.19348782164E+03  0.00000000000E+00 0.  1.
</event>
<event>
12    1  0.8417180E-002  0.1845913E+03  0.7818608E-02  0.1163535E+00
         21   -1    0    0  503  502  0.00000000000E+00  0.00000000000E+00  0.13138446122E+03  0.13138446122E+03  0.00000000000E+00 0. -1.
         21   -1    0    0  501  503 -0.00000000000E+00 -0.00000000000E+00 -0.29068406457E+03  0.29068406457E+03  0.00000000000E+00 0. -1.
          6    2    1    2  501    0  0.29671162014E+02  0.57564011289E+02 -0.95923607725E+01  0.18440022624E+03  0.17238746126E+03 0.  0.
         24    2    3    3    0    0  0.49022225427E+01 -0.26601429081E+02 -0.36635655751E+02  0.92472257054E+02  0.80481545943E+02 0.  0.
         -6    2    1    2    0  502 -0.29671162014E+02 -0.57564011289E+02 -0.14970724257E+03  0.23766829955E+03  0.17285823348E+03 0.  0.
        -24    2    5    5    0    0  0.45303216808E+02 -0.26894429265E+02 -0.48907744809E+02  0.10826810832E+03  0.80958779624E+02 0.  0.
          5    1    3    3  501    0  0.24768939471E+02  0.84165440370E+02  0.27043294979E+02  0.91927969185E+02  0.47000000000E+01 0. -1.
        -13    1    4    4    0    0 -0.24564124872E+02 -0.26467277144E+02  0.98545289438E+01  0.37430264905E+02  0.00000000000E+00 0.  1.
         14    1    4    4    0    0  0.29466347415E+02 -0.13415193699E+00 -0.46490184695E+02  0.55041992149E+02  0.00000000000E+00 0. -1.
         -5    1    5    5    0  502 -0.74974378823E+02 -0.30669582024E+02 -0.10079949776E+03  0.12940019123E+03  0.47000000000E+01 0.  1.
         13    1    6    6    0    0  0.69766079905E+01 -0.42358304780E+02  0.16585907390E+01  0.42961028458E+02  0.00000000000E+00 0. -1.
        -14    1    6    6    0    0  0.38326608818E+02  0.15463875515E+02 -0.50566335548E+02  0.65307079863E+02  0.00000000000E+00 0.  1.
</event>
<event>
12    1  0.8417180E-002  0.2184925E+03  0.7818608E-02  0.1135141E+00
         21   -1    0    0  501  502  0.00000000000E+00  0.00000000000E+00  0.28878832162E+03  0.28878832162E+03  0.00000000000E+00 0. -1.
         21   -1    0    0  502  503 -0.00000000000E+00 -0.00000000000E+00 -0.35044082830E+03  0.35044082830E+03  0.00000000000E+00 0.  1.
         -6    2    1    2    0  503  0.77183523824E+02 -0.11072634284E+03 -0.26348057441E+03  0.34228784225E+03  0.17181773631E+03 0.  0.
        -24    2    3    3    0    0  0.40636079137E+02  0.11082847113E+02 -0.93116747300E+02  0.12963996886E+03  0.79760093221E+02 0.  0.
          6    2    1    2  501    0 -0.77183523824E+02  0.11072634284E+03  0.20182806773E+03  0.29694130767E+03  0.17094429483E+03 0.  0.
         24    2    5    5    0    0 -0.66937613091E+02  0.95137321377E+01  0.61053203795E+02  0.12319257080E+03  0.82932265498E+02 0.  0.
          5    1    5    5  501    0 -0.10245910733E+02  0.10121261070E+03  0.14077486393E+03  0.17374873687E+03  0.47000000000E+01 0. -1.
        -13    1    6    6    0    0 -0.55036557838E+01 -0.32193175070E+02  0.20941609798E+02  0.38797445393E+02  0.00000000000E+00 0.  1.
         14    1    6    6    0    0 -0.61433957307E+02  0.41706907207E+02  0.40111593997E+02  0.84395125405E+02  0.00000000000E+00 0. -1.
         -5    1    3    3    0  503  0.36547444688E+02 -0.12180918995E+03 -0.17036382711E+03  0.21264787339E+03  0.47000000000E+01 0.  1.
         11    1    4    4    0    0 -0.17217838045E+02 -0.34427063290E+01 -0.57601067404E+02  0.60217847353E+02  0.00000000000E+00 0. -1.
        -12    1    4    4    0    0  0.57853917181E+02  0.14525553442E+02 -0.35515679896E+02  0.69422121506E+02  0.00000000000E+00 0.  1.
</event>
<event>
12    1  0.8417180E-002  0.1762007E+03  0.7818608E-02  0.1172905E+00
         21   -1    0    0  501  502  0.00000000000E+00  0.00000000000E+00  0.29533844461E+03  0.29533844461E+03  0.00000000000E+00 0. -1.
         21   -1    0    0  502  503 -0.00000000000E+00 -0.00000000000E+00 -0.10567068768E+03  0.10567068768E+03  0.00000000000E+00 0. -1.
         -6    2    1    2    0  503  0.31357247455E+02 -0.30908632286E+02  0.13409906494E+03  0.22142548196E+03  0.17061085640E+03 0.  0.
        -24    2    3    3    0    0 -0.18517512892E+02  0.34426986840E+02  0.43649008331E+02  0.99116293472E+02  0.79941778793E+02 0.  0.
          6    2    1    2  501    0 -0.31357247455E+02  0.30908632286E+02  0.55568691977E+02  0.17958365034E+03  0.16499632548E+03 0.  0.
         24    2    5    5    0    0  0.11420559841E+02  0.36039490467E+02 -0.53719826277E+01  0.10480315606E+03  0.97599022857E+02 0.  0.
          5    1    5    5  501    0 -0.42777807297E+02 -0.51308581811E+01  0.60940674605E+02  0.74780494275E+02  0.47000000000E+01 0. -1.
        -13    1    6    6    0    0  0.43412312383E+02  0.49834837430E+02 -0.16698627510E+02  0.68168790871E+02  0.00000000000E+00 0.  1.
         14    1    6    6    0    0 -0.31991752542E+02 -0.13795346963E+02  0.11326644882E+02  0.36634365189E+02  0.00000000000E+00 0. -1.
         -5    1    3    3    0  503  0.49874760348E+02 -0.65335619126E+02  0.90450056613E+02  0.12230918848E+03  0.47000000000E+01 0.  1.
         11    1    4    4    0    0 -0.26223395907E+02  0.24495599603E+02  0.65053045088E+02  0.74294007619E+02  0.00000000000E+00 0. -1.
        -12    1    4    4    0    0  0.77058830150E+01  0.99313872361E+01 -0.21404036757E+02  0.24822285853E+02  0.00000000000E+00 0.  1.
</event>
<event>
12    1  0.8417180E-002  0.2476802E+03  0.7818608E-02  0.1116215E+00
         21   -1    0    0  503  502  0.00000000000E+00  0.00000000000E+00  0.11846618233E+03  0.11846618233E+03  0.00000000000E+00 0.  1.
         21   -1    0    0  501  503 -0.00000000000E+00 -0.00000000000E+00 -0.80732576756E+03  0.80732576756E+03  0.00000000000E+00 0.  1.
          6    2    1    2  501    0  0.81974823026E+02 -0.14371793756E+03 -0.62633425627E+03  0.67034157592E+03  0.17230354218E+03 0.  0.
         24    2    3    3    0    0  0.59140811483E+02 -0.92479645950E+01 -0.32163122466E+03  0.33647095250E+03  0.78631398111E+02 0.  0.
         -6    2    1    2    0  502 -0.81974823026E+02  0.14371793756E+03 -0.62525328957E+02  0.25545037397E+03  0.18431158297E+03 0.  0.
        -24    2    5    5    0    0 -0.68181730953E+02  0.17264439456E+03 -0.20727343280E+02  0.20257173074E+03  0.78427341699E+02 0.  0.
          5    1    3    3  501    0  0.22834011543E+02 -0.13446997296E+03 -0.30470303161E+03  0.33387062342E+03  0.47000000000E+01 0. -1.
        -13    1    4    4    0    0  0.48721730747E+02 -0.22647405897E+02 -0.94495778288E+02  0.10870218100E+03  0.00000000000E+00 0.  1.
         14    1    4    4    0    0  0.10419080735E+02  0.13399441302E+02 -0.22713544637E+03  0.22776877150E+03  0.00000000000E+00 0. -1.
         -5    1    5    5    0  502 -0.13793092073E+02 -0.28926457002E+02 -0.41797985678E+02  0.52878643234E+02  0.47000000000E+01 0.  1.
         13    1    6    6    0    0 -0.28425122936E+01  0.19917547051E+01 -0.19528231203E+02  0.19834282867E+02  0.00000000000E+00 0. -1.
        -14    1    6    6    0    0 -0.65339218659E+02  0.17065263986E+03 -0.11991120770E+01  0.18273744787E+03  0.00000000000E+00 0.  1.
</event>
<event>
12    1  0.8417180E-002  0.1916525E+03  0.7818608E-02  0.1157993E+00
         21   -1    0    0  501  502  0.00000000000E+00  0.00000000000E+00  0.23959791901E+03  0.23959791901E+03  0.00000000000E+00 0.  1.
         21   -1    0    0  502  503 -0.00000000000E+00 -0.00000000000E+00 -0.15034772556E+03  0.15034772556E+03  0.00000000000E+00 0. -1.
         -6    2    1    2    0  503 -0.73613593316E+02  0.27373237187E+02  0.32678527350E+02  0.19441856242E+03  0.17482115441E+03 0.  0.
        -24    2    3    3    0    0 -0.59568917000E+00  0.70972680901E+02  0.14861205362E+02  0.10740090455E+03  0.79225138651E+02 0.  0.
          6    2    1    2  501    0  0.73613593316E+02 -0.27373237187E+02  0.56571666101E+02  0.19552708214E+03  0.16988887901E+03 0.  0.
         24    2    5    5    0    0 -0.24893628445E+01 -0.18807787055E+02 -0.20362451187E+02  0.86871777277E+02  0.82293052487E+02 0.  0.
          5    1    5    5  501    0  0.76102956160E+02 -0.85654501320E+01  0.76934117288E+02  0.10865530486E+03  0.47000000000E+01 0. -1.
        -13    1    6    6    0    0 -0.10976766989E+01  0.18285735734E+02 -0.40637731401E+02  0.44575758422E+02  0.00000000000E+00 0.  1.
         14    1    6    6    0    0 -0.13916861455E+01 -0.37093522789E+02  0.20275280214E+02  0.42296018855E+02  0.00000000000E+00 0. -1.
         -5    1    3    3    0  503 -0.73017904146E+02 -0.43599443714E+02  0.17817321988E+02  0.87017657868E+02  0.47000000000E+01 0.  1.
         11    1    4    4    0    0 -0.10298019495E+01  0.14874029600E+02 -0.31352423354E+02  0.34717023184E+02  0.00000000000E+00 0. -1.
        -12    1    4    4    0    0  0.43411277947E+00  0.56098651302E+02  0.46213628717E+02  0.72683881369E+02  0.00000000000E+00 0.  1.
</event>
<event>
12    1  0.8417180E-002  0.2059645E+03  0.7818608E-02  0.1144813E+00
         21   -1    0    0  503  502  0.00000000000E+00  0.00000000000E+00  0.10234023625E+03  0.10234023625E+03  0.00000000000E+00 0. -1.
         21   -1    0    0  501  503 -0.00000000000E+00 -0.00000000000E+00 -0.14153566618E+04  0.14153566618E+04  0.00000000000E+00 0.  1.
          6    2    1    2  501    0  0.66893244833E+02 -0.90046343171E+02 -0.12946923690E+04  0.13109728083E+04  0.17273773071E+03 0.  0.
         24    2    3    3    0    0  0.87398510501E+02 -0.19561070250E+02 -0.99985868904E+03  0.10071017362E+04  0.80717865975E+02 0.  0.
         -6    2    1    2    0  502 -0.66893244833E+02  0.90046343171E+02 -0.18324056597E+02  0.20672408980E+03  0.17267318301E+03 0.  0.
        -24    2    5    5    0    0 -0.22507775836E+01  0.10950819208E+03  0.48206109328E+01  0.13520361881E+03  0.79118077052E+02 0.  0.
          5    1    3    3  501    0 -0.20505265668E+02 -0.70485272921E+02 -0.29483367992E+03  0.30387107206E+03  0.47000000000E+01 0. -1.
        -13    1    4    4    0    0  0.81050402252E+02 -0.35501668767E+02 -0.56341996554E+03  0.57032586629E+03  0.00000000000E+00 0.  1.
         14    1    4    4    0    0  0.63481082491E+01  0.15940598517E+02 -0.43643872350E+03  0.43677586990E+03  0.00000000000E+00 0. -1.
         -5    1    5    5    0  502 -0.64642467249E+02 -0.19461848914E+02 -0.23144667530E+02  0.71520470988E+02  0.47000000000E+01 0.  1.
         13    1    6    6    0    0 -0.39555071577E+02  0.58649562329E+02 -0.68047782448E+01  0.71068135306E+02  0.00000000000E+00 0. -1.
        -14    1    6    6    0    0  0.37304293993E+02  0.50858629755E+02  0.11625389178E+02  0.64135483505E+02  0.00000000000E+00 0.  1.
</event>
<event>
12    1  0.8417180E-002  0.2216688E+03  0.7818608E-02  0.1132792E+00
         21   -1    0    0  501  502  0.00000000000E+00  0.00000000000E+00  0.56159774562E+03  0.56159774562E+03  0.00000000000E+00 0.  1.
         21   -1    0    0  502  503 -0.00000000000E+00 -0.00000000000E+00 -0.88609766909E+02  0.88609766909E+02  0.00000000000E+00 0. -1.
         -6    2    1    2    0  503  0.12387490650E+03  0.62931468933E+02  0.27819540559E+03  0.35571017497E+03  0.17271850696E+03 0.  0.
        -24    2    3    3    0    0  0.77502770960E+02 -0.30194966403E+02  0.17141621975E+03  0.20655658822E+03  0.79772728679E+02 0.  0.
          6    2    1    2  501    0 -0.12387490650E+03 -0.62931468933E+02  0.19479257313E+03  0.29449733756E+03  0.17169500005E+03 0.  0.
         24    2    5    5    0    0 -0.73323305977E+02 -0.71166890277E+02  0.20493863653E+03  0.24207292452E+03  0.78475617686E+02 0.  0.
          5    1    5    5  501    0 -0.50551600522E+02  0.82354213443E+01 -0.10146063405E+02  0.52424413041E+02  0.47000000000E+01 0. -1.
        -13    1    6    6    0    0 -0.89001838852E+02 -0.52035928112E+02  0.17629323919E+03  0.20422627479E+03  0.00000000000E+00 0.  1.
         14    1    6    6    0    0  0.15678532874E+02 -0.19130962166E+02  0.28645397347E+02  0.37846649728E+02  0.00000000000E+00 0. -1.
         -5    1    3    3    0  503  0.46372135539E+02  0.93126435336E+02  0.10677918584E+03  0.14915358675E+03  0.47000000000E+01 0.  1.
         11    1    4    4    0    0  0.89710200644E+02 -0.82466844705E+01  0.13162946332E+03  0.15950624915E+03  0.00000000000E+00 0. -1.
        -12    1    4    4    0    0 -0.12207429683E+02 -0.21948281932E+02  0.39786756430E+02  0.47050339069E+02  0.00000000000E+00 0.  1.
</event>
